PSF EXT CMAP XPLOR

         2 !NTITLE
* GENERATED BY CHARMM-GUI FF-Converter
* DATE:   10/21/24   14:08:57

     20238 !NATOM
         1 MEMB     1        OSM      N        NTL     -0.600000       14.0070           0
         2 MEMB     1        OSM      C15      CTL5    -0.350000       12.0110           0
         3 MEMB     1        OSM      H15A     HL       0.250000       1.00800           0
         4 MEMB     1        OSM      H15B     HL       0.250000       1.00800           0
         5 MEMB     1        OSM      H15C     HL       0.250000       1.00800           0
         6 MEMB     1        OSM      C14      CTL5    -0.350000       12.0110           0
         7 MEMB     1        OSM      H14A     HL       0.250000       1.00800           0
         8 MEMB     1        OSM      H14B     HL       0.250000       1.00800           0
         9 MEMB     1        OSM      H14C     HL       0.250000       1.00800           0
        10 MEMB     1        OSM      C13      CTL5    -0.350000       12.0110           0
        11 MEMB     1        OSM      H13A     HL       0.250000       1.00800           0
        12 MEMB     1        OSM      H13B     HL       0.250000       1.00800           0
        13 MEMB     1        OSM      H13C     HL       0.250000       1.00800           0
        14 MEMB     1        OSM      C12      CTL2    -0.100000       12.0110           0
        15 MEMB     1        OSM      H12A     HL       0.250000       1.00800           0
        16 MEMB     1        OSM      H12B     HL       0.250000       1.00800           0
        17 MEMB     1        OSM      C11      CTL2    -0.800000E-01   12.0110           0
        18 MEMB     1        OSM      H11A     HAL2     0.900000E-01   1.00800           0
        19 MEMB     1        OSM      H11B     HAL2     0.900000E-01   1.00800           0
        20 MEMB     1        OSM      P        PL       1.500000       30.9740           0
        21 MEMB     1        OSM      O13      O2L     -0.780000       15.9994           0
        22 MEMB     1        OSM      O14      O2L     -0.780000       15.9994           0
        23 MEMB     1        OSM      O11      OSLP    -0.570000       15.9994           0
        24 MEMB     1        OSM      O12      OSLP    -0.570000       15.9994           0
        25 MEMB     1        OSM      C1S      CTL2    -0.800000E-01   12.0110           0
        26 MEMB     1        OSM      H1S      HAL2     0.900000E-01   1.00800           0
        27 MEMB     1        OSM      H1T      HAL2     0.900000E-01   1.00800           0
        28 MEMB     1        OSM      NF       NHL     -0.700000       14.0070           0
        29 MEMB     1        OSM      HNF      H        0.350000       1.00800           0
        30 MEMB     1        OSM      C2S      CTL1     0.300000       12.0110           0
        31 MEMB     1        OSM      H2S      HAL1     0.500000E-01   1.00800           0
        32 MEMB     1        OSM      C3S      CTO1     0.500000       12.0110           0
        33 MEMB     1        OSM      H3S      HAL1    -0.110000       1.00800           0
        34 MEMB     1        OSM      O3       OHL     -0.690000       15.9994           0
        35 MEMB     1        OSM      HO3      HOL      0.300000       1.00800           0
        36 MEMB     1        OSM      C4S      CEL3    -0.150000       12.0110           0
        37 MEMB     1        OSM      H4S      HEL1     0.150000       1.00800           0
        38 MEMB     1        OSM      C5S      CEL3    -0.150000       12.0110           0
        39 MEMB     1        OSM      H5S      HEL1     0.150000       1.00800           0
        40 MEMB     1        OSM      C6S      CTL2    -0.180000       12.0110           0
        41 MEMB     1        OSM      H6S      HAL2     0.900000E-01   1.00800           0
        42 MEMB     1        OSM      H6T      HAL2     0.900000E-01   1.00800           0
        43 MEMB     1        OSM      C7S      CTL2    -0.180000       12.0110           0
        44 MEMB     1        OSM      H7S      HAL2     0.900000E-01   1.00800           0
        45 MEMB     1        OSM      H7T      HAL2     0.900000E-01   1.00800           0
        46 MEMB     1        OSM      C8S      CTL2    -0.180000       12.0110           0
        47 MEMB     1        OSM      H8S      HAL2     0.900000E-01   1.00800           0
        48 MEMB     1        OSM      H8T      HAL2     0.900000E-01   1.00800           0
        49 MEMB     1        OSM      C9S      CTL2    -0.180000       12.0110           0
        50 MEMB     1        OSM      H9S      HAL2     0.900000E-01   1.00800           0
        51 MEMB     1        OSM      H9T      HAL2     0.900000E-01   1.00800           0
        52 MEMB     1        OSM      C10S     CTL2    -0.180000       12.0110           0
        53 MEMB     1        OSM      H10S     HAL2     0.900000E-01   1.00800           0
        54 MEMB     1        OSM      H10T     HAL2     0.900000E-01   1.00800           0
        55 MEMB     1        OSM      C11S     CTL2    -0.180000       12.0110           0
        56 MEMB     1        OSM      H11S     HAL2     0.900000E-01   1.00800           0
        57 MEMB     1        OSM      H11T     HAL2     0.900000E-01   1.00800           0
        58 MEMB     1        OSM      C12S     CTL2    -0.180000       12.0110           0
        59 MEMB     1        OSM      H12S     HAL2     0.900000E-01   1.00800           0
        60 MEMB     1        OSM      H12T     HAL2     0.900000E-01   1.00800           0
        61 MEMB     1        OSM      C13S     CTL2    -0.180000       12.0110           0
        62 MEMB     1        OSM      H13S     HAL2     0.900000E-01   1.00800           0
        63 MEMB     1        OSM      H13T     HAL2     0.900000E-01   1.00800           0
        64 MEMB     1        OSM      C14S     CTL2    -0.180000       12.0110           0
        65 MEMB     1        OSM      H14S     HAL2     0.900000E-01   1.00800           0
        66 MEMB     1        OSM      H14T     HAL2     0.900000E-01   1.00800           0
        67 MEMB     1        OSM      C15S     CTL2    -0.180000       12.0110           0
        68 MEMB     1        OSM      H15S     HAL2     0.900000E-01   1.00800           0
        69 MEMB     1        OSM      H15T     HAL2     0.900000E-01   1.00800           0
        70 MEMB     1        OSM      C16S     CTL2    -0.180000       12.0110           0
        71 MEMB     1        OSM      H16S     HAL2     0.900000E-01   1.00800           0
        72 MEMB     1        OSM      H16T     HAL2     0.900000E-01   1.00800           0
        73 MEMB     1        OSM      C17S     CTL2    -0.180000       12.0110           0
        74 MEMB     1        OSM      H17S     HAL2     0.900000E-01   1.00800           0
        75 MEMB     1        OSM      H17T     HAL2     0.900000E-01   1.00800           0
        76 MEMB     1        OSM      C18S     CTL3    -0.270000       12.0110           0
        77 MEMB     1        OSM      H18S     HAL3     0.900000E-01   1.00800           0
        78 MEMB     1        OSM      H18T     HAL3     0.900000E-01   1.00800           0
        79 MEMB     1        OSM      H18U     HAL3     0.900000E-01   1.00800           0
        80 MEMB     1        OSM      C1F      C        0.550000       12.0110           0
        81 MEMB     1        OSM      OF       O       -0.600000       15.9994           0
        82 MEMB     1        OSM      C2F      CTL2    -0.700000E-01   12.0110           0
        83 MEMB     1        OSM      H2F      HAL2     0.600000E-01   1.00800           0
        84 MEMB     1        OSM      H2G      HAL2     0.600000E-01   1.00800           0
        85 MEMB     1        OSM      C3F      CTL2    -0.180000       12.0110           0
        86 MEMB     1        OSM      H3F      HAL2     0.900000E-01   1.00800           0
        87 MEMB     1        OSM      H3G      HAL2     0.900000E-01   1.00800           0
        88 MEMB     1        OSM      C4F      CTL2    -0.180000       12.0110           0
        89 MEMB     1        OSM      H4F      HAL2     0.900000E-01   1.00800           0
        90 MEMB     1        OSM      H4G      HAL2     0.900000E-01   1.00800           0
        91 MEMB     1        OSM      C5F      CTL2    -0.180000       12.0110           0
        92 MEMB     1        OSM      H5F      HAL2     0.900000E-01   1.00800           0
        93 MEMB     1        OSM      H5G      HAL2     0.900000E-01   1.00800           0
        94 MEMB     1        OSM      C6F      CTL2    -0.180000       12.0110           0
        95 MEMB     1        OSM      H6F      HAL2     0.900000E-01   1.00800           0
        96 MEMB     1        OSM      H6G      HAL2     0.900000E-01   1.00800           0
        97 MEMB     1        OSM      C7F      CTL2    -0.180000       12.0110           0
        98 MEMB     1        OSM      H7F      HAL2     0.900000E-01   1.00800           0
        99 MEMB     1        OSM      H7G      HAL2     0.900000E-01   1.00800           0
       100 MEMB     1        OSM      C8F      CTL2    -0.180000       12.0110           0
       101 MEMB     1        OSM      H8F      HAL2     0.900000E-01   1.00800           0
       102 MEMB     1        OSM      H8G      HAL2     0.900000E-01   1.00800           0
       103 MEMB     1        OSM      C9F      CEL1    -0.150000       12.0110           0
       104 MEMB     1        OSM      H9F      HEL1     0.150000       1.00800           0
       105 MEMB     1        OSM      C10F     CEL1    -0.150000       12.0110           0
       106 MEMB     1        OSM      H10F     HEL1     0.150000       1.00800           0
       107 MEMB     1        OSM      C11F     CTL2    -0.180000       12.0110           0
       108 MEMB     1        OSM      H11F     HAL2     0.900000E-01   1.00800           0
       109 MEMB     1        OSM      H11G     HAL2     0.900000E-01   1.00800           0
       110 MEMB     1        OSM      C12F     CTL2    -0.180000       12.0110           0
       111 MEMB     1        OSM      H12F     HAL2     0.900000E-01   1.00800           0
       112 MEMB     1        OSM      H12G     HAL2     0.900000E-01   1.00800           0
       113 MEMB     1        OSM      C13F     CTL2    -0.180000       12.0110           0
       114 MEMB     1        OSM      H13F     HAL2     0.900000E-01   1.00800           0
       115 MEMB     1        OSM      H13G     HAL2     0.900000E-01   1.00800           0
       116 MEMB     1        OSM      C14F     CTL2    -0.180000       12.0110           0
       117 MEMB     1        OSM      H14F     HAL2     0.900000E-01   1.00800           0
       118 MEMB     1        OSM      H14G     HAL2     0.900000E-01   1.00800           0
       119 MEMB     1        OSM      C15F     CTL2    -0.180000       12.0110           0
       120 MEMB     1        OSM      H15F     HAL2     0.900000E-01   1.00800           0
       121 MEMB     1        OSM      H15G     HAL2     0.900000E-01   1.00800           0
       122 MEMB     1        OSM      C16F     CTL2    -0.180000       12.0110           0
       123 MEMB     1        OSM      H16F     HAL2     0.900000E-01   1.00800           0
       124 MEMB     1        OSM      H16G     HAL2     0.900000E-01   1.00800           0
       125 MEMB     1        OSM      C17F     CTL2    -0.180000       12.0110           0
       126 MEMB     1        OSM      H17F     HAL2     0.900000E-01   1.00800           0
       127 MEMB     1        OSM      H17G     HAL2     0.900000E-01   1.00800           0
       128 MEMB     1        OSM      C18F     CTL3    -0.270000       12.0110           0
       129 MEMB     1        OSM      H18F     HAL3     0.900000E-01   1.00800           0
       130 MEMB     1        OSM      H18G     HAL3     0.900000E-01   1.00800           0
       131 MEMB     1        OSM      H18H     HAL3     0.900000E-01   1.00800           0
       132 MEMB     7        OSM      N        NTL     -0.600000       14.0070           0
       133 MEMB     7        OSM      C15      CTL5    -0.350000       12.0110           0
       134 MEMB     7        OSM      H15A     HL       0.250000       1.00800           0
       135 MEMB     7        OSM      H15B     HL       0.250000       1.00800           0
       136 MEMB     7        OSM      H15C     HL       0.250000       1.00800           0
       137 MEMB     7        OSM      C14      CTL5    -0.350000       12.0110           0
       138 MEMB     7        OSM      H14A     HL       0.250000       1.00800           0
       139 MEMB     7        OSM      H14B     HL       0.250000       1.00800           0
       140 MEMB     7        OSM      H14C     HL       0.250000       1.00800           0
       141 MEMB     7        OSM      C13      CTL5    -0.350000       12.0110           0
       142 MEMB     7        OSM      H13A     HL       0.250000       1.00800           0
       143 MEMB     7        OSM      H13B     HL       0.250000       1.00800           0
       144 MEMB     7        OSM      H13C     HL       0.250000       1.00800           0
       145 MEMB     7        OSM      C12      CTL2    -0.100000       12.0110           0
       146 MEMB     7        OSM      H12A     HL       0.250000       1.00800           0
       147 MEMB     7        OSM      H12B     HL       0.250000       1.00800           0
       148 MEMB     7        OSM      C11      CTL2    -0.800000E-01   12.0110           0
       149 MEMB     7        OSM      H11A     HAL2     0.900000E-01   1.00800           0
       150 MEMB     7        OSM      H11B     HAL2     0.900000E-01   1.00800           0
       151 MEMB     7        OSM      P        PL       1.500000       30.9740           0
       152 MEMB     7        OSM      O13      O2L     -0.780000       15.9994           0
       153 MEMB     7        OSM      O14      O2L     -0.780000       15.9994           0
       154 MEMB     7        OSM      O11      OSLP    -0.570000       15.9994           0
       155 MEMB     7        OSM      O12      OSLP    -0.570000       15.9994           0
       156 MEMB     7        OSM      C1S      CTL2    -0.800000E-01   12.0110           0
       157 MEMB     7        OSM      H1S      HAL2     0.900000E-01   1.00800           0
       158 MEMB     7        OSM      H1T      HAL2     0.900000E-01   1.00800           0
       159 MEMB     7        OSM      NF       NHL     -0.700000       14.0070           0
       160 MEMB     7        OSM      HNF      H        0.350000       1.00800           0
       161 MEMB     7        OSM      C2S      CTL1     0.300000       12.0110           0
       162 MEMB     7        OSM      H2S      HAL1     0.500000E-01   1.00800           0
       163 MEMB     7        OSM      C3S      CTO1     0.500000       12.0110           0
       164 MEMB     7        OSM      H3S      HAL1    -0.110000       1.00800           0
       165 MEMB     7        OSM      O3       OHL     -0.690000       15.9994           0
       166 MEMB     7        OSM      HO3      HOL      0.300000       1.00800           0
       167 MEMB     7        OSM      C4S      CEL3    -0.150000       12.0110           0
       168 MEMB     7        OSM      H4S      HEL1     0.150000       1.00800           0
       169 MEMB     7        OSM      C5S      CEL3    -0.150000       12.0110           0
       170 MEMB     7        OSM      H5S      HEL1     0.150000       1.00800           0
       171 MEMB     7        OSM      C6S      CTL2    -0.180000       12.0110           0
       172 MEMB     7        OSM      H6S      HAL2     0.900000E-01   1.00800           0
       173 MEMB     7        OSM      H6T      HAL2     0.900000E-01   1.00800           0
       174 MEMB     7        OSM      C7S      CTL2    -0.180000       12.0110           0
       175 MEMB     7        OSM      H7S      HAL2     0.900000E-01   1.00800           0
       176 MEMB     7        OSM      H7T      HAL2     0.900000E-01   1.00800           0
       177 MEMB     7        OSM      C8S      CTL2    -0.180000       12.0110           0
       178 MEMB     7        OSM      H8S      HAL2     0.900000E-01   1.00800           0
       179 MEMB     7        OSM      H8T      HAL2     0.900000E-01   1.00800           0
       180 MEMB     7        OSM      C9S      CTL2    -0.180000       12.0110           0
       181 MEMB     7        OSM      H9S      HAL2     0.900000E-01   1.00800           0
       182 MEMB     7        OSM      H9T      HAL2     0.900000E-01   1.00800           0
       183 MEMB     7        OSM      C10S     CTL2    -0.180000       12.0110           0
       184 MEMB     7        OSM      H10S     HAL2     0.900000E-01   1.00800           0
       185 MEMB     7        OSM      H10T     HAL2     0.900000E-01   1.00800           0
       186 MEMB     7        OSM      C11S     CTL2    -0.180000       12.0110           0
       187 MEMB     7        OSM      H11S     HAL2     0.900000E-01   1.00800           0
       188 MEMB     7        OSM      H11T     HAL2     0.900000E-01   1.00800           0
       189 MEMB     7        OSM      C12S     CTL2    -0.180000       12.0110           0
       190 MEMB     7        OSM      H12S     HAL2     0.900000E-01   1.00800           0
       191 MEMB     7        OSM      H12T     HAL2     0.900000E-01   1.00800           0
       192 MEMB     7        OSM      C13S     CTL2    -0.180000       12.0110           0
       193 MEMB     7        OSM      H13S     HAL2     0.900000E-01   1.00800           0
       194 MEMB     7        OSM      H13T     HAL2     0.900000E-01   1.00800           0
       195 MEMB     7        OSM      C14S     CTL2    -0.180000       12.0110           0
       196 MEMB     7        OSM      H14S     HAL2     0.900000E-01   1.00800           0
       197 MEMB     7        OSM      H14T     HAL2     0.900000E-01   1.00800           0
       198 MEMB     7        OSM      C15S     CTL2    -0.180000       12.0110           0
       199 MEMB     7        OSM      H15S     HAL2     0.900000E-01   1.00800           0
       200 MEMB     7        OSM      H15T     HAL2     0.900000E-01   1.00800           0
       201 MEMB     7        OSM      C16S     CTL2    -0.180000       12.0110           0
       202 MEMB     7        OSM      H16S     HAL2     0.900000E-01   1.00800           0
       203 MEMB     7        OSM      H16T     HAL2     0.900000E-01   1.00800           0
       204 MEMB     7        OSM      C17S     CTL2    -0.180000       12.0110           0
       205 MEMB     7        OSM      H17S     HAL2     0.900000E-01   1.00800           0
       206 MEMB     7        OSM      H17T     HAL2     0.900000E-01   1.00800           0
       207 MEMB     7        OSM      C18S     CTL3    -0.270000       12.0110           0
       208 MEMB     7        OSM      H18S     HAL3     0.900000E-01   1.00800           0
       209 MEMB     7        OSM      H18T     HAL3     0.900000E-01   1.00800           0
       210 MEMB     7        OSM      H18U     HAL3     0.900000E-01   1.00800           0
       211 MEMB     7        OSM      C1F      C        0.550000       12.0110           0
       212 MEMB     7        OSM      OF       O       -0.600000       15.9994           0
       213 MEMB     7        OSM      C2F      CTL2    -0.700000E-01   12.0110           0
       214 MEMB     7        OSM      H2F      HAL2     0.600000E-01   1.00800           0
       215 MEMB     7        OSM      H2G      HAL2     0.600000E-01   1.00800           0
       216 MEMB     7        OSM      C3F      CTL2    -0.180000       12.0110           0
       217 MEMB     7        OSM      H3F      HAL2     0.900000E-01   1.00800           0
       218 MEMB     7        OSM      H3G      HAL2     0.900000E-01   1.00800           0
       219 MEMB     7        OSM      C4F      CTL2    -0.180000       12.0110           0
       220 MEMB     7        OSM      H4F      HAL2     0.900000E-01   1.00800           0
       221 MEMB     7        OSM      H4G      HAL2     0.900000E-01   1.00800           0
       222 MEMB     7        OSM      C5F      CTL2    -0.180000       12.0110           0
       223 MEMB     7        OSM      H5F      HAL2     0.900000E-01   1.00800           0
       224 MEMB     7        OSM      H5G      HAL2     0.900000E-01   1.00800           0
       225 MEMB     7        OSM      C6F      CTL2    -0.180000       12.0110           0
       226 MEMB     7        OSM      H6F      HAL2     0.900000E-01   1.00800           0
       227 MEMB     7        OSM      H6G      HAL2     0.900000E-01   1.00800           0
       228 MEMB     7        OSM      C7F      CTL2    -0.180000       12.0110           0
       229 MEMB     7        OSM      H7F      HAL2     0.900000E-01   1.00800           0
       230 MEMB     7        OSM      H7G      HAL2     0.900000E-01   1.00800           0
       231 MEMB     7        OSM      C8F      CTL2    -0.180000       12.0110           0
       232 MEMB     7        OSM      H8F      HAL2     0.900000E-01   1.00800           0
       233 MEMB     7        OSM      H8G      HAL2     0.900000E-01   1.00800           0
       234 MEMB     7        OSM      C9F      CEL1    -0.150000       12.0110           0
       235 MEMB     7        OSM      H9F      HEL1     0.150000       1.00800           0
       236 MEMB     7        OSM      C10F     CEL1    -0.150000       12.0110           0
       237 MEMB     7        OSM      H10F     HEL1     0.150000       1.00800           0
       238 MEMB     7        OSM      C11F     CTL2    -0.180000       12.0110           0
       239 MEMB     7        OSM      H11F     HAL2     0.900000E-01   1.00800           0
       240 MEMB     7        OSM      H11G     HAL2     0.900000E-01   1.00800           0
       241 MEMB     7        OSM      C12F     CTL2    -0.180000       12.0110           0
       242 MEMB     7        OSM      H12F     HAL2     0.900000E-01   1.00800           0
       243 MEMB     7        OSM      H12G     HAL2     0.900000E-01   1.00800           0
       244 MEMB     7        OSM      C13F     CTL2    -0.180000       12.0110           0
       245 MEMB     7        OSM      H13F     HAL2     0.900000E-01   1.00800           0
       246 MEMB     7        OSM      H13G     HAL2     0.900000E-01   1.00800           0
       247 MEMB     7        OSM      C14F     CTL2    -0.180000       12.0110           0
       248 MEMB     7        OSM      H14F     HAL2     0.900000E-01   1.00800           0
       249 MEMB     7        OSM      H14G     HAL2     0.900000E-01   1.00800           0
       250 MEMB     7        OSM      C15F     CTL2    -0.180000       12.0110           0
       251 MEMB     7        OSM      H15F     HAL2     0.900000E-01   1.00800           0
       252 MEMB     7        OSM      H15G     HAL2     0.900000E-01   1.00800           0
       253 MEMB     7        OSM      C16F     CTL2    -0.180000       12.0110           0
       254 MEMB     7        OSM      H16F     HAL2     0.900000E-01   1.00800           0
       255 MEMB     7        OSM      H16G     HAL2     0.900000E-01   1.00800           0
       256 MEMB     7        OSM      C17F     CTL2    -0.180000       12.0110           0
       257 MEMB     7        OSM      H17F     HAL2     0.900000E-01   1.00800           0
       258 MEMB     7        OSM      H17G     HAL2     0.900000E-01   1.00800           0
       259 MEMB     7        OSM      C18F     CTL3    -0.270000       12.0110           0
       260 MEMB     7        OSM      H18F     HAL3     0.900000E-01   1.00800           0
       261 MEMB     7        OSM      H18G     HAL3     0.900000E-01   1.00800           0
       262 MEMB     7        OSM      H18H     HAL3     0.900000E-01   1.00800           0
       263 MEMB     9        OSM      N        NTL     -0.600000       14.0070           0
       264 MEMB     9        OSM      C15      CTL5    -0.350000       12.0110           0
       265 MEMB     9        OSM      H15A     HL       0.250000       1.00800           0
       266 MEMB     9        OSM      H15B     HL       0.250000       1.00800           0
       267 MEMB     9        OSM      H15C     HL       0.250000       1.00800           0
       268 MEMB     9        OSM      C14      CTL5    -0.350000       12.0110           0
       269 MEMB     9        OSM      H14A     HL       0.250000       1.00800           0
       270 MEMB     9        OSM      H14B     HL       0.250000       1.00800           0
       271 MEMB     9        OSM      H14C     HL       0.250000       1.00800           0
       272 MEMB     9        OSM      C13      CTL5    -0.350000       12.0110           0
       273 MEMB     9        OSM      H13A     HL       0.250000       1.00800           0
       274 MEMB     9        OSM      H13B     HL       0.250000       1.00800           0
       275 MEMB     9        OSM      H13C     HL       0.250000       1.00800           0
       276 MEMB     9        OSM      C12      CTL2    -0.100000       12.0110           0
       277 MEMB     9        OSM      H12A     HL       0.250000       1.00800           0
       278 MEMB     9        OSM      H12B     HL       0.250000       1.00800           0
       279 MEMB     9        OSM      C11      CTL2    -0.800000E-01   12.0110           0
       280 MEMB     9        OSM      H11A     HAL2     0.900000E-01   1.00800           0
       281 MEMB     9        OSM      H11B     HAL2     0.900000E-01   1.00800           0
       282 MEMB     9        OSM      P        PL       1.500000       30.9740           0
       283 MEMB     9        OSM      O13      O2L     -0.780000       15.9994           0
       284 MEMB     9        OSM      O14      O2L     -0.780000       15.9994           0
       285 MEMB     9        OSM      O11      OSLP    -0.570000       15.9994           0
       286 MEMB     9        OSM      O12      OSLP    -0.570000       15.9994           0
       287 MEMB     9        OSM      C1S      CTL2    -0.800000E-01   12.0110           0
       288 MEMB     9        OSM      H1S      HAL2     0.900000E-01   1.00800           0
       289 MEMB     9        OSM      H1T      HAL2     0.900000E-01   1.00800           0
       290 MEMB     9        OSM      NF       NHL     -0.700000       14.0070           0
       291 MEMB     9        OSM      HNF      H        0.350000       1.00800           0
       292 MEMB     9        OSM      C2S      CTL1     0.300000       12.0110           0
       293 MEMB     9        OSM      H2S      HAL1     0.500000E-01   1.00800           0
       294 MEMB     9        OSM      C3S      CTO1     0.500000       12.0110           0
       295 MEMB     9        OSM      H3S      HAL1    -0.110000       1.00800           0
       296 MEMB     9        OSM      O3       OHL     -0.690000       15.9994           0
       297 MEMB     9        OSM      HO3      HOL      0.300000       1.00800           0
       298 MEMB     9        OSM      C4S      CEL3    -0.150000       12.0110           0
       299 MEMB     9        OSM      H4S      HEL1     0.150000       1.00800           0
       300 MEMB     9        OSM      C5S      CEL3    -0.150000       12.0110           0
       301 MEMB     9        OSM      H5S      HEL1     0.150000       1.00800           0
       302 MEMB     9        OSM      C6S      CTL2    -0.180000       12.0110           0
       303 MEMB     9        OSM      H6S      HAL2     0.900000E-01   1.00800           0
       304 MEMB     9        OSM      H6T      HAL2     0.900000E-01   1.00800           0
       305 MEMB     9        OSM      C7S      CTL2    -0.180000       12.0110           0
       306 MEMB     9        OSM      H7S      HAL2     0.900000E-01   1.00800           0
       307 MEMB     9        OSM      H7T      HAL2     0.900000E-01   1.00800           0
       308 MEMB     9        OSM      C8S      CTL2    -0.180000       12.0110           0
       309 MEMB     9        OSM      H8S      HAL2     0.900000E-01   1.00800           0
       310 MEMB     9        OSM      H8T      HAL2     0.900000E-01   1.00800           0
       311 MEMB     9        OSM      C9S      CTL2    -0.180000       12.0110           0
       312 MEMB     9        OSM      H9S      HAL2     0.900000E-01   1.00800           0
       313 MEMB     9        OSM      H9T      HAL2     0.900000E-01   1.00800           0
       314 MEMB     9        OSM      C10S     CTL2    -0.180000       12.0110           0
       315 MEMB     9        OSM      H10S     HAL2     0.900000E-01   1.00800           0
       316 MEMB     9        OSM      H10T     HAL2     0.900000E-01   1.00800           0
       317 MEMB     9        OSM      C11S     CTL2    -0.180000       12.0110           0
       318 MEMB     9        OSM      H11S     HAL2     0.900000E-01   1.00800           0
       319 MEMB     9        OSM      H11T     HAL2     0.900000E-01   1.00800           0
       320 MEMB     9        OSM      C12S     CTL2    -0.180000       12.0110           0
       321 MEMB     9        OSM      H12S     HAL2     0.900000E-01   1.00800           0
       322 MEMB     9        OSM      H12T     HAL2     0.900000E-01   1.00800           0
       323 MEMB     9        OSM      C13S     CTL2    -0.180000       12.0110           0
       324 MEMB     9        OSM      H13S     HAL2     0.900000E-01   1.00800           0
       325 MEMB     9        OSM      H13T     HAL2     0.900000E-01   1.00800           0
       326 MEMB     9        OSM      C14S     CTL2    -0.180000       12.0110           0
       327 MEMB     9        OSM      H14S     HAL2     0.900000E-01   1.00800           0
       328 MEMB     9        OSM      H14T     HAL2     0.900000E-01   1.00800           0
       329 MEMB     9        OSM      C15S     CTL2    -0.180000       12.0110           0
       330 MEMB     9        OSM      H15S     HAL2     0.900000E-01   1.00800           0
       331 MEMB     9        OSM      H15T     HAL2     0.900000E-01   1.00800           0
       332 MEMB     9        OSM      C16S     CTL2    -0.180000       12.0110           0
       333 MEMB     9        OSM      H16S     HAL2     0.900000E-01   1.00800           0
       334 MEMB     9        OSM      H16T     HAL2     0.900000E-01   1.00800           0
       335 MEMB     9        OSM      C17S     CTL2    -0.180000       12.0110           0
       336 MEMB     9        OSM      H17S     HAL2     0.900000E-01   1.00800           0
       337 MEMB     9        OSM      H17T     HAL2     0.900000E-01   1.00800           0
       338 MEMB     9        OSM      C18S     CTL3    -0.270000       12.0110           0
       339 MEMB     9        OSM      H18S     HAL3     0.900000E-01   1.00800           0
       340 MEMB     9        OSM      H18T     HAL3     0.900000E-01   1.00800           0
       341 MEMB     9        OSM      H18U     HAL3     0.900000E-01   1.00800           0
       342 MEMB     9        OSM      C1F      C        0.550000       12.0110           0
       343 MEMB     9        OSM      OF       O       -0.600000       15.9994           0
       344 MEMB     9        OSM      C2F      CTL2    -0.700000E-01   12.0110           0
       345 MEMB     9        OSM      H2F      HAL2     0.600000E-01   1.00800           0
       346 MEMB     9        OSM      H2G      HAL2     0.600000E-01   1.00800           0
       347 MEMB     9        OSM      C3F      CTL2    -0.180000       12.0110           0
       348 MEMB     9        OSM      H3F      HAL2     0.900000E-01   1.00800           0
       349 MEMB     9        OSM      H3G      HAL2     0.900000E-01   1.00800           0
       350 MEMB     9        OSM      C4F      CTL2    -0.180000       12.0110           0
       351 MEMB     9        OSM      H4F      HAL2     0.900000E-01   1.00800           0
       352 MEMB     9        OSM      H4G      HAL2     0.900000E-01   1.00800           0
       353 MEMB     9        OSM      C5F      CTL2    -0.180000       12.0110           0
       354 MEMB     9        OSM      H5F      HAL2     0.900000E-01   1.00800           0
       355 MEMB     9        OSM      H5G      HAL2     0.900000E-01   1.00800           0
       356 MEMB     9        OSM      C6F      CTL2    -0.180000       12.0110           0
       357 MEMB     9        OSM      H6F      HAL2     0.900000E-01   1.00800           0
       358 MEMB     9        OSM      H6G      HAL2     0.900000E-01   1.00800           0
       359 MEMB     9        OSM      C7F      CTL2    -0.180000       12.0110           0
       360 MEMB     9        OSM      H7F      HAL2     0.900000E-01   1.00800           0
       361 MEMB     9        OSM      H7G      HAL2     0.900000E-01   1.00800           0
       362 MEMB     9        OSM      C8F      CTL2    -0.180000       12.0110           0
       363 MEMB     9        OSM      H8F      HAL2     0.900000E-01   1.00800           0
       364 MEMB     9        OSM      H8G      HAL2     0.900000E-01   1.00800           0
       365 MEMB     9        OSM      C9F      CEL1    -0.150000       12.0110           0
       366 MEMB     9        OSM      H9F      HEL1     0.150000       1.00800           0
       367 MEMB     9        OSM      C10F     CEL1    -0.150000       12.0110           0
       368 MEMB     9        OSM      H10F     HEL1     0.150000       1.00800           0
       369 MEMB     9        OSM      C11F     CTL2    -0.180000       12.0110           0
       370 MEMB     9        OSM      H11F     HAL2     0.900000E-01   1.00800           0
       371 MEMB     9        OSM      H11G     HAL2     0.900000E-01   1.00800           0
       372 MEMB     9        OSM      C12F     CTL2    -0.180000       12.0110           0
       373 MEMB     9        OSM      H12F     HAL2     0.900000E-01   1.00800           0
       374 MEMB     9        OSM      H12G     HAL2     0.900000E-01   1.00800           0
       375 MEMB     9        OSM      C13F     CTL2    -0.180000       12.0110           0
       376 MEMB     9        OSM      H13F     HAL2     0.900000E-01   1.00800           0
       377 MEMB     9        OSM      H13G     HAL2     0.900000E-01   1.00800           0
       378 MEMB     9        OSM      C14F     CTL2    -0.180000       12.0110           0
       379 MEMB     9        OSM      H14F     HAL2     0.900000E-01   1.00800           0
       380 MEMB     9        OSM      H14G     HAL2     0.900000E-01   1.00800           0
       381 MEMB     9        OSM      C15F     CTL2    -0.180000       12.0110           0
       382 MEMB     9        OSM      H15F     HAL2     0.900000E-01   1.00800           0
       383 MEMB     9        OSM      H15G     HAL2     0.900000E-01   1.00800           0
       384 MEMB     9        OSM      C16F     CTL2    -0.180000       12.0110           0
       385 MEMB     9        OSM      H16F     HAL2     0.900000E-01   1.00800           0
       386 MEMB     9        OSM      H16G     HAL2     0.900000E-01   1.00800           0
       387 MEMB     9        OSM      C17F     CTL2    -0.180000       12.0110           0
       388 MEMB     9        OSM      H17F     HAL2     0.900000E-01   1.00800           0
       389 MEMB     9        OSM      H17G     HAL2     0.900000E-01   1.00800           0
       390 MEMB     9        OSM      C18F     CTL3    -0.270000       12.0110           0
       391 MEMB     9        OSM      H18F     HAL3     0.900000E-01   1.00800           0
       392 MEMB     9        OSM      H18G     HAL3     0.900000E-01   1.00800           0
       393 MEMB     9        OSM      H18H     HAL3     0.900000E-01   1.00800           0
       394 MEMB     21       OSM      N        NTL     -0.600000       14.0070           0
       395 MEMB     21       OSM      C15      CTL5    -0.350000       12.0110           0
       396 MEMB     21       OSM      H15A     HL       0.250000       1.00800           0
       397 MEMB     21       OSM      H15B     HL       0.250000       1.00800           0
       398 MEMB     21       OSM      H15C     HL       0.250000       1.00800           0
       399 MEMB     21       OSM      C14      CTL5    -0.350000       12.0110           0
       400 MEMB     21       OSM      H14A     HL       0.250000       1.00800           0
       401 MEMB     21       OSM      H14B     HL       0.250000       1.00800           0
       402 MEMB     21       OSM      H14C     HL       0.250000       1.00800           0
       403 MEMB     21       OSM      C13      CTL5    -0.350000       12.0110           0
       404 MEMB     21       OSM      H13A     HL       0.250000       1.00800           0
       405 MEMB     21       OSM      H13B     HL       0.250000       1.00800           0
       406 MEMB     21       OSM      H13C     HL       0.250000       1.00800           0
       407 MEMB     21       OSM      C12      CTL2    -0.100000       12.0110           0
       408 MEMB     21       OSM      H12A     HL       0.250000       1.00800           0
       409 MEMB     21       OSM      H12B     HL       0.250000       1.00800           0
       410 MEMB     21       OSM      C11      CTL2    -0.800000E-01   12.0110           0
       411 MEMB     21       OSM      H11A     HAL2     0.900000E-01   1.00800           0
       412 MEMB     21       OSM      H11B     HAL2     0.900000E-01   1.00800           0
       413 MEMB     21       OSM      P        PL       1.500000       30.9740           0
       414 MEMB     21       OSM      O13      O2L     -0.780000       15.9994           0
       415 MEMB     21       OSM      O14      O2L     -0.780000       15.9994           0
       416 MEMB     21       OSM      O11      OSLP    -0.570000       15.9994           0
       417 MEMB     21       OSM      O12      OSLP    -0.570000       15.9994           0
       418 MEMB     21       OSM      C1S      CTL2    -0.800000E-01   12.0110           0
       419 MEMB     21       OSM      H1S      HAL2     0.900000E-01   1.00800           0
       420 MEMB     21       OSM      H1T      HAL2     0.900000E-01   1.00800           0
       421 MEMB     21       OSM      NF       NHL     -0.700000       14.0070           0
       422 MEMB     21       OSM      HNF      H        0.350000       1.00800           0
       423 MEMB     21       OSM      C2S      CTL1     0.300000       12.0110           0
       424 MEMB     21       OSM      H2S      HAL1     0.500000E-01   1.00800           0
       425 MEMB     21       OSM      C3S      CTO1     0.500000       12.0110           0
       426 MEMB     21       OSM      H3S      HAL1    -0.110000       1.00800           0
       427 MEMB     21       OSM      O3       OHL     -0.690000       15.9994           0
       428 MEMB     21       OSM      HO3      HOL      0.300000       1.00800           0
       429 MEMB     21       OSM      C4S      CEL3    -0.150000       12.0110           0
       430 MEMB     21       OSM      H4S      HEL1     0.150000       1.00800           0
       431 MEMB     21       OSM      C5S      CEL3    -0.150000       12.0110           0
       432 MEMB     21       OSM      H5S      HEL1     0.150000       1.00800           0
       433 MEMB     21       OSM      C6S      CTL2    -0.180000       12.0110           0
       434 MEMB     21       OSM      H6S      HAL2     0.900000E-01   1.00800           0
       435 MEMB     21       OSM      H6T      HAL2     0.900000E-01   1.00800           0
       436 MEMB     21       OSM      C7S      CTL2    -0.180000       12.0110           0
       437 MEMB     21       OSM      H7S      HAL2     0.900000E-01   1.00800           0
       438 MEMB     21       OSM      H7T      HAL2     0.900000E-01   1.00800           0
       439 MEMB     21       OSM      C8S      CTL2    -0.180000       12.0110           0
       440 MEMB     21       OSM      H8S      HAL2     0.900000E-01   1.00800           0
       441 MEMB     21       OSM      H8T      HAL2     0.900000E-01   1.00800           0
       442 MEMB     21       OSM      C9S      CTL2    -0.180000       12.0110           0
       443 MEMB     21       OSM      H9S      HAL2     0.900000E-01   1.00800           0
       444 MEMB     21       OSM      H9T      HAL2     0.900000E-01   1.00800           0
       445 MEMB     21       OSM      C10S     CTL2    -0.180000       12.0110           0
       446 MEMB     21       OSM      H10S     HAL2     0.900000E-01   1.00800           0
       447 MEMB     21       OSM      H10T     HAL2     0.900000E-01   1.00800           0
       448 MEMB     21       OSM      C11S     CTL2    -0.180000       12.0110           0
       449 MEMB     21       OSM      H11S     HAL2     0.900000E-01   1.00800           0
       450 MEMB     21       OSM      H11T     HAL2     0.900000E-01   1.00800           0
       451 MEMB     21       OSM      C12S     CTL2    -0.180000       12.0110           0
       452 MEMB     21       OSM      H12S     HAL2     0.900000E-01   1.00800           0
       453 MEMB     21       OSM      H12T     HAL2     0.900000E-01   1.00800           0
       454 MEMB     21       OSM      C13S     CTL2    -0.180000       12.0110           0
       455 MEMB     21       OSM      H13S     HAL2     0.900000E-01   1.00800           0
       456 MEMB     21       OSM      H13T     HAL2     0.900000E-01   1.00800           0
       457 MEMB     21       OSM      C14S     CTL2    -0.180000       12.0110           0
       458 MEMB     21       OSM      H14S     HAL2     0.900000E-01   1.00800           0
       459 MEMB     21       OSM      H14T     HAL2     0.900000E-01   1.00800           0
       460 MEMB     21       OSM      C15S     CTL2    -0.180000       12.0110           0
       461 MEMB     21       OSM      H15S     HAL2     0.900000E-01   1.00800           0
       462 MEMB     21       OSM      H15T     HAL2     0.900000E-01   1.00800           0
       463 MEMB     21       OSM      C16S     CTL2    -0.180000       12.0110           0
       464 MEMB     21       OSM      H16S     HAL2     0.900000E-01   1.00800           0
       465 MEMB     21       OSM      H16T     HAL2     0.900000E-01   1.00800           0
       466 MEMB     21       OSM      C17S     CTL2    -0.180000       12.0110           0
       467 MEMB     21       OSM      H17S     HAL2     0.900000E-01   1.00800           0
       468 MEMB     21       OSM      H17T     HAL2     0.900000E-01   1.00800           0
       469 MEMB     21       OSM      C18S     CTL3    -0.270000       12.0110           0
       470 MEMB     21       OSM      H18S     HAL3     0.900000E-01   1.00800           0
       471 MEMB     21       OSM      H18T     HAL3     0.900000E-01   1.00800           0
       472 MEMB     21       OSM      H18U     HAL3     0.900000E-01   1.00800           0
       473 MEMB     21       OSM      C1F      C        0.550000       12.0110           0
       474 MEMB     21       OSM      OF       O       -0.600000       15.9994           0
       475 MEMB     21       OSM      C2F      CTL2    -0.700000E-01   12.0110           0
       476 MEMB     21       OSM      H2F      HAL2     0.600000E-01   1.00800           0
       477 MEMB     21       OSM      H2G      HAL2     0.600000E-01   1.00800           0
       478 MEMB     21       OSM      C3F      CTL2    -0.180000       12.0110           0
       479 MEMB     21       OSM      H3F      HAL2     0.900000E-01   1.00800           0
       480 MEMB     21       OSM      H3G      HAL2     0.900000E-01   1.00800           0
       481 MEMB     21       OSM      C4F      CTL2    -0.180000       12.0110           0
       482 MEMB     21       OSM      H4F      HAL2     0.900000E-01   1.00800           0
       483 MEMB     21       OSM      H4G      HAL2     0.900000E-01   1.00800           0
       484 MEMB     21       OSM      C5F      CTL2    -0.180000       12.0110           0
       485 MEMB     21       OSM      H5F      HAL2     0.900000E-01   1.00800           0
       486 MEMB     21       OSM      H5G      HAL2     0.900000E-01   1.00800           0
       487 MEMB     21       OSM      C6F      CTL2    -0.180000       12.0110           0
       488 MEMB     21       OSM      H6F      HAL2     0.900000E-01   1.00800           0
       489 MEMB     21       OSM      H6G      HAL2     0.900000E-01   1.00800           0
       490 MEMB     21       OSM      C7F      CTL2    -0.180000       12.0110           0
       491 MEMB     21       OSM      H7F      HAL2     0.900000E-01   1.00800           0
       492 MEMB     21       OSM      H7G      HAL2     0.900000E-01   1.00800           0
       493 MEMB     21       OSM      C8F      CTL2    -0.180000       12.0110           0
       494 MEMB     21       OSM      H8F      HAL2     0.900000E-01   1.00800           0
       495 MEMB     21       OSM      H8G      HAL2     0.900000E-01   1.00800           0
       496 MEMB     21       OSM      C9F      CEL1    -0.150000       12.0110           0
       497 MEMB     21       OSM      H9F      HEL1     0.150000       1.00800           0
       498 MEMB     21       OSM      C10F     CEL1    -0.150000       12.0110           0
       499 MEMB     21       OSM      H10F     HEL1     0.150000       1.00800           0
       500 MEMB     21       OSM      C11F     CTL2    -0.180000       12.0110           0
       501 MEMB     21       OSM      H11F     HAL2     0.900000E-01   1.00800           0
       502 MEMB     21       OSM      H11G     HAL2     0.900000E-01   1.00800           0
       503 MEMB     21       OSM      C12F     CTL2    -0.180000       12.0110           0
       504 MEMB     21       OSM      H12F     HAL2     0.900000E-01   1.00800           0
       505 MEMB     21       OSM      H12G     HAL2     0.900000E-01   1.00800           0
       506 MEMB     21       OSM      C13F     CTL2    -0.180000       12.0110           0
       507 MEMB     21       OSM      H13F     HAL2     0.900000E-01   1.00800           0
       508 MEMB     21       OSM      H13G     HAL2     0.900000E-01   1.00800           0
       509 MEMB     21       OSM      C14F     CTL2    -0.180000       12.0110           0
       510 MEMB     21       OSM      H14F     HAL2     0.900000E-01   1.00800           0
       511 MEMB     21       OSM      H14G     HAL2     0.900000E-01   1.00800           0
       512 MEMB     21       OSM      C15F     CTL2    -0.180000       12.0110           0
       513 MEMB     21       OSM      H15F     HAL2     0.900000E-01   1.00800           0
       514 MEMB     21       OSM      H15G     HAL2     0.900000E-01   1.00800           0
       515 MEMB     21       OSM      C16F     CTL2    -0.180000       12.0110           0
       516 MEMB     21       OSM      H16F     HAL2     0.900000E-01   1.00800           0
       517 MEMB     21       OSM      H16G     HAL2     0.900000E-01   1.00800           0
       518 MEMB     21       OSM      C17F     CTL2    -0.180000       12.0110           0
       519 MEMB     21       OSM      H17F     HAL2     0.900000E-01   1.00800           0
       520 MEMB     21       OSM      H17G     HAL2     0.900000E-01   1.00800           0
       521 MEMB     21       OSM      C18F     CTL3    -0.270000       12.0110           0
       522 MEMB     21       OSM      H18F     HAL3     0.900000E-01   1.00800           0
       523 MEMB     21       OSM      H18G     HAL3     0.900000E-01   1.00800           0
       524 MEMB     21       OSM      H18H     HAL3     0.900000E-01   1.00800           0
       525 MEMB     24       OSM      N        NTL     -0.600000       14.0070           0
       526 MEMB     24       OSM      C15      CTL5    -0.350000       12.0110           0
       527 MEMB     24       OSM      H15A     HL       0.250000       1.00800           0
       528 MEMB     24       OSM      H15B     HL       0.250000       1.00800           0
       529 MEMB     24       OSM      H15C     HL       0.250000       1.00800           0
       530 MEMB     24       OSM      C14      CTL5    -0.350000       12.0110           0
       531 MEMB     24       OSM      H14A     HL       0.250000       1.00800           0
       532 MEMB     24       OSM      H14B     HL       0.250000       1.00800           0
       533 MEMB     24       OSM      H14C     HL       0.250000       1.00800           0
       534 MEMB     24       OSM      C13      CTL5    -0.350000       12.0110           0
       535 MEMB     24       OSM      H13A     HL       0.250000       1.00800           0
       536 MEMB     24       OSM      H13B     HL       0.250000       1.00800           0
       537 MEMB     24       OSM      H13C     HL       0.250000       1.00800           0
       538 MEMB     24       OSM      C12      CTL2    -0.100000       12.0110           0
       539 MEMB     24       OSM      H12A     HL       0.250000       1.00800           0
       540 MEMB     24       OSM      H12B     HL       0.250000       1.00800           0
       541 MEMB     24       OSM      C11      CTL2    -0.800000E-01   12.0110           0
       542 MEMB     24       OSM      H11A     HAL2     0.900000E-01   1.00800           0
       543 MEMB     24       OSM      H11B     HAL2     0.900000E-01   1.00800           0
       544 MEMB     24       OSM      P        PL       1.500000       30.9740           0
       545 MEMB     24       OSM      O13      O2L     -0.780000       15.9994           0
       546 MEMB     24       OSM      O14      O2L     -0.780000       15.9994           0
       547 MEMB     24       OSM      O11      OSLP    -0.570000       15.9994           0
       548 MEMB     24       OSM      O12      OSLP    -0.570000       15.9994           0
       549 MEMB     24       OSM      C1S      CTL2    -0.800000E-01   12.0110           0
       550 MEMB     24       OSM      H1S      HAL2     0.900000E-01   1.00800           0
       551 MEMB     24       OSM      H1T      HAL2     0.900000E-01   1.00800           0
       552 MEMB     24       OSM      NF       NHL     -0.700000       14.0070           0
       553 MEMB     24       OSM      HNF      H        0.350000       1.00800           0
       554 MEMB     24       OSM      C2S      CTL1     0.300000       12.0110           0
       555 MEMB     24       OSM      H2S      HAL1     0.500000E-01   1.00800           0
       556 MEMB     24       OSM      C3S      CTO1     0.500000       12.0110           0
       557 MEMB     24       OSM      H3S      HAL1    -0.110000       1.00800           0
       558 MEMB     24       OSM      O3       OHL     -0.690000       15.9994           0
       559 MEMB     24       OSM      HO3      HOL      0.300000       1.00800           0
       560 MEMB     24       OSM      C4S      CEL3    -0.150000       12.0110           0
       561 MEMB     24       OSM      H4S      HEL1     0.150000       1.00800           0
       562 MEMB     24       OSM      C5S      CEL3    -0.150000       12.0110           0
       563 MEMB     24       OSM      H5S      HEL1     0.150000       1.00800           0
       564 MEMB     24       OSM      C6S      CTL2    -0.180000       12.0110           0
       565 MEMB     24       OSM      H6S      HAL2     0.900000E-01   1.00800           0
       566 MEMB     24       OSM      H6T      HAL2     0.900000E-01   1.00800           0
       567 MEMB     24       OSM      C7S      CTL2    -0.180000       12.0110           0
       568 MEMB     24       OSM      H7S      HAL2     0.900000E-01   1.00800           0
       569 MEMB     24       OSM      H7T      HAL2     0.900000E-01   1.00800           0
       570 MEMB     24       OSM      C8S      CTL2    -0.180000       12.0110           0
       571 MEMB     24       OSM      H8S      HAL2     0.900000E-01   1.00800           0
       572 MEMB     24       OSM      H8T      HAL2     0.900000E-01   1.00800           0
       573 MEMB     24       OSM      C9S      CTL2    -0.180000       12.0110           0
       574 MEMB     24       OSM      H9S      HAL2     0.900000E-01   1.00800           0
       575 MEMB     24       OSM      H9T      HAL2     0.900000E-01   1.00800           0
       576 MEMB     24       OSM      C10S     CTL2    -0.180000       12.0110           0
       577 MEMB     24       OSM      H10S     HAL2     0.900000E-01   1.00800           0
       578 MEMB     24       OSM      H10T     HAL2     0.900000E-01   1.00800           0
       579 MEMB     24       OSM      C11S     CTL2    -0.180000       12.0110           0
       580 MEMB     24       OSM      H11S     HAL2     0.900000E-01   1.00800           0
       581 MEMB     24       OSM      H11T     HAL2     0.900000E-01   1.00800           0
       582 MEMB     24       OSM      C12S     CTL2    -0.180000       12.0110           0
       583 MEMB     24       OSM      H12S     HAL2     0.900000E-01   1.00800           0
       584 MEMB     24       OSM      H12T     HAL2     0.900000E-01   1.00800           0
       585 MEMB     24       OSM      C13S     CTL2    -0.180000       12.0110           0
       586 MEMB     24       OSM      H13S     HAL2     0.900000E-01   1.00800           0
       587 MEMB     24       OSM      H13T     HAL2     0.900000E-01   1.00800           0
       588 MEMB     24       OSM      C14S     CTL2    -0.180000       12.0110           0
       589 MEMB     24       OSM      H14S     HAL2     0.900000E-01   1.00800           0
       590 MEMB     24       OSM      H14T     HAL2     0.900000E-01   1.00800           0
       591 MEMB     24       OSM      C15S     CTL2    -0.180000       12.0110           0
       592 MEMB     24       OSM      H15S     HAL2     0.900000E-01   1.00800           0
       593 MEMB     24       OSM      H15T     HAL2     0.900000E-01   1.00800           0
       594 MEMB     24       OSM      C16S     CTL2    -0.180000       12.0110           0
       595 MEMB     24       OSM      H16S     HAL2     0.900000E-01   1.00800           0
       596 MEMB     24       OSM      H16T     HAL2     0.900000E-01   1.00800           0
       597 MEMB     24       OSM      C17S     CTL2    -0.180000       12.0110           0
       598 MEMB     24       OSM      H17S     HAL2     0.900000E-01   1.00800           0
       599 MEMB     24       OSM      H17T     HAL2     0.900000E-01   1.00800           0
       600 MEMB     24       OSM      C18S     CTL3    -0.270000       12.0110           0
       601 MEMB     24       OSM      H18S     HAL3     0.900000E-01   1.00800           0
       602 MEMB     24       OSM      H18T     HAL3     0.900000E-01   1.00800           0
       603 MEMB     24       OSM      H18U     HAL3     0.900000E-01   1.00800           0
       604 MEMB     24       OSM      C1F      C        0.550000       12.0110           0
       605 MEMB     24       OSM      OF       O       -0.600000       15.9994           0
       606 MEMB     24       OSM      C2F      CTL2    -0.700000E-01   12.0110           0
       607 MEMB     24       OSM      H2F      HAL2     0.600000E-01   1.00800           0
       608 MEMB     24       OSM      H2G      HAL2     0.600000E-01   1.00800           0
       609 MEMB     24       OSM      C3F      CTL2    -0.180000       12.0110           0
       610 MEMB     24       OSM      H3F      HAL2     0.900000E-01   1.00800           0
       611 MEMB     24       OSM      H3G      HAL2     0.900000E-01   1.00800           0
       612 MEMB     24       OSM      C4F      CTL2    -0.180000       12.0110           0
       613 MEMB     24       OSM      H4F      HAL2     0.900000E-01   1.00800           0
       614 MEMB     24       OSM      H4G      HAL2     0.900000E-01   1.00800           0
       615 MEMB     24       OSM      C5F      CTL2    -0.180000       12.0110           0
       616 MEMB     24       OSM      H5F      HAL2     0.900000E-01   1.00800           0
       617 MEMB     24       OSM      H5G      HAL2     0.900000E-01   1.00800           0
       618 MEMB     24       OSM      C6F      CTL2    -0.180000       12.0110           0
       619 MEMB     24       OSM      H6F      HAL2     0.900000E-01   1.00800           0
       620 MEMB     24       OSM      H6G      HAL2     0.900000E-01   1.00800           0
       621 MEMB     24       OSM      C7F      CTL2    -0.180000       12.0110           0
       622 MEMB     24       OSM      H7F      HAL2     0.900000E-01   1.00800           0
       623 MEMB     24       OSM      H7G      HAL2     0.900000E-01   1.00800           0
       624 MEMB     24       OSM      C8F      CTL2    -0.180000       12.0110           0
       625 MEMB     24       OSM      H8F      HAL2     0.900000E-01   1.00800           0
       626 MEMB     24       OSM      H8G      HAL2     0.900000E-01   1.00800           0
       627 MEMB     24       OSM      C9F      CEL1    -0.150000       12.0110           0
       628 MEMB     24       OSM      H9F      HEL1     0.150000       1.00800           0
       629 MEMB     24       OSM      C10F     CEL1    -0.150000       12.0110           0
       630 MEMB     24       OSM      H10F     HEL1     0.150000       1.00800           0
       631 MEMB     24       OSM      C11F     CTL2    -0.180000       12.0110           0
       632 MEMB     24       OSM      H11F     HAL2     0.900000E-01   1.00800           0
       633 MEMB     24       OSM      H11G     HAL2     0.900000E-01   1.00800           0
       634 MEMB     24       OSM      C12F     CTL2    -0.180000       12.0110           0
       635 MEMB     24       OSM      H12F     HAL2     0.900000E-01   1.00800           0
       636 MEMB     24       OSM      H12G     HAL2     0.900000E-01   1.00800           0
       637 MEMB     24       OSM      C13F     CTL2    -0.180000       12.0110           0
       638 MEMB     24       OSM      H13F     HAL2     0.900000E-01   1.00800           0
       639 MEMB     24       OSM      H13G     HAL2     0.900000E-01   1.00800           0
       640 MEMB     24       OSM      C14F     CTL2    -0.180000       12.0110           0
       641 MEMB     24       OSM      H14F     HAL2     0.900000E-01   1.00800           0
       642 MEMB     24       OSM      H14G     HAL2     0.900000E-01   1.00800           0
       643 MEMB     24       OSM      C15F     CTL2    -0.180000       12.0110           0
       644 MEMB     24       OSM      H15F     HAL2     0.900000E-01   1.00800           0
       645 MEMB     24       OSM      H15G     HAL2     0.900000E-01   1.00800           0
       646 MEMB     24       OSM      C16F     CTL2    -0.180000       12.0110           0
       647 MEMB     24       OSM      H16F     HAL2     0.900000E-01   1.00800           0
       648 MEMB     24       OSM      H16G     HAL2     0.900000E-01   1.00800           0
       649 MEMB     24       OSM      C17F     CTL2    -0.180000       12.0110           0
       650 MEMB     24       OSM      H17F     HAL2     0.900000E-01   1.00800           0
       651 MEMB     24       OSM      H17G     HAL2     0.900000E-01   1.00800           0
       652 MEMB     24       OSM      C18F     CTL3    -0.270000       12.0110           0
       653 MEMB     24       OSM      H18F     HAL3     0.900000E-01   1.00800           0
       654 MEMB     24       OSM      H18G     HAL3     0.900000E-01   1.00800           0
       655 MEMB     24       OSM      H18H     HAL3     0.900000E-01   1.00800           0
       656 MEMB     27       OSM      N        NTL     -0.600000       14.0070           0
       657 MEMB     27       OSM      C15      CTL5    -0.350000       12.0110           0
       658 MEMB     27       OSM      H15A     HL       0.250000       1.00800           0
       659 MEMB     27       OSM      H15B     HL       0.250000       1.00800           0
       660 MEMB     27       OSM      H15C     HL       0.250000       1.00800           0
       661 MEMB     27       OSM      C14      CTL5    -0.350000       12.0110           0
       662 MEMB     27       OSM      H14A     HL       0.250000       1.00800           0
       663 MEMB     27       OSM      H14B     HL       0.250000       1.00800           0
       664 MEMB     27       OSM      H14C     HL       0.250000       1.00800           0
       665 MEMB     27       OSM      C13      CTL5    -0.350000       12.0110           0
       666 MEMB     27       OSM      H13A     HL       0.250000       1.00800           0
       667 MEMB     27       OSM      H13B     HL       0.250000       1.00800           0
       668 MEMB     27       OSM      H13C     HL       0.250000       1.00800           0
       669 MEMB     27       OSM      C12      CTL2    -0.100000       12.0110           0
       670 MEMB     27       OSM      H12A     HL       0.250000       1.00800           0
       671 MEMB     27       OSM      H12B     HL       0.250000       1.00800           0
       672 MEMB     27       OSM      C11      CTL2    -0.800000E-01   12.0110           0
       673 MEMB     27       OSM      H11A     HAL2     0.900000E-01   1.00800           0
       674 MEMB     27       OSM      H11B     HAL2     0.900000E-01   1.00800           0
       675 MEMB     27       OSM      P        PL       1.500000       30.9740           0
       676 MEMB     27       OSM      O13      O2L     -0.780000       15.9994           0
       677 MEMB     27       OSM      O14      O2L     -0.780000       15.9994           0
       678 MEMB     27       OSM      O11      OSLP    -0.570000       15.9994           0
       679 MEMB     27       OSM      O12      OSLP    -0.570000       15.9994           0
       680 MEMB     27       OSM      C1S      CTL2    -0.800000E-01   12.0110           0
       681 MEMB     27       OSM      H1S      HAL2     0.900000E-01   1.00800           0
       682 MEMB     27       OSM      H1T      HAL2     0.900000E-01   1.00800           0
       683 MEMB     27       OSM      NF       NHL     -0.700000       14.0070           0
       684 MEMB     27       OSM      HNF      H        0.350000       1.00800           0
       685 MEMB     27       OSM      C2S      CTL1     0.300000       12.0110           0
       686 MEMB     27       OSM      H2S      HAL1     0.500000E-01   1.00800           0
       687 MEMB     27       OSM      C3S      CTO1     0.500000       12.0110           0
       688 MEMB     27       OSM      H3S      HAL1    -0.110000       1.00800           0
       689 MEMB     27       OSM      O3       OHL     -0.690000       15.9994           0
       690 MEMB     27       OSM      HO3      HOL      0.300000       1.00800           0
       691 MEMB     27       OSM      C4S      CEL3    -0.150000       12.0110           0
       692 MEMB     27       OSM      H4S      HEL1     0.150000       1.00800           0
       693 MEMB     27       OSM      C5S      CEL3    -0.150000       12.0110           0
       694 MEMB     27       OSM      H5S      HEL1     0.150000       1.00800           0
       695 MEMB     27       OSM      C6S      CTL2    -0.180000       12.0110           0
       696 MEMB     27       OSM      H6S      HAL2     0.900000E-01   1.00800           0
       697 MEMB     27       OSM      H6T      HAL2     0.900000E-01   1.00800           0
       698 MEMB     27       OSM      C7S      CTL2    -0.180000       12.0110           0
       699 MEMB     27       OSM      H7S      HAL2     0.900000E-01   1.00800           0
       700 MEMB     27       OSM      H7T      HAL2     0.900000E-01   1.00800           0
       701 MEMB     27       OSM      C8S      CTL2    -0.180000       12.0110           0
       702 MEMB     27       OSM      H8S      HAL2     0.900000E-01   1.00800           0
       703 MEMB     27       OSM      H8T      HAL2     0.900000E-01   1.00800           0
       704 MEMB     27       OSM      C9S      CTL2    -0.180000       12.0110           0
       705 MEMB     27       OSM      H9S      HAL2     0.900000E-01   1.00800           0
       706 MEMB     27       OSM      H9T      HAL2     0.900000E-01   1.00800           0
       707 MEMB     27       OSM      C10S     CTL2    -0.180000       12.0110           0
       708 MEMB     27       OSM      H10S     HAL2     0.900000E-01   1.00800           0
       709 MEMB     27       OSM      H10T     HAL2     0.900000E-01   1.00800           0
       710 MEMB     27       OSM      C11S     CTL2    -0.180000       12.0110           0
       711 MEMB     27       OSM      H11S     HAL2     0.900000E-01   1.00800           0
       712 MEMB     27       OSM      H11T     HAL2     0.900000E-01   1.00800           0
       713 MEMB     27       OSM      C12S     CTL2    -0.180000       12.0110           0
       714 MEMB     27       OSM      H12S     HAL2     0.900000E-01   1.00800           0
       715 MEMB     27       OSM      H12T     HAL2     0.900000E-01   1.00800           0
       716 MEMB     27       OSM      C13S     CTL2    -0.180000       12.0110           0
       717 MEMB     27       OSM      H13S     HAL2     0.900000E-01   1.00800           0
       718 MEMB     27       OSM      H13T     HAL2     0.900000E-01   1.00800           0
       719 MEMB     27       OSM      C14S     CTL2    -0.180000       12.0110           0
       720 MEMB     27       OSM      H14S     HAL2     0.900000E-01   1.00800           0
       721 MEMB     27       OSM      H14T     HAL2     0.900000E-01   1.00800           0
       722 MEMB     27       OSM      C15S     CTL2    -0.180000       12.0110           0
       723 MEMB     27       OSM      H15S     HAL2     0.900000E-01   1.00800           0
       724 MEMB     27       OSM      H15T     HAL2     0.900000E-01   1.00800           0
       725 MEMB     27       OSM      C16S     CTL2    -0.180000       12.0110           0
       726 MEMB     27       OSM      H16S     HAL2     0.900000E-01   1.00800           0
       727 MEMB     27       OSM      H16T     HAL2     0.900000E-01   1.00800           0
       728 MEMB     27       OSM      C17S     CTL2    -0.180000       12.0110           0
       729 MEMB     27       OSM      H17S     HAL2     0.900000E-01   1.00800           0
       730 MEMB     27       OSM      H17T     HAL2     0.900000E-01   1.00800           0
       731 MEMB     27       OSM      C18S     CTL3    -0.270000       12.0110           0
       732 MEMB     27       OSM      H18S     HAL3     0.900000E-01   1.00800           0
       733 MEMB     27       OSM      H18T     HAL3     0.900000E-01   1.00800           0
       734 MEMB     27       OSM      H18U     HAL3     0.900000E-01   1.00800           0
       735 MEMB     27       OSM      C1F      C        0.550000       12.0110           0
       736 MEMB     27       OSM      OF       O       -0.600000       15.9994           0
       737 MEMB     27       OSM      C2F      CTL2    -0.700000E-01   12.0110           0
       738 MEMB     27       OSM      H2F      HAL2     0.600000E-01   1.00800           0
       739 MEMB     27       OSM      H2G      HAL2     0.600000E-01   1.00800           0
       740 MEMB     27       OSM      C3F      CTL2    -0.180000       12.0110           0
       741 MEMB     27       OSM      H3F      HAL2     0.900000E-01   1.00800           0
       742 MEMB     27       OSM      H3G      HAL2     0.900000E-01   1.00800           0
       743 MEMB     27       OSM      C4F      CTL2    -0.180000       12.0110           0
       744 MEMB     27       OSM      H4F      HAL2     0.900000E-01   1.00800           0
       745 MEMB     27       OSM      H4G      HAL2     0.900000E-01   1.00800           0
       746 MEMB     27       OSM      C5F      CTL2    -0.180000       12.0110           0
       747 MEMB     27       OSM      H5F      HAL2     0.900000E-01   1.00800           0
       748 MEMB     27       OSM      H5G      HAL2     0.900000E-01   1.00800           0
       749 MEMB     27       OSM      C6F      CTL2    -0.180000       12.0110           0
       750 MEMB     27       OSM      H6F      HAL2     0.900000E-01   1.00800           0
       751 MEMB     27       OSM      H6G      HAL2     0.900000E-01   1.00800           0
       752 MEMB     27       OSM      C7F      CTL2    -0.180000       12.0110           0
       753 MEMB     27       OSM      H7F      HAL2     0.900000E-01   1.00800           0
       754 MEMB     27       OSM      H7G      HAL2     0.900000E-01   1.00800           0
       755 MEMB     27       OSM      C8F      CTL2    -0.180000       12.0110           0
       756 MEMB     27       OSM      H8F      HAL2     0.900000E-01   1.00800           0
       757 MEMB     27       OSM      H8G      HAL2     0.900000E-01   1.00800           0
       758 MEMB     27       OSM      C9F      CEL1    -0.150000       12.0110           0
       759 MEMB     27       OSM      H9F      HEL1     0.150000       1.00800           0
       760 MEMB     27       OSM      C10F     CEL1    -0.150000       12.0110           0
       761 MEMB     27       OSM      H10F     HEL1     0.150000       1.00800           0
       762 MEMB     27       OSM      C11F     CTL2    -0.180000       12.0110           0
       763 MEMB     27       OSM      H11F     HAL2     0.900000E-01   1.00800           0
       764 MEMB     27       OSM      H11G     HAL2     0.900000E-01   1.00800           0
       765 MEMB     27       OSM      C12F     CTL2    -0.180000       12.0110           0
       766 MEMB     27       OSM      H12F     HAL2     0.900000E-01   1.00800           0
       767 MEMB     27       OSM      H12G     HAL2     0.900000E-01   1.00800           0
       768 MEMB     27       OSM      C13F     CTL2    -0.180000       12.0110           0
       769 MEMB     27       OSM      H13F     HAL2     0.900000E-01   1.00800           0
       770 MEMB     27       OSM      H13G     HAL2     0.900000E-01   1.00800           0
       771 MEMB     27       OSM      C14F     CTL2    -0.180000       12.0110           0
       772 MEMB     27       OSM      H14F     HAL2     0.900000E-01   1.00800           0
       773 MEMB     27       OSM      H14G     HAL2     0.900000E-01   1.00800           0
       774 MEMB     27       OSM      C15F     CTL2    -0.180000       12.0110           0
       775 MEMB     27       OSM      H15F     HAL2     0.900000E-01   1.00800           0
       776 MEMB     27       OSM      H15G     HAL2     0.900000E-01   1.00800           0
       777 MEMB     27       OSM      C16F     CTL2    -0.180000       12.0110           0
       778 MEMB     27       OSM      H16F     HAL2     0.900000E-01   1.00800           0
       779 MEMB     27       OSM      H16G     HAL2     0.900000E-01   1.00800           0
       780 MEMB     27       OSM      C17F     CTL2    -0.180000       12.0110           0
       781 MEMB     27       OSM      H17F     HAL2     0.900000E-01   1.00800           0
       782 MEMB     27       OSM      H17G     HAL2     0.900000E-01   1.00800           0
       783 MEMB     27       OSM      C18F     CTL3    -0.270000       12.0110           0
       784 MEMB     27       OSM      H18F     HAL3     0.900000E-01   1.00800           0
       785 MEMB     27       OSM      H18G     HAL3     0.900000E-01   1.00800           0
       786 MEMB     27       OSM      H18H     HAL3     0.900000E-01   1.00800           0
       787 MEMB     28       OSM      N        NTL     -0.600000       14.0070           0
       788 MEMB     28       OSM      C15      CTL5    -0.350000       12.0110           0
       789 MEMB     28       OSM      H15A     HL       0.250000       1.00800           0
       790 MEMB     28       OSM      H15B     HL       0.250000       1.00800           0
       791 MEMB     28       OSM      H15C     HL       0.250000       1.00800           0
       792 MEMB     28       OSM      C14      CTL5    -0.350000       12.0110           0
       793 MEMB     28       OSM      H14A     HL       0.250000       1.00800           0
       794 MEMB     28       OSM      H14B     HL       0.250000       1.00800           0
       795 MEMB     28       OSM      H14C     HL       0.250000       1.00800           0
       796 MEMB     28       OSM      C13      CTL5    -0.350000       12.0110           0
       797 MEMB     28       OSM      H13A     HL       0.250000       1.00800           0
       798 MEMB     28       OSM      H13B     HL       0.250000       1.00800           0
       799 MEMB     28       OSM      H13C     HL       0.250000       1.00800           0
       800 MEMB     28       OSM      C12      CTL2    -0.100000       12.0110           0
       801 MEMB     28       OSM      H12A     HL       0.250000       1.00800           0
       802 MEMB     28       OSM      H12B     HL       0.250000       1.00800           0
       803 MEMB     28       OSM      C11      CTL2    -0.800000E-01   12.0110           0
       804 MEMB     28       OSM      H11A     HAL2     0.900000E-01   1.00800           0
       805 MEMB     28       OSM      H11B     HAL2     0.900000E-01   1.00800           0
       806 MEMB     28       OSM      P        PL       1.500000       30.9740           0
       807 MEMB     28       OSM      O13      O2L     -0.780000       15.9994           0
       808 MEMB     28       OSM      O14      O2L     -0.780000       15.9994           0
       809 MEMB     28       OSM      O11      OSLP    -0.570000       15.9994           0
       810 MEMB     28       OSM      O12      OSLP    -0.570000       15.9994           0
       811 MEMB     28       OSM      C1S      CTL2    -0.800000E-01   12.0110           0
       812 MEMB     28       OSM      H1S      HAL2     0.900000E-01   1.00800           0
       813 MEMB     28       OSM      H1T      HAL2     0.900000E-01   1.00800           0
       814 MEMB     28       OSM      NF       NHL     -0.700000       14.0070           0
       815 MEMB     28       OSM      HNF      H        0.350000       1.00800           0
       816 MEMB     28       OSM      C2S      CTL1     0.300000       12.0110           0
       817 MEMB     28       OSM      H2S      HAL1     0.500000E-01   1.00800           0
       818 MEMB     28       OSM      C3S      CTO1     0.500000       12.0110           0
       819 MEMB     28       OSM      H3S      HAL1    -0.110000       1.00800           0
       820 MEMB     28       OSM      O3       OHL     -0.690000       15.9994           0
       821 MEMB     28       OSM      HO3      HOL      0.300000       1.00800           0
       822 MEMB     28       OSM      C4S      CEL3    -0.150000       12.0110           0
       823 MEMB     28       OSM      H4S      HEL1     0.150000       1.00800           0
       824 MEMB     28       OSM      C5S      CEL3    -0.150000       12.0110           0
       825 MEMB     28       OSM      H5S      HEL1     0.150000       1.00800           0
       826 MEMB     28       OSM      C6S      CTL2    -0.180000       12.0110           0
       827 MEMB     28       OSM      H6S      HAL2     0.900000E-01   1.00800           0
       828 MEMB     28       OSM      H6T      HAL2     0.900000E-01   1.00800           0
       829 MEMB     28       OSM      C7S      CTL2    -0.180000       12.0110           0
       830 MEMB     28       OSM      H7S      HAL2     0.900000E-01   1.00800           0
       831 MEMB     28       OSM      H7T      HAL2     0.900000E-01   1.00800           0
       832 MEMB     28       OSM      C8S      CTL2    -0.180000       12.0110           0
       833 MEMB     28       OSM      H8S      HAL2     0.900000E-01   1.00800           0
       834 MEMB     28       OSM      H8T      HAL2     0.900000E-01   1.00800           0
       835 MEMB     28       OSM      C9S      CTL2    -0.180000       12.0110           0
       836 MEMB     28       OSM      H9S      HAL2     0.900000E-01   1.00800           0
       837 MEMB     28       OSM      H9T      HAL2     0.900000E-01   1.00800           0
       838 MEMB     28       OSM      C10S     CTL2    -0.180000       12.0110           0
       839 MEMB     28       OSM      H10S     HAL2     0.900000E-01   1.00800           0
       840 MEMB     28       OSM      H10T     HAL2     0.900000E-01   1.00800           0
       841 MEMB     28       OSM      C11S     CTL2    -0.180000       12.0110           0
       842 MEMB     28       OSM      H11S     HAL2     0.900000E-01   1.00800           0
       843 MEMB     28       OSM      H11T     HAL2     0.900000E-01   1.00800           0
       844 MEMB     28       OSM      C12S     CTL2    -0.180000       12.0110           0
       845 MEMB     28       OSM      H12S     HAL2     0.900000E-01   1.00800           0
       846 MEMB     28       OSM      H12T     HAL2     0.900000E-01   1.00800           0
       847 MEMB     28       OSM      C13S     CTL2    -0.180000       12.0110           0
       848 MEMB     28       OSM      H13S     HAL2     0.900000E-01   1.00800           0
       849 MEMB     28       OSM      H13T     HAL2     0.900000E-01   1.00800           0
       850 MEMB     28       OSM      C14S     CTL2    -0.180000       12.0110           0
       851 MEMB     28       OSM      H14S     HAL2     0.900000E-01   1.00800           0
       852 MEMB     28       OSM      H14T     HAL2     0.900000E-01   1.00800           0
       853 MEMB     28       OSM      C15S     CTL2    -0.180000       12.0110           0
       854 MEMB     28       OSM      H15S     HAL2     0.900000E-01   1.00800           0
       855 MEMB     28       OSM      H15T     HAL2     0.900000E-01   1.00800           0
       856 MEMB     28       OSM      C16S     CTL2    -0.180000       12.0110           0
       857 MEMB     28       OSM      H16S     HAL2     0.900000E-01   1.00800           0
       858 MEMB     28       OSM      H16T     HAL2     0.900000E-01   1.00800           0
       859 MEMB     28       OSM      C17S     CTL2    -0.180000       12.0110           0
       860 MEMB     28       OSM      H17S     HAL2     0.900000E-01   1.00800           0
       861 MEMB     28       OSM      H17T     HAL2     0.900000E-01   1.00800           0
       862 MEMB     28       OSM      C18S     CTL3    -0.270000       12.0110           0
       863 MEMB     28       OSM      H18S     HAL3     0.900000E-01   1.00800           0
       864 MEMB     28       OSM      H18T     HAL3     0.900000E-01   1.00800           0
       865 MEMB     28       OSM      H18U     HAL3     0.900000E-01   1.00800           0
       866 MEMB     28       OSM      C1F      C        0.550000       12.0110           0
       867 MEMB     28       OSM      OF       O       -0.600000       15.9994           0
       868 MEMB     28       OSM      C2F      CTL2    -0.700000E-01   12.0110           0
       869 MEMB     28       OSM      H2F      HAL2     0.600000E-01   1.00800           0
       870 MEMB     28       OSM      H2G      HAL2     0.600000E-01   1.00800           0
       871 MEMB     28       OSM      C3F      CTL2    -0.180000       12.0110           0
       872 MEMB     28       OSM      H3F      HAL2     0.900000E-01   1.00800           0
       873 MEMB     28       OSM      H3G      HAL2     0.900000E-01   1.00800           0
       874 MEMB     28       OSM      C4F      CTL2    -0.180000       12.0110           0
       875 MEMB     28       OSM      H4F      HAL2     0.900000E-01   1.00800           0
       876 MEMB     28       OSM      H4G      HAL2     0.900000E-01   1.00800           0
       877 MEMB     28       OSM      C5F      CTL2    -0.180000       12.0110           0
       878 MEMB     28       OSM      H5F      HAL2     0.900000E-01   1.00800           0
       879 MEMB     28       OSM      H5G      HAL2     0.900000E-01   1.00800           0
       880 MEMB     28       OSM      C6F      CTL2    -0.180000       12.0110           0
       881 MEMB     28       OSM      H6F      HAL2     0.900000E-01   1.00800           0
       882 MEMB     28       OSM      H6G      HAL2     0.900000E-01   1.00800           0
       883 MEMB     28       OSM      C7F      CTL2    -0.180000       12.0110           0
       884 MEMB     28       OSM      H7F      HAL2     0.900000E-01   1.00800           0
       885 MEMB     28       OSM      H7G      HAL2     0.900000E-01   1.00800           0
       886 MEMB     28       OSM      C8F      CTL2    -0.180000       12.0110           0
       887 MEMB     28       OSM      H8F      HAL2     0.900000E-01   1.00800           0
       888 MEMB     28       OSM      H8G      HAL2     0.900000E-01   1.00800           0
       889 MEMB     28       OSM      C9F      CEL1    -0.150000       12.0110           0
       890 MEMB     28       OSM      H9F      HEL1     0.150000       1.00800           0
       891 MEMB     28       OSM      C10F     CEL1    -0.150000       12.0110           0
       892 MEMB     28       OSM      H10F     HEL1     0.150000       1.00800           0
       893 MEMB     28       OSM      C11F     CTL2    -0.180000       12.0110           0
       894 MEMB     28       OSM      H11F     HAL2     0.900000E-01   1.00800           0
       895 MEMB     28       OSM      H11G     HAL2     0.900000E-01   1.00800           0
       896 MEMB     28       OSM      C12F     CTL2    -0.180000       12.0110           0
       897 MEMB     28       OSM      H12F     HAL2     0.900000E-01   1.00800           0
       898 MEMB     28       OSM      H12G     HAL2     0.900000E-01   1.00800           0
       899 MEMB     28       OSM      C13F     CTL2    -0.180000       12.0110           0
       900 MEMB     28       OSM      H13F     HAL2     0.900000E-01   1.00800           0
       901 MEMB     28       OSM      H13G     HAL2     0.900000E-01   1.00800           0
       902 MEMB     28       OSM      C14F     CTL2    -0.180000       12.0110           0
       903 MEMB     28       OSM      H14F     HAL2     0.900000E-01   1.00800           0
       904 MEMB     28       OSM      H14G     HAL2     0.900000E-01   1.00800           0
       905 MEMB     28       OSM      C15F     CTL2    -0.180000       12.0110           0
       906 MEMB     28       OSM      H15F     HAL2     0.900000E-01   1.00800           0
       907 MEMB     28       OSM      H15G     HAL2     0.900000E-01   1.00800           0
       908 MEMB     28       OSM      C16F     CTL2    -0.180000       12.0110           0
       909 MEMB     28       OSM      H16F     HAL2     0.900000E-01   1.00800           0
       910 MEMB     28       OSM      H16G     HAL2     0.900000E-01   1.00800           0
       911 MEMB     28       OSM      C17F     CTL2    -0.180000       12.0110           0
       912 MEMB     28       OSM      H17F     HAL2     0.900000E-01   1.00800           0
       913 MEMB     28       OSM      H17G     HAL2     0.900000E-01   1.00800           0
       914 MEMB     28       OSM      C18F     CTL3    -0.270000       12.0110           0
       915 MEMB     28       OSM      H18F     HAL3     0.900000E-01   1.00800           0
       916 MEMB     28       OSM      H18G     HAL3     0.900000E-01   1.00800           0
       917 MEMB     28       OSM      H18H     HAL3     0.900000E-01   1.00800           0
       918 MEMB     29       OSM      N        NTL     -0.600000       14.0070           0
       919 MEMB     29       OSM      C15      CTL5    -0.350000       12.0110           0
       920 MEMB     29       OSM      H15A     HL       0.250000       1.00800           0
       921 MEMB     29       OSM      H15B     HL       0.250000       1.00800           0
       922 MEMB     29       OSM      H15C     HL       0.250000       1.00800           0
       923 MEMB     29       OSM      C14      CTL5    -0.350000       12.0110           0
       924 MEMB     29       OSM      H14A     HL       0.250000       1.00800           0
       925 MEMB     29       OSM      H14B     HL       0.250000       1.00800           0
       926 MEMB     29       OSM      H14C     HL       0.250000       1.00800           0
       927 MEMB     29       OSM      C13      CTL5    -0.350000       12.0110           0
       928 MEMB     29       OSM      H13A     HL       0.250000       1.00800           0
       929 MEMB     29       OSM      H13B     HL       0.250000       1.00800           0
       930 MEMB     29       OSM      H13C     HL       0.250000       1.00800           0
       931 MEMB     29       OSM      C12      CTL2    -0.100000       12.0110           0
       932 MEMB     29       OSM      H12A     HL       0.250000       1.00800           0
       933 MEMB     29       OSM      H12B     HL       0.250000       1.00800           0
       934 MEMB     29       OSM      C11      CTL2    -0.800000E-01   12.0110           0
       935 MEMB     29       OSM      H11A     HAL2     0.900000E-01   1.00800           0
       936 MEMB     29       OSM      H11B     HAL2     0.900000E-01   1.00800           0
       937 MEMB     29       OSM      P        PL       1.500000       30.9740           0
       938 MEMB     29       OSM      O13      O2L     -0.780000       15.9994           0
       939 MEMB     29       OSM      O14      O2L     -0.780000       15.9994           0
       940 MEMB     29       OSM      O11      OSLP    -0.570000       15.9994           0
       941 MEMB     29       OSM      O12      OSLP    -0.570000       15.9994           0
       942 MEMB     29       OSM      C1S      CTL2    -0.800000E-01   12.0110           0
       943 MEMB     29       OSM      H1S      HAL2     0.900000E-01   1.00800           0
       944 MEMB     29       OSM      H1T      HAL2     0.900000E-01   1.00800           0
       945 MEMB     29       OSM      NF       NHL     -0.700000       14.0070           0
       946 MEMB     29       OSM      HNF      H        0.350000       1.00800           0
       947 MEMB     29       OSM      C2S      CTL1     0.300000       12.0110           0
       948 MEMB     29       OSM      H2S      HAL1     0.500000E-01   1.00800           0
       949 MEMB     29       OSM      C3S      CTO1     0.500000       12.0110           0
       950 MEMB     29       OSM      H3S      HAL1    -0.110000       1.00800           0
       951 MEMB     29       OSM      O3       OHL     -0.690000       15.9994           0
       952 MEMB     29       OSM      HO3      HOL      0.300000       1.00800           0
       953 MEMB     29       OSM      C4S      CEL3    -0.150000       12.0110           0
       954 MEMB     29       OSM      H4S      HEL1     0.150000       1.00800           0
       955 MEMB     29       OSM      C5S      CEL3    -0.150000       12.0110           0
       956 MEMB     29       OSM      H5S      HEL1     0.150000       1.00800           0
       957 MEMB     29       OSM      C6S      CTL2    -0.180000       12.0110           0
       958 MEMB     29       OSM      H6S      HAL2     0.900000E-01   1.00800           0
       959 MEMB     29       OSM      H6T      HAL2     0.900000E-01   1.00800           0
       960 MEMB     29       OSM      C7S      CTL2    -0.180000       12.0110           0
       961 MEMB     29       OSM      H7S      HAL2     0.900000E-01   1.00800           0
       962 MEMB     29       OSM      H7T      HAL2     0.900000E-01   1.00800           0
       963 MEMB     29       OSM      C8S      CTL2    -0.180000       12.0110           0
       964 MEMB     29       OSM      H8S      HAL2     0.900000E-01   1.00800           0
       965 MEMB     29       OSM      H8T      HAL2     0.900000E-01   1.00800           0
       966 MEMB     29       OSM      C9S      CTL2    -0.180000       12.0110           0
       967 MEMB     29       OSM      H9S      HAL2     0.900000E-01   1.00800           0
       968 MEMB     29       OSM      H9T      HAL2     0.900000E-01   1.00800           0
       969 MEMB     29       OSM      C10S     CTL2    -0.180000       12.0110           0
       970 MEMB     29       OSM      H10S     HAL2     0.900000E-01   1.00800           0
       971 MEMB     29       OSM      H10T     HAL2     0.900000E-01   1.00800           0
       972 MEMB     29       OSM      C11S     CTL2    -0.180000       12.0110           0
       973 MEMB     29       OSM      H11S     HAL2     0.900000E-01   1.00800           0
       974 MEMB     29       OSM      H11T     HAL2     0.900000E-01   1.00800           0
       975 MEMB     29       OSM      C12S     CTL2    -0.180000       12.0110           0
       976 MEMB     29       OSM      H12S     HAL2     0.900000E-01   1.00800           0
       977 MEMB     29       OSM      H12T     HAL2     0.900000E-01   1.00800           0
       978 MEMB     29       OSM      C13S     CTL2    -0.180000       12.0110           0
       979 MEMB     29       OSM      H13S     HAL2     0.900000E-01   1.00800           0
       980 MEMB     29       OSM      H13T     HAL2     0.900000E-01   1.00800           0
       981 MEMB     29       OSM      C14S     CTL2    -0.180000       12.0110           0
       982 MEMB     29       OSM      H14S     HAL2     0.900000E-01   1.00800           0
       983 MEMB     29       OSM      H14T     HAL2     0.900000E-01   1.00800           0
       984 MEMB     29       OSM      C15S     CTL2    -0.180000       12.0110           0
       985 MEMB     29       OSM      H15S     HAL2     0.900000E-01   1.00800           0
       986 MEMB     29       OSM      H15T     HAL2     0.900000E-01   1.00800           0
       987 MEMB     29       OSM      C16S     CTL2    -0.180000       12.0110           0
       988 MEMB     29       OSM      H16S     HAL2     0.900000E-01   1.00800           0
       989 MEMB     29       OSM      H16T     HAL2     0.900000E-01   1.00800           0
       990 MEMB     29       OSM      C17S     CTL2    -0.180000       12.0110           0
       991 MEMB     29       OSM      H17S     HAL2     0.900000E-01   1.00800           0
       992 MEMB     29       OSM      H17T     HAL2     0.900000E-01   1.00800           0
       993 MEMB     29       OSM      C18S     CTL3    -0.270000       12.0110           0
       994 MEMB     29       OSM      H18S     HAL3     0.900000E-01   1.00800           0
       995 MEMB     29       OSM      H18T     HAL3     0.900000E-01   1.00800           0
       996 MEMB     29       OSM      H18U     HAL3     0.900000E-01   1.00800           0
       997 MEMB     29       OSM      C1F      C        0.550000       12.0110           0
       998 MEMB     29       OSM      OF       O       -0.600000       15.9994           0
       999 MEMB     29       OSM      C2F      CTL2    -0.700000E-01   12.0110           0
      1000 MEMB     29       OSM      H2F      HAL2     0.600000E-01   1.00800           0
      1001 MEMB     29       OSM      H2G      HAL2     0.600000E-01   1.00800           0
      1002 MEMB     29       OSM      C3F      CTL2    -0.180000       12.0110           0
      1003 MEMB     29       OSM      H3F      HAL2     0.900000E-01   1.00800           0
      1004 MEMB     29       OSM      H3G      HAL2     0.900000E-01   1.00800           0
      1005 MEMB     29       OSM      C4F      CTL2    -0.180000       12.0110           0
      1006 MEMB     29       OSM      H4F      HAL2     0.900000E-01   1.00800           0
      1007 MEMB     29       OSM      H4G      HAL2     0.900000E-01   1.00800           0
      1008 MEMB     29       OSM      C5F      CTL2    -0.180000       12.0110           0
      1009 MEMB     29       OSM      H5F      HAL2     0.900000E-01   1.00800           0
      1010 MEMB     29       OSM      H5G      HAL2     0.900000E-01   1.00800           0
      1011 MEMB     29       OSM      C6F      CTL2    -0.180000       12.0110           0
      1012 MEMB     29       OSM      H6F      HAL2     0.900000E-01   1.00800           0
      1013 MEMB     29       OSM      H6G      HAL2     0.900000E-01   1.00800           0
      1014 MEMB     29       OSM      C7F      CTL2    -0.180000       12.0110           0
      1015 MEMB     29       OSM      H7F      HAL2     0.900000E-01   1.00800           0
      1016 MEMB     29       OSM      H7G      HAL2     0.900000E-01   1.00800           0
      1017 MEMB     29       OSM      C8F      CTL2    -0.180000       12.0110           0
      1018 MEMB     29       OSM      H8F      HAL2     0.900000E-01   1.00800           0
      1019 MEMB     29       OSM      H8G      HAL2     0.900000E-01   1.00800           0
      1020 MEMB     29       OSM      C9F      CEL1    -0.150000       12.0110           0
      1021 MEMB     29       OSM      H9F      HEL1     0.150000       1.00800           0
      1022 MEMB     29       OSM      C10F     CEL1    -0.150000       12.0110           0
      1023 MEMB     29       OSM      H10F     HEL1     0.150000       1.00800           0
      1024 MEMB     29       OSM      C11F     CTL2    -0.180000       12.0110           0
      1025 MEMB     29       OSM      H11F     HAL2     0.900000E-01   1.00800           0
      1026 MEMB     29       OSM      H11G     HAL2     0.900000E-01   1.00800           0
      1027 MEMB     29       OSM      C12F     CTL2    -0.180000       12.0110           0
      1028 MEMB     29       OSM      H12F     HAL2     0.900000E-01   1.00800           0
      1029 MEMB     29       OSM      H12G     HAL2     0.900000E-01   1.00800           0
      1030 MEMB     29       OSM      C13F     CTL2    -0.180000       12.0110           0
      1031 MEMB     29       OSM      H13F     HAL2     0.900000E-01   1.00800           0
      1032 MEMB     29       OSM      H13G     HAL2     0.900000E-01   1.00800           0
      1033 MEMB     29       OSM      C14F     CTL2    -0.180000       12.0110           0
      1034 MEMB     29       OSM      H14F     HAL2     0.900000E-01   1.00800           0
      1035 MEMB     29       OSM      H14G     HAL2     0.900000E-01   1.00800           0
      1036 MEMB     29       OSM      C15F     CTL2    -0.180000       12.0110           0
      1037 MEMB     29       OSM      H15F     HAL2     0.900000E-01   1.00800           0
      1038 MEMB     29       OSM      H15G     HAL2     0.900000E-01   1.00800           0
      1039 MEMB     29       OSM      C16F     CTL2    -0.180000       12.0110           0
      1040 MEMB     29       OSM      H16F     HAL2     0.900000E-01   1.00800           0
      1041 MEMB     29       OSM      H16G     HAL2     0.900000E-01   1.00800           0
      1042 MEMB     29       OSM      C17F     CTL2    -0.180000       12.0110           0
      1043 MEMB     29       OSM      H17F     HAL2     0.900000E-01   1.00800           0
      1044 MEMB     29       OSM      H17G     HAL2     0.900000E-01   1.00800           0
      1045 MEMB     29       OSM      C18F     CTL3    -0.270000       12.0110           0
      1046 MEMB     29       OSM      H18F     HAL3     0.900000E-01   1.00800           0
      1047 MEMB     29       OSM      H18G     HAL3     0.900000E-01   1.00800           0
      1048 MEMB     29       OSM      H18H     HAL3     0.900000E-01   1.00800           0
      1049 MEMB     31       OSM      N        NTL     -0.600000       14.0070           0
      1050 MEMB     31       OSM      C15      CTL5    -0.350000       12.0110           0
      1051 MEMB     31       OSM      H15A     HL       0.250000       1.00800           0
      1052 MEMB     31       OSM      H15B     HL       0.250000       1.00800           0
      1053 MEMB     31       OSM      H15C     HL       0.250000       1.00800           0
      1054 MEMB     31       OSM      C14      CTL5    -0.350000       12.0110           0
      1055 MEMB     31       OSM      H14A     HL       0.250000       1.00800           0
      1056 MEMB     31       OSM      H14B     HL       0.250000       1.00800           0
      1057 MEMB     31       OSM      H14C     HL       0.250000       1.00800           0
      1058 MEMB     31       OSM      C13      CTL5    -0.350000       12.0110           0
      1059 MEMB     31       OSM      H13A     HL       0.250000       1.00800           0
      1060 MEMB     31       OSM      H13B     HL       0.250000       1.00800           0
      1061 MEMB     31       OSM      H13C     HL       0.250000       1.00800           0
      1062 MEMB     31       OSM      C12      CTL2    -0.100000       12.0110           0
      1063 MEMB     31       OSM      H12A     HL       0.250000       1.00800           0
      1064 MEMB     31       OSM      H12B     HL       0.250000       1.00800           0
      1065 MEMB     31       OSM      C11      CTL2    -0.800000E-01   12.0110           0
      1066 MEMB     31       OSM      H11A     HAL2     0.900000E-01   1.00800           0
      1067 MEMB     31       OSM      H11B     HAL2     0.900000E-01   1.00800           0
      1068 MEMB     31       OSM      P        PL       1.500000       30.9740           0
      1069 MEMB     31       OSM      O13      O2L     -0.780000       15.9994           0
      1070 MEMB     31       OSM      O14      O2L     -0.780000       15.9994           0
      1071 MEMB     31       OSM      O11      OSLP    -0.570000       15.9994           0
      1072 MEMB     31       OSM      O12      OSLP    -0.570000       15.9994           0
      1073 MEMB     31       OSM      C1S      CTL2    -0.800000E-01   12.0110           0
      1074 MEMB     31       OSM      H1S      HAL2     0.900000E-01   1.00800           0
      1075 MEMB     31       OSM      H1T      HAL2     0.900000E-01   1.00800           0
      1076 MEMB     31       OSM      NF       NHL     -0.700000       14.0070           0
      1077 MEMB     31       OSM      HNF      H        0.350000       1.00800           0
      1078 MEMB     31       OSM      C2S      CTL1     0.300000       12.0110           0
      1079 MEMB     31       OSM      H2S      HAL1     0.500000E-01   1.00800           0
      1080 MEMB     31       OSM      C3S      CTO1     0.500000       12.0110           0
      1081 MEMB     31       OSM      H3S      HAL1    -0.110000       1.00800           0
      1082 MEMB     31       OSM      O3       OHL     -0.690000       15.9994           0
      1083 MEMB     31       OSM      HO3      HOL      0.300000       1.00800           0
      1084 MEMB     31       OSM      C4S      CEL3    -0.150000       12.0110           0
      1085 MEMB     31       OSM      H4S      HEL1     0.150000       1.00800           0
      1086 MEMB     31       OSM      C5S      CEL3    -0.150000       12.0110           0
      1087 MEMB     31       OSM      H5S      HEL1     0.150000       1.00800           0
      1088 MEMB     31       OSM      C6S      CTL2    -0.180000       12.0110           0
      1089 MEMB     31       OSM      H6S      HAL2     0.900000E-01   1.00800           0
      1090 MEMB     31       OSM      H6T      HAL2     0.900000E-01   1.00800           0
      1091 MEMB     31       OSM      C7S      CTL2    -0.180000       12.0110           0
      1092 MEMB     31       OSM      H7S      HAL2     0.900000E-01   1.00800           0
      1093 MEMB     31       OSM      H7T      HAL2     0.900000E-01   1.00800           0
      1094 MEMB     31       OSM      C8S      CTL2    -0.180000       12.0110           0
      1095 MEMB     31       OSM      H8S      HAL2     0.900000E-01   1.00800           0
      1096 MEMB     31       OSM      H8T      HAL2     0.900000E-01   1.00800           0
      1097 MEMB     31       OSM      C9S      CTL2    -0.180000       12.0110           0
      1098 MEMB     31       OSM      H9S      HAL2     0.900000E-01   1.00800           0
      1099 MEMB     31       OSM      H9T      HAL2     0.900000E-01   1.00800           0
      1100 MEMB     31       OSM      C10S     CTL2    -0.180000       12.0110           0
      1101 MEMB     31       OSM      H10S     HAL2     0.900000E-01   1.00800           0
      1102 MEMB     31       OSM      H10T     HAL2     0.900000E-01   1.00800           0
      1103 MEMB     31       OSM      C11S     CTL2    -0.180000       12.0110           0
      1104 MEMB     31       OSM      H11S     HAL2     0.900000E-01   1.00800           0
      1105 MEMB     31       OSM      H11T     HAL2     0.900000E-01   1.00800           0
      1106 MEMB     31       OSM      C12S     CTL2    -0.180000       12.0110           0
      1107 MEMB     31       OSM      H12S     HAL2     0.900000E-01   1.00800           0
      1108 MEMB     31       OSM      H12T     HAL2     0.900000E-01   1.00800           0
      1109 MEMB     31       OSM      C13S     CTL2    -0.180000       12.0110           0
      1110 MEMB     31       OSM      H13S     HAL2     0.900000E-01   1.00800           0
      1111 MEMB     31       OSM      H13T     HAL2     0.900000E-01   1.00800           0
      1112 MEMB     31       OSM      C14S     CTL2    -0.180000       12.0110           0
      1113 MEMB     31       OSM      H14S     HAL2     0.900000E-01   1.00800           0
      1114 MEMB     31       OSM      H14T     HAL2     0.900000E-01   1.00800           0
      1115 MEMB     31       OSM      C15S     CTL2    -0.180000       12.0110           0
      1116 MEMB     31       OSM      H15S     HAL2     0.900000E-01   1.00800           0
      1117 MEMB     31       OSM      H15T     HAL2     0.900000E-01   1.00800           0
      1118 MEMB     31       OSM      C16S     CTL2    -0.180000       12.0110           0
      1119 MEMB     31       OSM      H16S     HAL2     0.900000E-01   1.00800           0
      1120 MEMB     31       OSM      H16T     HAL2     0.900000E-01   1.00800           0
      1121 MEMB     31       OSM      C17S     CTL2    -0.180000       12.0110           0
      1122 MEMB     31       OSM      H17S     HAL2     0.900000E-01   1.00800           0
      1123 MEMB     31       OSM      H17T     HAL2     0.900000E-01   1.00800           0
      1124 MEMB     31       OSM      C18S     CTL3    -0.270000       12.0110           0
      1125 MEMB     31       OSM      H18S     HAL3     0.900000E-01   1.00800           0
      1126 MEMB     31       OSM      H18T     HAL3     0.900000E-01   1.00800           0
      1127 MEMB     31       OSM      H18U     HAL3     0.900000E-01   1.00800           0
      1128 MEMB     31       OSM      C1F      C        0.550000       12.0110           0
      1129 MEMB     31       OSM      OF       O       -0.600000       15.9994           0
      1130 MEMB     31       OSM      C2F      CTL2    -0.700000E-01   12.0110           0
      1131 MEMB     31       OSM      H2F      HAL2     0.600000E-01   1.00800           0
      1132 MEMB     31       OSM      H2G      HAL2     0.600000E-01   1.00800           0
      1133 MEMB     31       OSM      C3F      CTL2    -0.180000       12.0110           0
      1134 MEMB     31       OSM      H3F      HAL2     0.900000E-01   1.00800           0
      1135 MEMB     31       OSM      H3G      HAL2     0.900000E-01   1.00800           0
      1136 MEMB     31       OSM      C4F      CTL2    -0.180000       12.0110           0
      1137 MEMB     31       OSM      H4F      HAL2     0.900000E-01   1.00800           0
      1138 MEMB     31       OSM      H4G      HAL2     0.900000E-01   1.00800           0
      1139 MEMB     31       OSM      C5F      CTL2    -0.180000       12.0110           0
      1140 MEMB     31       OSM      H5F      HAL2     0.900000E-01   1.00800           0
      1141 MEMB     31       OSM      H5G      HAL2     0.900000E-01   1.00800           0
      1142 MEMB     31       OSM      C6F      CTL2    -0.180000       12.0110           0
      1143 MEMB     31       OSM      H6F      HAL2     0.900000E-01   1.00800           0
      1144 MEMB     31       OSM      H6G      HAL2     0.900000E-01   1.00800           0
      1145 MEMB     31       OSM      C7F      CTL2    -0.180000       12.0110           0
      1146 MEMB     31       OSM      H7F      HAL2     0.900000E-01   1.00800           0
      1147 MEMB     31       OSM      H7G      HAL2     0.900000E-01   1.00800           0
      1148 MEMB     31       OSM      C8F      CTL2    -0.180000       12.0110           0
      1149 MEMB     31       OSM      H8F      HAL2     0.900000E-01   1.00800           0
      1150 MEMB     31       OSM      H8G      HAL2     0.900000E-01   1.00800           0
      1151 MEMB     31       OSM      C9F      CEL1    -0.150000       12.0110           0
      1152 MEMB     31       OSM      H9F      HEL1     0.150000       1.00800           0
      1153 MEMB     31       OSM      C10F     CEL1    -0.150000       12.0110           0
      1154 MEMB     31       OSM      H10F     HEL1     0.150000       1.00800           0
      1155 MEMB     31       OSM      C11F     CTL2    -0.180000       12.0110           0
      1156 MEMB     31       OSM      H11F     HAL2     0.900000E-01   1.00800           0
      1157 MEMB     31       OSM      H11G     HAL2     0.900000E-01   1.00800           0
      1158 MEMB     31       OSM      C12F     CTL2    -0.180000       12.0110           0
      1159 MEMB     31       OSM      H12F     HAL2     0.900000E-01   1.00800           0
      1160 MEMB     31       OSM      H12G     HAL2     0.900000E-01   1.00800           0
      1161 MEMB     31       OSM      C13F     CTL2    -0.180000       12.0110           0
      1162 MEMB     31       OSM      H13F     HAL2     0.900000E-01   1.00800           0
      1163 MEMB     31       OSM      H13G     HAL2     0.900000E-01   1.00800           0
      1164 MEMB     31       OSM      C14F     CTL2    -0.180000       12.0110           0
      1165 MEMB     31       OSM      H14F     HAL2     0.900000E-01   1.00800           0
      1166 MEMB     31       OSM      H14G     HAL2     0.900000E-01   1.00800           0
      1167 MEMB     31       OSM      C15F     CTL2    -0.180000       12.0110           0
      1168 MEMB     31       OSM      H15F     HAL2     0.900000E-01   1.00800           0
      1169 MEMB     31       OSM      H15G     HAL2     0.900000E-01   1.00800           0
      1170 MEMB     31       OSM      C16F     CTL2    -0.180000       12.0110           0
      1171 MEMB     31       OSM      H16F     HAL2     0.900000E-01   1.00800           0
      1172 MEMB     31       OSM      H16G     HAL2     0.900000E-01   1.00800           0
      1173 MEMB     31       OSM      C17F     CTL2    -0.180000       12.0110           0
      1174 MEMB     31       OSM      H17F     HAL2     0.900000E-01   1.00800           0
      1175 MEMB     31       OSM      H17G     HAL2     0.900000E-01   1.00800           0
      1176 MEMB     31       OSM      C18F     CTL3    -0.270000       12.0110           0
      1177 MEMB     31       OSM      H18F     HAL3     0.900000E-01   1.00800           0
      1178 MEMB     31       OSM      H18G     HAL3     0.900000E-01   1.00800           0
      1179 MEMB     31       OSM      H18H     HAL3     0.900000E-01   1.00800           0
      1180 MEMB     49       OSM      N        NTL     -0.600000       14.0070           0
      1181 MEMB     49       OSM      C15      CTL5    -0.350000       12.0110           0
      1182 MEMB     49       OSM      H15A     HL       0.250000       1.00800           0
      1183 MEMB     49       OSM      H15B     HL       0.250000       1.00800           0
      1184 MEMB     49       OSM      H15C     HL       0.250000       1.00800           0
      1185 MEMB     49       OSM      C14      CTL5    -0.350000       12.0110           0
      1186 MEMB     49       OSM      H14A     HL       0.250000       1.00800           0
      1187 MEMB     49       OSM      H14B     HL       0.250000       1.00800           0
      1188 MEMB     49       OSM      H14C     HL       0.250000       1.00800           0
      1189 MEMB     49       OSM      C13      CTL5    -0.350000       12.0110           0
      1190 MEMB     49       OSM      H13A     HL       0.250000       1.00800           0
      1191 MEMB     49       OSM      H13B     HL       0.250000       1.00800           0
      1192 MEMB     49       OSM      H13C     HL       0.250000       1.00800           0
      1193 MEMB     49       OSM      C12      CTL2    -0.100000       12.0110           0
      1194 MEMB     49       OSM      H12A     HL       0.250000       1.00800           0
      1195 MEMB     49       OSM      H12B     HL       0.250000       1.00800           0
      1196 MEMB     49       OSM      C11      CTL2    -0.800000E-01   12.0110           0
      1197 MEMB     49       OSM      H11A     HAL2     0.900000E-01   1.00800           0
      1198 MEMB     49       OSM      H11B     HAL2     0.900000E-01   1.00800           0
      1199 MEMB     49       OSM      P        PL       1.500000       30.9740           0
      1200 MEMB     49       OSM      O13      O2L     -0.780000       15.9994           0
      1201 MEMB     49       OSM      O14      O2L     -0.780000       15.9994           0
      1202 MEMB     49       OSM      O11      OSLP    -0.570000       15.9994           0
      1203 MEMB     49       OSM      O12      OSLP    -0.570000       15.9994           0
      1204 MEMB     49       OSM      C1S      CTL2    -0.800000E-01   12.0110           0
      1205 MEMB     49       OSM      H1S      HAL2     0.900000E-01   1.00800           0
      1206 MEMB     49       OSM      H1T      HAL2     0.900000E-01   1.00800           0
      1207 MEMB     49       OSM      NF       NHL     -0.700000       14.0070           0
      1208 MEMB     49       OSM      HNF      H        0.350000       1.00800           0
      1209 MEMB     49       OSM      C2S      CTL1     0.300000       12.0110           0
      1210 MEMB     49       OSM      H2S      HAL1     0.500000E-01   1.00800           0
      1211 MEMB     49       OSM      C3S      CTO1     0.500000       12.0110           0
      1212 MEMB     49       OSM      H3S      HAL1    -0.110000       1.00800           0
      1213 MEMB     49       OSM      O3       OHL     -0.690000       15.9994           0
      1214 MEMB     49       OSM      HO3      HOL      0.300000       1.00800           0
      1215 MEMB     49       OSM      C4S      CEL3    -0.150000       12.0110           0
      1216 MEMB     49       OSM      H4S      HEL1     0.150000       1.00800           0
      1217 MEMB     49       OSM      C5S      CEL3    -0.150000       12.0110           0
      1218 MEMB     49       OSM      H5S      HEL1     0.150000       1.00800           0
      1219 MEMB     49       OSM      C6S      CTL2    -0.180000       12.0110           0
      1220 MEMB     49       OSM      H6S      HAL2     0.900000E-01   1.00800           0
      1221 MEMB     49       OSM      H6T      HAL2     0.900000E-01   1.00800           0
      1222 MEMB     49       OSM      C7S      CTL2    -0.180000       12.0110           0
      1223 MEMB     49       OSM      H7S      HAL2     0.900000E-01   1.00800           0
      1224 MEMB     49       OSM      H7T      HAL2     0.900000E-01   1.00800           0
      1225 MEMB     49       OSM      C8S      CTL2    -0.180000       12.0110           0
      1226 MEMB     49       OSM      H8S      HAL2     0.900000E-01   1.00800           0
      1227 MEMB     49       OSM      H8T      HAL2     0.900000E-01   1.00800           0
      1228 MEMB     49       OSM      C9S      CTL2    -0.180000       12.0110           0
      1229 MEMB     49       OSM      H9S      HAL2     0.900000E-01   1.00800           0
      1230 MEMB     49       OSM      H9T      HAL2     0.900000E-01   1.00800           0
      1231 MEMB     49       OSM      C10S     CTL2    -0.180000       12.0110           0
      1232 MEMB     49       OSM      H10S     HAL2     0.900000E-01   1.00800           0
      1233 MEMB     49       OSM      H10T     HAL2     0.900000E-01   1.00800           0
      1234 MEMB     49       OSM      C11S     CTL2    -0.180000       12.0110           0
      1235 MEMB     49       OSM      H11S     HAL2     0.900000E-01   1.00800           0
      1236 MEMB     49       OSM      H11T     HAL2     0.900000E-01   1.00800           0
      1237 MEMB     49       OSM      C12S     CTL2    -0.180000       12.0110           0
      1238 MEMB     49       OSM      H12S     HAL2     0.900000E-01   1.00800           0
      1239 MEMB     49       OSM      H12T     HAL2     0.900000E-01   1.00800           0
      1240 MEMB     49       OSM      C13S     CTL2    -0.180000       12.0110           0
      1241 MEMB     49       OSM      H13S     HAL2     0.900000E-01   1.00800           0
      1242 MEMB     49       OSM      H13T     HAL2     0.900000E-01   1.00800           0
      1243 MEMB     49       OSM      C14S     CTL2    -0.180000       12.0110           0
      1244 MEMB     49       OSM      H14S     HAL2     0.900000E-01   1.00800           0
      1245 MEMB     49       OSM      H14T     HAL2     0.900000E-01   1.00800           0
      1246 MEMB     49       OSM      C15S     CTL2    -0.180000       12.0110           0
      1247 MEMB     49       OSM      H15S     HAL2     0.900000E-01   1.00800           0
      1248 MEMB     49       OSM      H15T     HAL2     0.900000E-01   1.00800           0
      1249 MEMB     49       OSM      C16S     CTL2    -0.180000       12.0110           0
      1250 MEMB     49       OSM      H16S     HAL2     0.900000E-01   1.00800           0
      1251 MEMB     49       OSM      H16T     HAL2     0.900000E-01   1.00800           0
      1252 MEMB     49       OSM      C17S     CTL2    -0.180000       12.0110           0
      1253 MEMB     49       OSM      H17S     HAL2     0.900000E-01   1.00800           0
      1254 MEMB     49       OSM      H17T     HAL2     0.900000E-01   1.00800           0
      1255 MEMB     49       OSM      C18S     CTL3    -0.270000       12.0110           0
      1256 MEMB     49       OSM      H18S     HAL3     0.900000E-01   1.00800           0
      1257 MEMB     49       OSM      H18T     HAL3     0.900000E-01   1.00800           0
      1258 MEMB     49       OSM      H18U     HAL3     0.900000E-01   1.00800           0
      1259 MEMB     49       OSM      C1F      C        0.550000       12.0110           0
      1260 MEMB     49       OSM      OF       O       -0.600000       15.9994           0
      1261 MEMB     49       OSM      C2F      CTL2    -0.700000E-01   12.0110           0
      1262 MEMB     49       OSM      H2F      HAL2     0.600000E-01   1.00800           0
      1263 MEMB     49       OSM      H2G      HAL2     0.600000E-01   1.00800           0
      1264 MEMB     49       OSM      C3F      CTL2    -0.180000       12.0110           0
      1265 MEMB     49       OSM      H3F      HAL2     0.900000E-01   1.00800           0
      1266 MEMB     49       OSM      H3G      HAL2     0.900000E-01   1.00800           0
      1267 MEMB     49       OSM      C4F      CTL2    -0.180000       12.0110           0
      1268 MEMB     49       OSM      H4F      HAL2     0.900000E-01   1.00800           0
      1269 MEMB     49       OSM      H4G      HAL2     0.900000E-01   1.00800           0
      1270 MEMB     49       OSM      C5F      CTL2    -0.180000       12.0110           0
      1271 MEMB     49       OSM      H5F      HAL2     0.900000E-01   1.00800           0
      1272 MEMB     49       OSM      H5G      HAL2     0.900000E-01   1.00800           0
      1273 MEMB     49       OSM      C6F      CTL2    -0.180000       12.0110           0
      1274 MEMB     49       OSM      H6F      HAL2     0.900000E-01   1.00800           0
      1275 MEMB     49       OSM      H6G      HAL2     0.900000E-01   1.00800           0
      1276 MEMB     49       OSM      C7F      CTL2    -0.180000       12.0110           0
      1277 MEMB     49       OSM      H7F      HAL2     0.900000E-01   1.00800           0
      1278 MEMB     49       OSM      H7G      HAL2     0.900000E-01   1.00800           0
      1279 MEMB     49       OSM      C8F      CTL2    -0.180000       12.0110           0
      1280 MEMB     49       OSM      H8F      HAL2     0.900000E-01   1.00800           0
      1281 MEMB     49       OSM      H8G      HAL2     0.900000E-01   1.00800           0
      1282 MEMB     49       OSM      C9F      CEL1    -0.150000       12.0110           0
      1283 MEMB     49       OSM      H9F      HEL1     0.150000       1.00800           0
      1284 MEMB     49       OSM      C10F     CEL1    -0.150000       12.0110           0
      1285 MEMB     49       OSM      H10F     HEL1     0.150000       1.00800           0
      1286 MEMB     49       OSM      C11F     CTL2    -0.180000       12.0110           0
      1287 MEMB     49       OSM      H11F     HAL2     0.900000E-01   1.00800           0
      1288 MEMB     49       OSM      H11G     HAL2     0.900000E-01   1.00800           0
      1289 MEMB     49       OSM      C12F     CTL2    -0.180000       12.0110           0
      1290 MEMB     49       OSM      H12F     HAL2     0.900000E-01   1.00800           0
      1291 MEMB     49       OSM      H12G     HAL2     0.900000E-01   1.00800           0
      1292 MEMB     49       OSM      C13F     CTL2    -0.180000       12.0110           0
      1293 MEMB     49       OSM      H13F     HAL2     0.900000E-01   1.00800           0
      1294 MEMB     49       OSM      H13G     HAL2     0.900000E-01   1.00800           0
      1295 MEMB     49       OSM      C14F     CTL2    -0.180000       12.0110           0
      1296 MEMB     49       OSM      H14F     HAL2     0.900000E-01   1.00800           0
      1297 MEMB     49       OSM      H14G     HAL2     0.900000E-01   1.00800           0
      1298 MEMB     49       OSM      C15F     CTL2    -0.180000       12.0110           0
      1299 MEMB     49       OSM      H15F     HAL2     0.900000E-01   1.00800           0
      1300 MEMB     49       OSM      H15G     HAL2     0.900000E-01   1.00800           0
      1301 MEMB     49       OSM      C16F     CTL2    -0.180000       12.0110           0
      1302 MEMB     49       OSM      H16F     HAL2     0.900000E-01   1.00800           0
      1303 MEMB     49       OSM      H16G     HAL2     0.900000E-01   1.00800           0
      1304 MEMB     49       OSM      C17F     CTL2    -0.180000       12.0110           0
      1305 MEMB     49       OSM      H17F     HAL2     0.900000E-01   1.00800           0
      1306 MEMB     49       OSM      H17G     HAL2     0.900000E-01   1.00800           0
      1307 MEMB     49       OSM      C18F     CTL3    -0.270000       12.0110           0
      1308 MEMB     49       OSM      H18F     HAL3     0.900000E-01   1.00800           0
      1309 MEMB     49       OSM      H18G     HAL3     0.900000E-01   1.00800           0
      1310 MEMB     49       OSM      H18H     HAL3     0.900000E-01   1.00800           0
      1311 MEMB     51       OSM      N        NTL     -0.600000       14.0070           0
      1312 MEMB     51       OSM      C15      CTL5    -0.350000       12.0110           0
      1313 MEMB     51       OSM      H15A     HL       0.250000       1.00800           0
      1314 MEMB     51       OSM      H15B     HL       0.250000       1.00800           0
      1315 MEMB     51       OSM      H15C     HL       0.250000       1.00800           0
      1316 MEMB     51       OSM      C14      CTL5    -0.350000       12.0110           0
      1317 MEMB     51       OSM      H14A     HL       0.250000       1.00800           0
      1318 MEMB     51       OSM      H14B     HL       0.250000       1.00800           0
      1319 MEMB     51       OSM      H14C     HL       0.250000       1.00800           0
      1320 MEMB     51       OSM      C13      CTL5    -0.350000       12.0110           0
      1321 MEMB     51       OSM      H13A     HL       0.250000       1.00800           0
      1322 MEMB     51       OSM      H13B     HL       0.250000       1.00800           0
      1323 MEMB     51       OSM      H13C     HL       0.250000       1.00800           0
      1324 MEMB     51       OSM      C12      CTL2    -0.100000       12.0110           0
      1325 MEMB     51       OSM      H12A     HL       0.250000       1.00800           0
      1326 MEMB     51       OSM      H12B     HL       0.250000       1.00800           0
      1327 MEMB     51       OSM      C11      CTL2    -0.800000E-01   12.0110           0
      1328 MEMB     51       OSM      H11A     HAL2     0.900000E-01   1.00800           0
      1329 MEMB     51       OSM      H11B     HAL2     0.900000E-01   1.00800           0
      1330 MEMB     51       OSM      P        PL       1.500000       30.9740           0
      1331 MEMB     51       OSM      O13      O2L     -0.780000       15.9994           0
      1332 MEMB     51       OSM      O14      O2L     -0.780000       15.9994           0
      1333 MEMB     51       OSM      O11      OSLP    -0.570000       15.9994           0
      1334 MEMB     51       OSM      O12      OSLP    -0.570000       15.9994           0
      1335 MEMB     51       OSM      C1S      CTL2    -0.800000E-01   12.0110           0
      1336 MEMB     51       OSM      H1S      HAL2     0.900000E-01   1.00800           0
      1337 MEMB     51       OSM      H1T      HAL2     0.900000E-01   1.00800           0
      1338 MEMB     51       OSM      NF       NHL     -0.700000       14.0070           0
      1339 MEMB     51       OSM      HNF      H        0.350000       1.00800           0
      1340 MEMB     51       OSM      C2S      CTL1     0.300000       12.0110           0
      1341 MEMB     51       OSM      H2S      HAL1     0.500000E-01   1.00800           0
      1342 MEMB     51       OSM      C3S      CTO1     0.500000       12.0110           0
      1343 MEMB     51       OSM      H3S      HAL1    -0.110000       1.00800           0
      1344 MEMB     51       OSM      O3       OHL     -0.690000       15.9994           0
      1345 MEMB     51       OSM      HO3      HOL      0.300000       1.00800           0
      1346 MEMB     51       OSM      C4S      CEL3    -0.150000       12.0110           0
      1347 MEMB     51       OSM      H4S      HEL1     0.150000       1.00800           0
      1348 MEMB     51       OSM      C5S      CEL3    -0.150000       12.0110           0
      1349 MEMB     51       OSM      H5S      HEL1     0.150000       1.00800           0
      1350 MEMB     51       OSM      C6S      CTL2    -0.180000       12.0110           0
      1351 MEMB     51       OSM      H6S      HAL2     0.900000E-01   1.00800           0
      1352 MEMB     51       OSM      H6T      HAL2     0.900000E-01   1.00800           0
      1353 MEMB     51       OSM      C7S      CTL2    -0.180000       12.0110           0
      1354 MEMB     51       OSM      H7S      HAL2     0.900000E-01   1.00800           0
      1355 MEMB     51       OSM      H7T      HAL2     0.900000E-01   1.00800           0
      1356 MEMB     51       OSM      C8S      CTL2    -0.180000       12.0110           0
      1357 MEMB     51       OSM      H8S      HAL2     0.900000E-01   1.00800           0
      1358 MEMB     51       OSM      H8T      HAL2     0.900000E-01   1.00800           0
      1359 MEMB     51       OSM      C9S      CTL2    -0.180000       12.0110           0
      1360 MEMB     51       OSM      H9S      HAL2     0.900000E-01   1.00800           0
      1361 MEMB     51       OSM      H9T      HAL2     0.900000E-01   1.00800           0
      1362 MEMB     51       OSM      C10S     CTL2    -0.180000       12.0110           0
      1363 MEMB     51       OSM      H10S     HAL2     0.900000E-01   1.00800           0
      1364 MEMB     51       OSM      H10T     HAL2     0.900000E-01   1.00800           0
      1365 MEMB     51       OSM      C11S     CTL2    -0.180000       12.0110           0
      1366 MEMB     51       OSM      H11S     HAL2     0.900000E-01   1.00800           0
      1367 MEMB     51       OSM      H11T     HAL2     0.900000E-01   1.00800           0
      1368 MEMB     51       OSM      C12S     CTL2    -0.180000       12.0110           0
      1369 MEMB     51       OSM      H12S     HAL2     0.900000E-01   1.00800           0
      1370 MEMB     51       OSM      H12T     HAL2     0.900000E-01   1.00800           0
      1371 MEMB     51       OSM      C13S     CTL2    -0.180000       12.0110           0
      1372 MEMB     51       OSM      H13S     HAL2     0.900000E-01   1.00800           0
      1373 MEMB     51       OSM      H13T     HAL2     0.900000E-01   1.00800           0
      1374 MEMB     51       OSM      C14S     CTL2    -0.180000       12.0110           0
      1375 MEMB     51       OSM      H14S     HAL2     0.900000E-01   1.00800           0
      1376 MEMB     51       OSM      H14T     HAL2     0.900000E-01   1.00800           0
      1377 MEMB     51       OSM      C15S     CTL2    -0.180000       12.0110           0
      1378 MEMB     51       OSM      H15S     HAL2     0.900000E-01   1.00800           0
      1379 MEMB     51       OSM      H15T     HAL2     0.900000E-01   1.00800           0
      1380 MEMB     51       OSM      C16S     CTL2    -0.180000       12.0110           0
      1381 MEMB     51       OSM      H16S     HAL2     0.900000E-01   1.00800           0
      1382 MEMB     51       OSM      H16T     HAL2     0.900000E-01   1.00800           0
      1383 MEMB     51       OSM      C17S     CTL2    -0.180000       12.0110           0
      1384 MEMB     51       OSM      H17S     HAL2     0.900000E-01   1.00800           0
      1385 MEMB     51       OSM      H17T     HAL2     0.900000E-01   1.00800           0
      1386 MEMB     51       OSM      C18S     CTL3    -0.270000       12.0110           0
      1387 MEMB     51       OSM      H18S     HAL3     0.900000E-01   1.00800           0
      1388 MEMB     51       OSM      H18T     HAL3     0.900000E-01   1.00800           0
      1389 MEMB     51       OSM      H18U     HAL3     0.900000E-01   1.00800           0
      1390 MEMB     51       OSM      C1F      C        0.550000       12.0110           0
      1391 MEMB     51       OSM      OF       O       -0.600000       15.9994           0
      1392 MEMB     51       OSM      C2F      CTL2    -0.700000E-01   12.0110           0
      1393 MEMB     51       OSM      H2F      HAL2     0.600000E-01   1.00800           0
      1394 MEMB     51       OSM      H2G      HAL2     0.600000E-01   1.00800           0
      1395 MEMB     51       OSM      C3F      CTL2    -0.180000       12.0110           0
      1396 MEMB     51       OSM      H3F      HAL2     0.900000E-01   1.00800           0
      1397 MEMB     51       OSM      H3G      HAL2     0.900000E-01   1.00800           0
      1398 MEMB     51       OSM      C4F      CTL2    -0.180000       12.0110           0
      1399 MEMB     51       OSM      H4F      HAL2     0.900000E-01   1.00800           0
      1400 MEMB     51       OSM      H4G      HAL2     0.900000E-01   1.00800           0
      1401 MEMB     51       OSM      C5F      CTL2    -0.180000       12.0110           0
      1402 MEMB     51       OSM      H5F      HAL2     0.900000E-01   1.00800           0
      1403 MEMB     51       OSM      H5G      HAL2     0.900000E-01   1.00800           0
      1404 MEMB     51       OSM      C6F      CTL2    -0.180000       12.0110           0
      1405 MEMB     51       OSM      H6F      HAL2     0.900000E-01   1.00800           0
      1406 MEMB     51       OSM      H6G      HAL2     0.900000E-01   1.00800           0
      1407 MEMB     51       OSM      C7F      CTL2    -0.180000       12.0110           0
      1408 MEMB     51       OSM      H7F      HAL2     0.900000E-01   1.00800           0
      1409 MEMB     51       OSM      H7G      HAL2     0.900000E-01   1.00800           0
      1410 MEMB     51       OSM      C8F      CTL2    -0.180000       12.0110           0
      1411 MEMB     51       OSM      H8F      HAL2     0.900000E-01   1.00800           0
      1412 MEMB     51       OSM      H8G      HAL2     0.900000E-01   1.00800           0
      1413 MEMB     51       OSM      C9F      CEL1    -0.150000       12.0110           0
      1414 MEMB     51       OSM      H9F      HEL1     0.150000       1.00800           0
      1415 MEMB     51       OSM      C10F     CEL1    -0.150000       12.0110           0
      1416 MEMB     51       OSM      H10F     HEL1     0.150000       1.00800           0
      1417 MEMB     51       OSM      C11F     CTL2    -0.180000       12.0110           0
      1418 MEMB     51       OSM      H11F     HAL2     0.900000E-01   1.00800           0
      1419 MEMB     51       OSM      H11G     HAL2     0.900000E-01   1.00800           0
      1420 MEMB     51       OSM      C12F     CTL2    -0.180000       12.0110           0
      1421 MEMB     51       OSM      H12F     HAL2     0.900000E-01   1.00800           0
      1422 MEMB     51       OSM      H12G     HAL2     0.900000E-01   1.00800           0
      1423 MEMB     51       OSM      C13F     CTL2    -0.180000       12.0110           0
      1424 MEMB     51       OSM      H13F     HAL2     0.900000E-01   1.00800           0
      1425 MEMB     51       OSM      H13G     HAL2     0.900000E-01   1.00800           0
      1426 MEMB     51       OSM      C14F     CTL2    -0.180000       12.0110           0
      1427 MEMB     51       OSM      H14F     HAL2     0.900000E-01   1.00800           0
      1428 MEMB     51       OSM      H14G     HAL2     0.900000E-01   1.00800           0
      1429 MEMB     51       OSM      C15F     CTL2    -0.180000       12.0110           0
      1430 MEMB     51       OSM      H15F     HAL2     0.900000E-01   1.00800           0
      1431 MEMB     51       OSM      H15G     HAL2     0.900000E-01   1.00800           0
      1432 MEMB     51       OSM      C16F     CTL2    -0.180000       12.0110           0
      1433 MEMB     51       OSM      H16F     HAL2     0.900000E-01   1.00800           0
      1434 MEMB     51       OSM      H16G     HAL2     0.900000E-01   1.00800           0
      1435 MEMB     51       OSM      C17F     CTL2    -0.180000       12.0110           0
      1436 MEMB     51       OSM      H17F     HAL2     0.900000E-01   1.00800           0
      1437 MEMB     51       OSM      H17G     HAL2     0.900000E-01   1.00800           0
      1438 MEMB     51       OSM      C18F     CTL3    -0.270000       12.0110           0
      1439 MEMB     51       OSM      H18F     HAL3     0.900000E-01   1.00800           0
      1440 MEMB     51       OSM      H18G     HAL3     0.900000E-01   1.00800           0
      1441 MEMB     51       OSM      H18H     HAL3     0.900000E-01   1.00800           0
      1442 MEMB     54       OSM      N        NTL     -0.600000       14.0070           0
      1443 MEMB     54       OSM      C15      CTL5    -0.350000       12.0110           0
      1444 MEMB     54       OSM      H15A     HL       0.250000       1.00800           0
      1445 MEMB     54       OSM      H15B     HL       0.250000       1.00800           0
      1446 MEMB     54       OSM      H15C     HL       0.250000       1.00800           0
      1447 MEMB     54       OSM      C14      CTL5    -0.350000       12.0110           0
      1448 MEMB     54       OSM      H14A     HL       0.250000       1.00800           0
      1449 MEMB     54       OSM      H14B     HL       0.250000       1.00800           0
      1450 MEMB     54       OSM      H14C     HL       0.250000       1.00800           0
      1451 MEMB     54       OSM      C13      CTL5    -0.350000       12.0110           0
      1452 MEMB     54       OSM      H13A     HL       0.250000       1.00800           0
      1453 MEMB     54       OSM      H13B     HL       0.250000       1.00800           0
      1454 MEMB     54       OSM      H13C     HL       0.250000       1.00800           0
      1455 MEMB     54       OSM      C12      CTL2    -0.100000       12.0110           0
      1456 MEMB     54       OSM      H12A     HL       0.250000       1.00800           0
      1457 MEMB     54       OSM      H12B     HL       0.250000       1.00800           0
      1458 MEMB     54       OSM      C11      CTL2    -0.800000E-01   12.0110           0
      1459 MEMB     54       OSM      H11A     HAL2     0.900000E-01   1.00800           0
      1460 MEMB     54       OSM      H11B     HAL2     0.900000E-01   1.00800           0
      1461 MEMB     54       OSM      P        PL       1.500000       30.9740           0
      1462 MEMB     54       OSM      O13      O2L     -0.780000       15.9994           0
      1463 MEMB     54       OSM      O14      O2L     -0.780000       15.9994           0
      1464 MEMB     54       OSM      O11      OSLP    -0.570000       15.9994           0
      1465 MEMB     54       OSM      O12      OSLP    -0.570000       15.9994           0
      1466 MEMB     54       OSM      C1S      CTL2    -0.800000E-01   12.0110           0
      1467 MEMB     54       OSM      H1S      HAL2     0.900000E-01   1.00800           0
      1468 MEMB     54       OSM      H1T      HAL2     0.900000E-01   1.00800           0
      1469 MEMB     54       OSM      NF       NHL     -0.700000       14.0070           0
      1470 MEMB     54       OSM      HNF      H        0.350000       1.00800           0
      1471 MEMB     54       OSM      C2S      CTL1     0.300000       12.0110           0
      1472 MEMB     54       OSM      H2S      HAL1     0.500000E-01   1.00800           0
      1473 MEMB     54       OSM      C3S      CTO1     0.500000       12.0110           0
      1474 MEMB     54       OSM      H3S      HAL1    -0.110000       1.00800           0
      1475 MEMB     54       OSM      O3       OHL     -0.690000       15.9994           0
      1476 MEMB     54       OSM      HO3      HOL      0.300000       1.00800           0
      1477 MEMB     54       OSM      C4S      CEL3    -0.150000       12.0110           0
      1478 MEMB     54       OSM      H4S      HEL1     0.150000       1.00800           0
      1479 MEMB     54       OSM      C5S      CEL3    -0.150000       12.0110           0
      1480 MEMB     54       OSM      H5S      HEL1     0.150000       1.00800           0
      1481 MEMB     54       OSM      C6S      CTL2    -0.180000       12.0110           0
      1482 MEMB     54       OSM      H6S      HAL2     0.900000E-01   1.00800           0
      1483 MEMB     54       OSM      H6T      HAL2     0.900000E-01   1.00800           0
      1484 MEMB     54       OSM      C7S      CTL2    -0.180000       12.0110           0
      1485 MEMB     54       OSM      H7S      HAL2     0.900000E-01   1.00800           0
      1486 MEMB     54       OSM      H7T      HAL2     0.900000E-01   1.00800           0
      1487 MEMB     54       OSM      C8S      CTL2    -0.180000       12.0110           0
      1488 MEMB     54       OSM      H8S      HAL2     0.900000E-01   1.00800           0
      1489 MEMB     54       OSM      H8T      HAL2     0.900000E-01   1.00800           0
      1490 MEMB     54       OSM      C9S      CTL2    -0.180000       12.0110           0
      1491 MEMB     54       OSM      H9S      HAL2     0.900000E-01   1.00800           0
      1492 MEMB     54       OSM      H9T      HAL2     0.900000E-01   1.00800           0
      1493 MEMB     54       OSM      C10S     CTL2    -0.180000       12.0110           0
      1494 MEMB     54       OSM      H10S     HAL2     0.900000E-01   1.00800           0
      1495 MEMB     54       OSM      H10T     HAL2     0.900000E-01   1.00800           0
      1496 MEMB     54       OSM      C11S     CTL2    -0.180000       12.0110           0
      1497 MEMB     54       OSM      H11S     HAL2     0.900000E-01   1.00800           0
      1498 MEMB     54       OSM      H11T     HAL2     0.900000E-01   1.00800           0
      1499 MEMB     54       OSM      C12S     CTL2    -0.180000       12.0110           0
      1500 MEMB     54       OSM      H12S     HAL2     0.900000E-01   1.00800           0
      1501 MEMB     54       OSM      H12T     HAL2     0.900000E-01   1.00800           0
      1502 MEMB     54       OSM      C13S     CTL2    -0.180000       12.0110           0
      1503 MEMB     54       OSM      H13S     HAL2     0.900000E-01   1.00800           0
      1504 MEMB     54       OSM      H13T     HAL2     0.900000E-01   1.00800           0
      1505 MEMB     54       OSM      C14S     CTL2    -0.180000       12.0110           0
      1506 MEMB     54       OSM      H14S     HAL2     0.900000E-01   1.00800           0
      1507 MEMB     54       OSM      H14T     HAL2     0.900000E-01   1.00800           0
      1508 MEMB     54       OSM      C15S     CTL2    -0.180000       12.0110           0
      1509 MEMB     54       OSM      H15S     HAL2     0.900000E-01   1.00800           0
      1510 MEMB     54       OSM      H15T     HAL2     0.900000E-01   1.00800           0
      1511 MEMB     54       OSM      C16S     CTL2    -0.180000       12.0110           0
      1512 MEMB     54       OSM      H16S     HAL2     0.900000E-01   1.00800           0
      1513 MEMB     54       OSM      H16T     HAL2     0.900000E-01   1.00800           0
      1514 MEMB     54       OSM      C17S     CTL2    -0.180000       12.0110           0
      1515 MEMB     54       OSM      H17S     HAL2     0.900000E-01   1.00800           0
      1516 MEMB     54       OSM      H17T     HAL2     0.900000E-01   1.00800           0
      1517 MEMB     54       OSM      C18S     CTL3    -0.270000       12.0110           0
      1518 MEMB     54       OSM      H18S     HAL3     0.900000E-01   1.00800           0
      1519 MEMB     54       OSM      H18T     HAL3     0.900000E-01   1.00800           0
      1520 MEMB     54       OSM      H18U     HAL3     0.900000E-01   1.00800           0
      1521 MEMB     54       OSM      C1F      C        0.550000       12.0110           0
      1522 MEMB     54       OSM      OF       O       -0.600000       15.9994           0
      1523 MEMB     54       OSM      C2F      CTL2    -0.700000E-01   12.0110           0
      1524 MEMB     54       OSM      H2F      HAL2     0.600000E-01   1.00800           0
      1525 MEMB     54       OSM      H2G      HAL2     0.600000E-01   1.00800           0
      1526 MEMB     54       OSM      C3F      CTL2    -0.180000       12.0110           0
      1527 MEMB     54       OSM      H3F      HAL2     0.900000E-01   1.00800           0
      1528 MEMB     54       OSM      H3G      HAL2     0.900000E-01   1.00800           0
      1529 MEMB     54       OSM      C4F      CTL2    -0.180000       12.0110           0
      1530 MEMB     54       OSM      H4F      HAL2     0.900000E-01   1.00800           0
      1531 MEMB     54       OSM      H4G      HAL2     0.900000E-01   1.00800           0
      1532 MEMB     54       OSM      C5F      CTL2    -0.180000       12.0110           0
      1533 MEMB     54       OSM      H5F      HAL2     0.900000E-01   1.00800           0
      1534 MEMB     54       OSM      H5G      HAL2     0.900000E-01   1.00800           0
      1535 MEMB     54       OSM      C6F      CTL2    -0.180000       12.0110           0
      1536 MEMB     54       OSM      H6F      HAL2     0.900000E-01   1.00800           0
      1537 MEMB     54       OSM      H6G      HAL2     0.900000E-01   1.00800           0
      1538 MEMB     54       OSM      C7F      CTL2    -0.180000       12.0110           0
      1539 MEMB     54       OSM      H7F      HAL2     0.900000E-01   1.00800           0
      1540 MEMB     54       OSM      H7G      HAL2     0.900000E-01   1.00800           0
      1541 MEMB     54       OSM      C8F      CTL2    -0.180000       12.0110           0
      1542 MEMB     54       OSM      H8F      HAL2     0.900000E-01   1.00800           0
      1543 MEMB     54       OSM      H8G      HAL2     0.900000E-01   1.00800           0
      1544 MEMB     54       OSM      C9F      CEL1    -0.150000       12.0110           0
      1545 MEMB     54       OSM      H9F      HEL1     0.150000       1.00800           0
      1546 MEMB     54       OSM      C10F     CEL1    -0.150000       12.0110           0
      1547 MEMB     54       OSM      H10F     HEL1     0.150000       1.00800           0
      1548 MEMB     54       OSM      C11F     CTL2    -0.180000       12.0110           0
      1549 MEMB     54       OSM      H11F     HAL2     0.900000E-01   1.00800           0
      1550 MEMB     54       OSM      H11G     HAL2     0.900000E-01   1.00800           0
      1551 MEMB     54       OSM      C12F     CTL2    -0.180000       12.0110           0
      1552 MEMB     54       OSM      H12F     HAL2     0.900000E-01   1.00800           0
      1553 MEMB     54       OSM      H12G     HAL2     0.900000E-01   1.00800           0
      1554 MEMB     54       OSM      C13F     CTL2    -0.180000       12.0110           0
      1555 MEMB     54       OSM      H13F     HAL2     0.900000E-01   1.00800           0
      1556 MEMB     54       OSM      H13G     HAL2     0.900000E-01   1.00800           0
      1557 MEMB     54       OSM      C14F     CTL2    -0.180000       12.0110           0
      1558 MEMB     54       OSM      H14F     HAL2     0.900000E-01   1.00800           0
      1559 MEMB     54       OSM      H14G     HAL2     0.900000E-01   1.00800           0
      1560 MEMB     54       OSM      C15F     CTL2    -0.180000       12.0110           0
      1561 MEMB     54       OSM      H15F     HAL2     0.900000E-01   1.00800           0
      1562 MEMB     54       OSM      H15G     HAL2     0.900000E-01   1.00800           0
      1563 MEMB     54       OSM      C16F     CTL2    -0.180000       12.0110           0
      1564 MEMB     54       OSM      H16F     HAL2     0.900000E-01   1.00800           0
      1565 MEMB     54       OSM      H16G     HAL2     0.900000E-01   1.00800           0
      1566 MEMB     54       OSM      C17F     CTL2    -0.180000       12.0110           0
      1567 MEMB     54       OSM      H17F     HAL2     0.900000E-01   1.00800           0
      1568 MEMB     54       OSM      H17G     HAL2     0.900000E-01   1.00800           0
      1569 MEMB     54       OSM      C18F     CTL3    -0.270000       12.0110           0
      1570 MEMB     54       OSM      H18F     HAL3     0.900000E-01   1.00800           0
      1571 MEMB     54       OSM      H18G     HAL3     0.900000E-01   1.00800           0
      1572 MEMB     54       OSM      H18H     HAL3     0.900000E-01   1.00800           0
      1573 MEMB     56       OSM      N        NTL     -0.600000       14.0070           0
      1574 MEMB     56       OSM      C15      CTL5    -0.350000       12.0110           0
      1575 MEMB     56       OSM      H15A     HL       0.250000       1.00800           0
      1576 MEMB     56       OSM      H15B     HL       0.250000       1.00800           0
      1577 MEMB     56       OSM      H15C     HL       0.250000       1.00800           0
      1578 MEMB     56       OSM      C14      CTL5    -0.350000       12.0110           0
      1579 MEMB     56       OSM      H14A     HL       0.250000       1.00800           0
      1580 MEMB     56       OSM      H14B     HL       0.250000       1.00800           0
      1581 MEMB     56       OSM      H14C     HL       0.250000       1.00800           0
      1582 MEMB     56       OSM      C13      CTL5    -0.350000       12.0110           0
      1583 MEMB     56       OSM      H13A     HL       0.250000       1.00800           0
      1584 MEMB     56       OSM      H13B     HL       0.250000       1.00800           0
      1585 MEMB     56       OSM      H13C     HL       0.250000       1.00800           0
      1586 MEMB     56       OSM      C12      CTL2    -0.100000       12.0110           0
      1587 MEMB     56       OSM      H12A     HL       0.250000       1.00800           0
      1588 MEMB     56       OSM      H12B     HL       0.250000       1.00800           0
      1589 MEMB     56       OSM      C11      CTL2    -0.800000E-01   12.0110           0
      1590 MEMB     56       OSM      H11A     HAL2     0.900000E-01   1.00800           0
      1591 MEMB     56       OSM      H11B     HAL2     0.900000E-01   1.00800           0
      1592 MEMB     56       OSM      P        PL       1.500000       30.9740           0
      1593 MEMB     56       OSM      O13      O2L     -0.780000       15.9994           0
      1594 MEMB     56       OSM      O14      O2L     -0.780000       15.9994           0
      1595 MEMB     56       OSM      O11      OSLP    -0.570000       15.9994           0
      1596 MEMB     56       OSM      O12      OSLP    -0.570000       15.9994           0
      1597 MEMB     56       OSM      C1S      CTL2    -0.800000E-01   12.0110           0
      1598 MEMB     56       OSM      H1S      HAL2     0.900000E-01   1.00800           0
      1599 MEMB     56       OSM      H1T      HAL2     0.900000E-01   1.00800           0
      1600 MEMB     56       OSM      NF       NHL     -0.700000       14.0070           0
      1601 MEMB     56       OSM      HNF      H        0.350000       1.00800           0
      1602 MEMB     56       OSM      C2S      CTL1     0.300000       12.0110           0
      1603 MEMB     56       OSM      H2S      HAL1     0.500000E-01   1.00800           0
      1604 MEMB     56       OSM      C3S      CTO1     0.500000       12.0110           0
      1605 MEMB     56       OSM      H3S      HAL1    -0.110000       1.00800           0
      1606 MEMB     56       OSM      O3       OHL     -0.690000       15.9994           0
      1607 MEMB     56       OSM      HO3      HOL      0.300000       1.00800           0
      1608 MEMB     56       OSM      C4S      CEL3    -0.150000       12.0110           0
      1609 MEMB     56       OSM      H4S      HEL1     0.150000       1.00800           0
      1610 MEMB     56       OSM      C5S      CEL3    -0.150000       12.0110           0
      1611 MEMB     56       OSM      H5S      HEL1     0.150000       1.00800           0
      1612 MEMB     56       OSM      C6S      CTL2    -0.180000       12.0110           0
      1613 MEMB     56       OSM      H6S      HAL2     0.900000E-01   1.00800           0
      1614 MEMB     56       OSM      H6T      HAL2     0.900000E-01   1.00800           0
      1615 MEMB     56       OSM      C7S      CTL2    -0.180000       12.0110           0
      1616 MEMB     56       OSM      H7S      HAL2     0.900000E-01   1.00800           0
      1617 MEMB     56       OSM      H7T      HAL2     0.900000E-01   1.00800           0
      1618 MEMB     56       OSM      C8S      CTL2    -0.180000       12.0110           0
      1619 MEMB     56       OSM      H8S      HAL2     0.900000E-01   1.00800           0
      1620 MEMB     56       OSM      H8T      HAL2     0.900000E-01   1.00800           0
      1621 MEMB     56       OSM      C9S      CTL2    -0.180000       12.0110           0
      1622 MEMB     56       OSM      H9S      HAL2     0.900000E-01   1.00800           0
      1623 MEMB     56       OSM      H9T      HAL2     0.900000E-01   1.00800           0
      1624 MEMB     56       OSM      C10S     CTL2    -0.180000       12.0110           0
      1625 MEMB     56       OSM      H10S     HAL2     0.900000E-01   1.00800           0
      1626 MEMB     56       OSM      H10T     HAL2     0.900000E-01   1.00800           0
      1627 MEMB     56       OSM      C11S     CTL2    -0.180000       12.0110           0
      1628 MEMB     56       OSM      H11S     HAL2     0.900000E-01   1.00800           0
      1629 MEMB     56       OSM      H11T     HAL2     0.900000E-01   1.00800           0
      1630 MEMB     56       OSM      C12S     CTL2    -0.180000       12.0110           0
      1631 MEMB     56       OSM      H12S     HAL2     0.900000E-01   1.00800           0
      1632 MEMB     56       OSM      H12T     HAL2     0.900000E-01   1.00800           0
      1633 MEMB     56       OSM      C13S     CTL2    -0.180000       12.0110           0
      1634 MEMB     56       OSM      H13S     HAL2     0.900000E-01   1.00800           0
      1635 MEMB     56       OSM      H13T     HAL2     0.900000E-01   1.00800           0
      1636 MEMB     56       OSM      C14S     CTL2    -0.180000       12.0110           0
      1637 MEMB     56       OSM      H14S     HAL2     0.900000E-01   1.00800           0
      1638 MEMB     56       OSM      H14T     HAL2     0.900000E-01   1.00800           0
      1639 MEMB     56       OSM      C15S     CTL2    -0.180000       12.0110           0
      1640 MEMB     56       OSM      H15S     HAL2     0.900000E-01   1.00800           0
      1641 MEMB     56       OSM      H15T     HAL2     0.900000E-01   1.00800           0
      1642 MEMB     56       OSM      C16S     CTL2    -0.180000       12.0110           0
      1643 MEMB     56       OSM      H16S     HAL2     0.900000E-01   1.00800           0
      1644 MEMB     56       OSM      H16T     HAL2     0.900000E-01   1.00800           0
      1645 MEMB     56       OSM      C17S     CTL2    -0.180000       12.0110           0
      1646 MEMB     56       OSM      H17S     HAL2     0.900000E-01   1.00800           0
      1647 MEMB     56       OSM      H17T     HAL2     0.900000E-01   1.00800           0
      1648 MEMB     56       OSM      C18S     CTL3    -0.270000       12.0110           0
      1649 MEMB     56       OSM      H18S     HAL3     0.900000E-01   1.00800           0
      1650 MEMB     56       OSM      H18T     HAL3     0.900000E-01   1.00800           0
      1651 MEMB     56       OSM      H18U     HAL3     0.900000E-01   1.00800           0
      1652 MEMB     56       OSM      C1F      C        0.550000       12.0110           0
      1653 MEMB     56       OSM      OF       O       -0.600000       15.9994           0
      1654 MEMB     56       OSM      C2F      CTL2    -0.700000E-01   12.0110           0
      1655 MEMB     56       OSM      H2F      HAL2     0.600000E-01   1.00800           0
      1656 MEMB     56       OSM      H2G      HAL2     0.600000E-01   1.00800           0
      1657 MEMB     56       OSM      C3F      CTL2    -0.180000       12.0110           0
      1658 MEMB     56       OSM      H3F      HAL2     0.900000E-01   1.00800           0
      1659 MEMB     56       OSM      H3G      HAL2     0.900000E-01   1.00800           0
      1660 MEMB     56       OSM      C4F      CTL2    -0.180000       12.0110           0
      1661 MEMB     56       OSM      H4F      HAL2     0.900000E-01   1.00800           0
      1662 MEMB     56       OSM      H4G      HAL2     0.900000E-01   1.00800           0
      1663 MEMB     56       OSM      C5F      CTL2    -0.180000       12.0110           0
      1664 MEMB     56       OSM      H5F      HAL2     0.900000E-01   1.00800           0
      1665 MEMB     56       OSM      H5G      HAL2     0.900000E-01   1.00800           0
      1666 MEMB     56       OSM      C6F      CTL2    -0.180000       12.0110           0
      1667 MEMB     56       OSM      H6F      HAL2     0.900000E-01   1.00800           0
      1668 MEMB     56       OSM      H6G      HAL2     0.900000E-01   1.00800           0
      1669 MEMB     56       OSM      C7F      CTL2    -0.180000       12.0110           0
      1670 MEMB     56       OSM      H7F      HAL2     0.900000E-01   1.00800           0
      1671 MEMB     56       OSM      H7G      HAL2     0.900000E-01   1.00800           0
      1672 MEMB     56       OSM      C8F      CTL2    -0.180000       12.0110           0
      1673 MEMB     56       OSM      H8F      HAL2     0.900000E-01   1.00800           0
      1674 MEMB     56       OSM      H8G      HAL2     0.900000E-01   1.00800           0
      1675 MEMB     56       OSM      C9F      CEL1    -0.150000       12.0110           0
      1676 MEMB     56       OSM      H9F      HEL1     0.150000       1.00800           0
      1677 MEMB     56       OSM      C10F     CEL1    -0.150000       12.0110           0
      1678 MEMB     56       OSM      H10F     HEL1     0.150000       1.00800           0
      1679 MEMB     56       OSM      C11F     CTL2    -0.180000       12.0110           0
      1680 MEMB     56       OSM      H11F     HAL2     0.900000E-01   1.00800           0
      1681 MEMB     56       OSM      H11G     HAL2     0.900000E-01   1.00800           0
      1682 MEMB     56       OSM      C12F     CTL2    -0.180000       12.0110           0
      1683 MEMB     56       OSM      H12F     HAL2     0.900000E-01   1.00800           0
      1684 MEMB     56       OSM      H12G     HAL2     0.900000E-01   1.00800           0
      1685 MEMB     56       OSM      C13F     CTL2    -0.180000       12.0110           0
      1686 MEMB     56       OSM      H13F     HAL2     0.900000E-01   1.00800           0
      1687 MEMB     56       OSM      H13G     HAL2     0.900000E-01   1.00800           0
      1688 MEMB     56       OSM      C14F     CTL2    -0.180000       12.0110           0
      1689 MEMB     56       OSM      H14F     HAL2     0.900000E-01   1.00800           0
      1690 MEMB     56       OSM      H14G     HAL2     0.900000E-01   1.00800           0
      1691 MEMB     56       OSM      C15F     CTL2    -0.180000       12.0110           0
      1692 MEMB     56       OSM      H15F     HAL2     0.900000E-01   1.00800           0
      1693 MEMB     56       OSM      H15G     HAL2     0.900000E-01   1.00800           0
      1694 MEMB     56       OSM      C16F     CTL2    -0.180000       12.0110           0
      1695 MEMB     56       OSM      H16F     HAL2     0.900000E-01   1.00800           0
      1696 MEMB     56       OSM      H16G     HAL2     0.900000E-01   1.00800           0
      1697 MEMB     56       OSM      C17F     CTL2    -0.180000       12.0110           0
      1698 MEMB     56       OSM      H17F     HAL2     0.900000E-01   1.00800           0
      1699 MEMB     56       OSM      H17G     HAL2     0.900000E-01   1.00800           0
      1700 MEMB     56       OSM      C18F     CTL3    -0.270000       12.0110           0
      1701 MEMB     56       OSM      H18F     HAL3     0.900000E-01   1.00800           0
      1702 MEMB     56       OSM      H18G     HAL3     0.900000E-01   1.00800           0
      1703 MEMB     56       OSM      H18H     HAL3     0.900000E-01   1.00800           0
      1704 MEMB     63       OSM      N        NTL     -0.600000       14.0070           0
      1705 MEMB     63       OSM      C15      CTL5    -0.350000       12.0110           0
      1706 MEMB     63       OSM      H15A     HL       0.250000       1.00800           0
      1707 MEMB     63       OSM      H15B     HL       0.250000       1.00800           0
      1708 MEMB     63       OSM      H15C     HL       0.250000       1.00800           0
      1709 MEMB     63       OSM      C14      CTL5    -0.350000       12.0110           0
      1710 MEMB     63       OSM      H14A     HL       0.250000       1.00800           0
      1711 MEMB     63       OSM      H14B     HL       0.250000       1.00800           0
      1712 MEMB     63       OSM      H14C     HL       0.250000       1.00800           0
      1713 MEMB     63       OSM      C13      CTL5    -0.350000       12.0110           0
      1714 MEMB     63       OSM      H13A     HL       0.250000       1.00800           0
      1715 MEMB     63       OSM      H13B     HL       0.250000       1.00800           0
      1716 MEMB     63       OSM      H13C     HL       0.250000       1.00800           0
      1717 MEMB     63       OSM      C12      CTL2    -0.100000       12.0110           0
      1718 MEMB     63       OSM      H12A     HL       0.250000       1.00800           0
      1719 MEMB     63       OSM      H12B     HL       0.250000       1.00800           0
      1720 MEMB     63       OSM      C11      CTL2    -0.800000E-01   12.0110           0
      1721 MEMB     63       OSM      H11A     HAL2     0.900000E-01   1.00800           0
      1722 MEMB     63       OSM      H11B     HAL2     0.900000E-01   1.00800           0
      1723 MEMB     63       OSM      P        PL       1.500000       30.9740           0
      1724 MEMB     63       OSM      O13      O2L     -0.780000       15.9994           0
      1725 MEMB     63       OSM      O14      O2L     -0.780000       15.9994           0
      1726 MEMB     63       OSM      O11      OSLP    -0.570000       15.9994           0
      1727 MEMB     63       OSM      O12      OSLP    -0.570000       15.9994           0
      1728 MEMB     63       OSM      C1S      CTL2    -0.800000E-01   12.0110           0
      1729 MEMB     63       OSM      H1S      HAL2     0.900000E-01   1.00800           0
      1730 MEMB     63       OSM      H1T      HAL2     0.900000E-01   1.00800           0
      1731 MEMB     63       OSM      NF       NHL     -0.700000       14.0070           0
      1732 MEMB     63       OSM      HNF      H        0.350000       1.00800           0
      1733 MEMB     63       OSM      C2S      CTL1     0.300000       12.0110           0
      1734 MEMB     63       OSM      H2S      HAL1     0.500000E-01   1.00800           0
      1735 MEMB     63       OSM      C3S      CTO1     0.500000       12.0110           0
      1736 MEMB     63       OSM      H3S      HAL1    -0.110000       1.00800           0
      1737 MEMB     63       OSM      O3       OHL     -0.690000       15.9994           0
      1738 MEMB     63       OSM      HO3      HOL      0.300000       1.00800           0
      1739 MEMB     63       OSM      C4S      CEL3    -0.150000       12.0110           0
      1740 MEMB     63       OSM      H4S      HEL1     0.150000       1.00800           0
      1741 MEMB     63       OSM      C5S      CEL3    -0.150000       12.0110           0
      1742 MEMB     63       OSM      H5S      HEL1     0.150000       1.00800           0
      1743 MEMB     63       OSM      C6S      CTL2    -0.180000       12.0110           0
      1744 MEMB     63       OSM      H6S      HAL2     0.900000E-01   1.00800           0
      1745 MEMB     63       OSM      H6T      HAL2     0.900000E-01   1.00800           0
      1746 MEMB     63       OSM      C7S      CTL2    -0.180000       12.0110           0
      1747 MEMB     63       OSM      H7S      HAL2     0.900000E-01   1.00800           0
      1748 MEMB     63       OSM      H7T      HAL2     0.900000E-01   1.00800           0
      1749 MEMB     63       OSM      C8S      CTL2    -0.180000       12.0110           0
      1750 MEMB     63       OSM      H8S      HAL2     0.900000E-01   1.00800           0
      1751 MEMB     63       OSM      H8T      HAL2     0.900000E-01   1.00800           0
      1752 MEMB     63       OSM      C9S      CTL2    -0.180000       12.0110           0
      1753 MEMB     63       OSM      H9S      HAL2     0.900000E-01   1.00800           0
      1754 MEMB     63       OSM      H9T      HAL2     0.900000E-01   1.00800           0
      1755 MEMB     63       OSM      C10S     CTL2    -0.180000       12.0110           0
      1756 MEMB     63       OSM      H10S     HAL2     0.900000E-01   1.00800           0
      1757 MEMB     63       OSM      H10T     HAL2     0.900000E-01   1.00800           0
      1758 MEMB     63       OSM      C11S     CTL2    -0.180000       12.0110           0
      1759 MEMB     63       OSM      H11S     HAL2     0.900000E-01   1.00800           0
      1760 MEMB     63       OSM      H11T     HAL2     0.900000E-01   1.00800           0
      1761 MEMB     63       OSM      C12S     CTL2    -0.180000       12.0110           0
      1762 MEMB     63       OSM      H12S     HAL2     0.900000E-01   1.00800           0
      1763 MEMB     63       OSM      H12T     HAL2     0.900000E-01   1.00800           0
      1764 MEMB     63       OSM      C13S     CTL2    -0.180000       12.0110           0
      1765 MEMB     63       OSM      H13S     HAL2     0.900000E-01   1.00800           0
      1766 MEMB     63       OSM      H13T     HAL2     0.900000E-01   1.00800           0
      1767 MEMB     63       OSM      C14S     CTL2    -0.180000       12.0110           0
      1768 MEMB     63       OSM      H14S     HAL2     0.900000E-01   1.00800           0
      1769 MEMB     63       OSM      H14T     HAL2     0.900000E-01   1.00800           0
      1770 MEMB     63       OSM      C15S     CTL2    -0.180000       12.0110           0
      1771 MEMB     63       OSM      H15S     HAL2     0.900000E-01   1.00800           0
      1772 MEMB     63       OSM      H15T     HAL2     0.900000E-01   1.00800           0
      1773 MEMB     63       OSM      C16S     CTL2    -0.180000       12.0110           0
      1774 MEMB     63       OSM      H16S     HAL2     0.900000E-01   1.00800           0
      1775 MEMB     63       OSM      H16T     HAL2     0.900000E-01   1.00800           0
      1776 MEMB     63       OSM      C17S     CTL2    -0.180000       12.0110           0
      1777 MEMB     63       OSM      H17S     HAL2     0.900000E-01   1.00800           0
      1778 MEMB     63       OSM      H17T     HAL2     0.900000E-01   1.00800           0
      1779 MEMB     63       OSM      C18S     CTL3    -0.270000       12.0110           0
      1780 MEMB     63       OSM      H18S     HAL3     0.900000E-01   1.00800           0
      1781 MEMB     63       OSM      H18T     HAL3     0.900000E-01   1.00800           0
      1782 MEMB     63       OSM      H18U     HAL3     0.900000E-01   1.00800           0
      1783 MEMB     63       OSM      C1F      C        0.550000       12.0110           0
      1784 MEMB     63       OSM      OF       O       -0.600000       15.9994           0
      1785 MEMB     63       OSM      C2F      CTL2    -0.700000E-01   12.0110           0
      1786 MEMB     63       OSM      H2F      HAL2     0.600000E-01   1.00800           0
      1787 MEMB     63       OSM      H2G      HAL2     0.600000E-01   1.00800           0
      1788 MEMB     63       OSM      C3F      CTL2    -0.180000       12.0110           0
      1789 MEMB     63       OSM      H3F      HAL2     0.900000E-01   1.00800           0
      1790 MEMB     63       OSM      H3G      HAL2     0.900000E-01   1.00800           0
      1791 MEMB     63       OSM      C4F      CTL2    -0.180000       12.0110           0
      1792 MEMB     63       OSM      H4F      HAL2     0.900000E-01   1.00800           0
      1793 MEMB     63       OSM      H4G      HAL2     0.900000E-01   1.00800           0
      1794 MEMB     63       OSM      C5F      CTL2    -0.180000       12.0110           0
      1795 MEMB     63       OSM      H5F      HAL2     0.900000E-01   1.00800           0
      1796 MEMB     63       OSM      H5G      HAL2     0.900000E-01   1.00800           0
      1797 MEMB     63       OSM      C6F      CTL2    -0.180000       12.0110           0
      1798 MEMB     63       OSM      H6F      HAL2     0.900000E-01   1.00800           0
      1799 MEMB     63       OSM      H6G      HAL2     0.900000E-01   1.00800           0
      1800 MEMB     63       OSM      C7F      CTL2    -0.180000       12.0110           0
      1801 MEMB     63       OSM      H7F      HAL2     0.900000E-01   1.00800           0
      1802 MEMB     63       OSM      H7G      HAL2     0.900000E-01   1.00800           0
      1803 MEMB     63       OSM      C8F      CTL2    -0.180000       12.0110           0
      1804 MEMB     63       OSM      H8F      HAL2     0.900000E-01   1.00800           0
      1805 MEMB     63       OSM      H8G      HAL2     0.900000E-01   1.00800           0
      1806 MEMB     63       OSM      C9F      CEL1    -0.150000       12.0110           0
      1807 MEMB     63       OSM      H9F      HEL1     0.150000       1.00800           0
      1808 MEMB     63       OSM      C10F     CEL1    -0.150000       12.0110           0
      1809 MEMB     63       OSM      H10F     HEL1     0.150000       1.00800           0
      1810 MEMB     63       OSM      C11F     CTL2    -0.180000       12.0110           0
      1811 MEMB     63       OSM      H11F     HAL2     0.900000E-01   1.00800           0
      1812 MEMB     63       OSM      H11G     HAL2     0.900000E-01   1.00800           0
      1813 MEMB     63       OSM      C12F     CTL2    -0.180000       12.0110           0
      1814 MEMB     63       OSM      H12F     HAL2     0.900000E-01   1.00800           0
      1815 MEMB     63       OSM      H12G     HAL2     0.900000E-01   1.00800           0
      1816 MEMB     63       OSM      C13F     CTL2    -0.180000       12.0110           0
      1817 MEMB     63       OSM      H13F     HAL2     0.900000E-01   1.00800           0
      1818 MEMB     63       OSM      H13G     HAL2     0.900000E-01   1.00800           0
      1819 MEMB     63       OSM      C14F     CTL2    -0.180000       12.0110           0
      1820 MEMB     63       OSM      H14F     HAL2     0.900000E-01   1.00800           0
      1821 MEMB     63       OSM      H14G     HAL2     0.900000E-01   1.00800           0
      1822 MEMB     63       OSM      C15F     CTL2    -0.180000       12.0110           0
      1823 MEMB     63       OSM      H15F     HAL2     0.900000E-01   1.00800           0
      1824 MEMB     63       OSM      H15G     HAL2     0.900000E-01   1.00800           0
      1825 MEMB     63       OSM      C16F     CTL2    -0.180000       12.0110           0
      1826 MEMB     63       OSM      H16F     HAL2     0.900000E-01   1.00800           0
      1827 MEMB     63       OSM      H16G     HAL2     0.900000E-01   1.00800           0
      1828 MEMB     63       OSM      C17F     CTL2    -0.180000       12.0110           0
      1829 MEMB     63       OSM      H17F     HAL2     0.900000E-01   1.00800           0
      1830 MEMB     63       OSM      H17G     HAL2     0.900000E-01   1.00800           0
      1831 MEMB     63       OSM      C18F     CTL3    -0.270000       12.0110           0
      1832 MEMB     63       OSM      H18F     HAL3     0.900000E-01   1.00800           0
      1833 MEMB     63       OSM      H18G     HAL3     0.900000E-01   1.00800           0
      1834 MEMB     63       OSM      H18H     HAL3     0.900000E-01   1.00800           0
      1835 MEMB     69       OSM      N        NTL     -0.600000       14.0070           0
      1836 MEMB     69       OSM      C15      CTL5    -0.350000       12.0110           0
      1837 MEMB     69       OSM      H15A     HL       0.250000       1.00800           0
      1838 MEMB     69       OSM      H15B     HL       0.250000       1.00800           0
      1839 MEMB     69       OSM      H15C     HL       0.250000       1.00800           0
      1840 MEMB     69       OSM      C14      CTL5    -0.350000       12.0110           0
      1841 MEMB     69       OSM      H14A     HL       0.250000       1.00800           0
      1842 MEMB     69       OSM      H14B     HL       0.250000       1.00800           0
      1843 MEMB     69       OSM      H14C     HL       0.250000       1.00800           0
      1844 MEMB     69       OSM      C13      CTL5    -0.350000       12.0110           0
      1845 MEMB     69       OSM      H13A     HL       0.250000       1.00800           0
      1846 MEMB     69       OSM      H13B     HL       0.250000       1.00800           0
      1847 MEMB     69       OSM      H13C     HL       0.250000       1.00800           0
      1848 MEMB     69       OSM      C12      CTL2    -0.100000       12.0110           0
      1849 MEMB     69       OSM      H12A     HL       0.250000       1.00800           0
      1850 MEMB     69       OSM      H12B     HL       0.250000       1.00800           0
      1851 MEMB     69       OSM      C11      CTL2    -0.800000E-01   12.0110           0
      1852 MEMB     69       OSM      H11A     HAL2     0.900000E-01   1.00800           0
      1853 MEMB     69       OSM      H11B     HAL2     0.900000E-01   1.00800           0
      1854 MEMB     69       OSM      P        PL       1.500000       30.9740           0
      1855 MEMB     69       OSM      O13      O2L     -0.780000       15.9994           0
      1856 MEMB     69       OSM      O14      O2L     -0.780000       15.9994           0
      1857 MEMB     69       OSM      O11      OSLP    -0.570000       15.9994           0
      1858 MEMB     69       OSM      O12      OSLP    -0.570000       15.9994           0
      1859 MEMB     69       OSM      C1S      CTL2    -0.800000E-01   12.0110           0
      1860 MEMB     69       OSM      H1S      HAL2     0.900000E-01   1.00800           0
      1861 MEMB     69       OSM      H1T      HAL2     0.900000E-01   1.00800           0
      1862 MEMB     69       OSM      NF       NHL     -0.700000       14.0070           0
      1863 MEMB     69       OSM      HNF      H        0.350000       1.00800           0
      1864 MEMB     69       OSM      C2S      CTL1     0.300000       12.0110           0
      1865 MEMB     69       OSM      H2S      HAL1     0.500000E-01   1.00800           0
      1866 MEMB     69       OSM      C3S      CTO1     0.500000       12.0110           0
      1867 MEMB     69       OSM      H3S      HAL1    -0.110000       1.00800           0
      1868 MEMB     69       OSM      O3       OHL     -0.690000       15.9994           0
      1869 MEMB     69       OSM      HO3      HOL      0.300000       1.00800           0
      1870 MEMB     69       OSM      C4S      CEL3    -0.150000       12.0110           0
      1871 MEMB     69       OSM      H4S      HEL1     0.150000       1.00800           0
      1872 MEMB     69       OSM      C5S      CEL3    -0.150000       12.0110           0
      1873 MEMB     69       OSM      H5S      HEL1     0.150000       1.00800           0
      1874 MEMB     69       OSM      C6S      CTL2    -0.180000       12.0110           0
      1875 MEMB     69       OSM      H6S      HAL2     0.900000E-01   1.00800           0
      1876 MEMB     69       OSM      H6T      HAL2     0.900000E-01   1.00800           0
      1877 MEMB     69       OSM      C7S      CTL2    -0.180000       12.0110           0
      1878 MEMB     69       OSM      H7S      HAL2     0.900000E-01   1.00800           0
      1879 MEMB     69       OSM      H7T      HAL2     0.900000E-01   1.00800           0
      1880 MEMB     69       OSM      C8S      CTL2    -0.180000       12.0110           0
      1881 MEMB     69       OSM      H8S      HAL2     0.900000E-01   1.00800           0
      1882 MEMB     69       OSM      H8T      HAL2     0.900000E-01   1.00800           0
      1883 MEMB     69       OSM      C9S      CTL2    -0.180000       12.0110           0
      1884 MEMB     69       OSM      H9S      HAL2     0.900000E-01   1.00800           0
      1885 MEMB     69       OSM      H9T      HAL2     0.900000E-01   1.00800           0
      1886 MEMB     69       OSM      C10S     CTL2    -0.180000       12.0110           0
      1887 MEMB     69       OSM      H10S     HAL2     0.900000E-01   1.00800           0
      1888 MEMB     69       OSM      H10T     HAL2     0.900000E-01   1.00800           0
      1889 MEMB     69       OSM      C11S     CTL2    -0.180000       12.0110           0
      1890 MEMB     69       OSM      H11S     HAL2     0.900000E-01   1.00800           0
      1891 MEMB     69       OSM      H11T     HAL2     0.900000E-01   1.00800           0
      1892 MEMB     69       OSM      C12S     CTL2    -0.180000       12.0110           0
      1893 MEMB     69       OSM      H12S     HAL2     0.900000E-01   1.00800           0
      1894 MEMB     69       OSM      H12T     HAL2     0.900000E-01   1.00800           0
      1895 MEMB     69       OSM      C13S     CTL2    -0.180000       12.0110           0
      1896 MEMB     69       OSM      H13S     HAL2     0.900000E-01   1.00800           0
      1897 MEMB     69       OSM      H13T     HAL2     0.900000E-01   1.00800           0
      1898 MEMB     69       OSM      C14S     CTL2    -0.180000       12.0110           0
      1899 MEMB     69       OSM      H14S     HAL2     0.900000E-01   1.00800           0
      1900 MEMB     69       OSM      H14T     HAL2     0.900000E-01   1.00800           0
      1901 MEMB     69       OSM      C15S     CTL2    -0.180000       12.0110           0
      1902 MEMB     69       OSM      H15S     HAL2     0.900000E-01   1.00800           0
      1903 MEMB     69       OSM      H15T     HAL2     0.900000E-01   1.00800           0
      1904 MEMB     69       OSM      C16S     CTL2    -0.180000       12.0110           0
      1905 MEMB     69       OSM      H16S     HAL2     0.900000E-01   1.00800           0
      1906 MEMB     69       OSM      H16T     HAL2     0.900000E-01   1.00800           0
      1907 MEMB     69       OSM      C17S     CTL2    -0.180000       12.0110           0
      1908 MEMB     69       OSM      H17S     HAL2     0.900000E-01   1.00800           0
      1909 MEMB     69       OSM      H17T     HAL2     0.900000E-01   1.00800           0
      1910 MEMB     69       OSM      C18S     CTL3    -0.270000       12.0110           0
      1911 MEMB     69       OSM      H18S     HAL3     0.900000E-01   1.00800           0
      1912 MEMB     69       OSM      H18T     HAL3     0.900000E-01   1.00800           0
      1913 MEMB     69       OSM      H18U     HAL3     0.900000E-01   1.00800           0
      1914 MEMB     69       OSM      C1F      C        0.550000       12.0110           0
      1915 MEMB     69       OSM      OF       O       -0.600000       15.9994           0
      1916 MEMB     69       OSM      C2F      CTL2    -0.700000E-01   12.0110           0
      1917 MEMB     69       OSM      H2F      HAL2     0.600000E-01   1.00800           0
      1918 MEMB     69       OSM      H2G      HAL2     0.600000E-01   1.00800           0
      1919 MEMB     69       OSM      C3F      CTL2    -0.180000       12.0110           0
      1920 MEMB     69       OSM      H3F      HAL2     0.900000E-01   1.00800           0
      1921 MEMB     69       OSM      H3G      HAL2     0.900000E-01   1.00800           0
      1922 MEMB     69       OSM      C4F      CTL2    -0.180000       12.0110           0
      1923 MEMB     69       OSM      H4F      HAL2     0.900000E-01   1.00800           0
      1924 MEMB     69       OSM      H4G      HAL2     0.900000E-01   1.00800           0
      1925 MEMB     69       OSM      C5F      CTL2    -0.180000       12.0110           0
      1926 MEMB     69       OSM      H5F      HAL2     0.900000E-01   1.00800           0
      1927 MEMB     69       OSM      H5G      HAL2     0.900000E-01   1.00800           0
      1928 MEMB     69       OSM      C6F      CTL2    -0.180000       12.0110           0
      1929 MEMB     69       OSM      H6F      HAL2     0.900000E-01   1.00800           0
      1930 MEMB     69       OSM      H6G      HAL2     0.900000E-01   1.00800           0
      1931 MEMB     69       OSM      C7F      CTL2    -0.180000       12.0110           0
      1932 MEMB     69       OSM      H7F      HAL2     0.900000E-01   1.00800           0
      1933 MEMB     69       OSM      H7G      HAL2     0.900000E-01   1.00800           0
      1934 MEMB     69       OSM      C8F      CTL2    -0.180000       12.0110           0
      1935 MEMB     69       OSM      H8F      HAL2     0.900000E-01   1.00800           0
      1936 MEMB     69       OSM      H8G      HAL2     0.900000E-01   1.00800           0
      1937 MEMB     69       OSM      C9F      CEL1    -0.150000       12.0110           0
      1938 MEMB     69       OSM      H9F      HEL1     0.150000       1.00800           0
      1939 MEMB     69       OSM      C10F     CEL1    -0.150000       12.0110           0
      1940 MEMB     69       OSM      H10F     HEL1     0.150000       1.00800           0
      1941 MEMB     69       OSM      C11F     CTL2    -0.180000       12.0110           0
      1942 MEMB     69       OSM      H11F     HAL2     0.900000E-01   1.00800           0
      1943 MEMB     69       OSM      H11G     HAL2     0.900000E-01   1.00800           0
      1944 MEMB     69       OSM      C12F     CTL2    -0.180000       12.0110           0
      1945 MEMB     69       OSM      H12F     HAL2     0.900000E-01   1.00800           0
      1946 MEMB     69       OSM      H12G     HAL2     0.900000E-01   1.00800           0
      1947 MEMB     69       OSM      C13F     CTL2    -0.180000       12.0110           0
      1948 MEMB     69       OSM      H13F     HAL2     0.900000E-01   1.00800           0
      1949 MEMB     69       OSM      H13G     HAL2     0.900000E-01   1.00800           0
      1950 MEMB     69       OSM      C14F     CTL2    -0.180000       12.0110           0
      1951 MEMB     69       OSM      H14F     HAL2     0.900000E-01   1.00800           0
      1952 MEMB     69       OSM      H14G     HAL2     0.900000E-01   1.00800           0
      1953 MEMB     69       OSM      C15F     CTL2    -0.180000       12.0110           0
      1954 MEMB     69       OSM      H15F     HAL2     0.900000E-01   1.00800           0
      1955 MEMB     69       OSM      H15G     HAL2     0.900000E-01   1.00800           0
      1956 MEMB     69       OSM      C16F     CTL2    -0.180000       12.0110           0
      1957 MEMB     69       OSM      H16F     HAL2     0.900000E-01   1.00800           0
      1958 MEMB     69       OSM      H16G     HAL2     0.900000E-01   1.00800           0
      1959 MEMB     69       OSM      C17F     CTL2    -0.180000       12.0110           0
      1960 MEMB     69       OSM      H17F     HAL2     0.900000E-01   1.00800           0
      1961 MEMB     69       OSM      H17G     HAL2     0.900000E-01   1.00800           0
      1962 MEMB     69       OSM      C18F     CTL3    -0.270000       12.0110           0
      1963 MEMB     69       OSM      H18F     HAL3     0.900000E-01   1.00800           0
      1964 MEMB     69       OSM      H18G     HAL3     0.900000E-01   1.00800           0
      1965 MEMB     69       OSM      H18H     HAL3     0.900000E-01   1.00800           0
      1966 MEMB     72       OSM      N        NTL     -0.600000       14.0070           0
      1967 MEMB     72       OSM      C15      CTL5    -0.350000       12.0110           0
      1968 MEMB     72       OSM      H15A     HL       0.250000       1.00800           0
      1969 MEMB     72       OSM      H15B     HL       0.250000       1.00800           0
      1970 MEMB     72       OSM      H15C     HL       0.250000       1.00800           0
      1971 MEMB     72       OSM      C14      CTL5    -0.350000       12.0110           0
      1972 MEMB     72       OSM      H14A     HL       0.250000       1.00800           0
      1973 MEMB     72       OSM      H14B     HL       0.250000       1.00800           0
      1974 MEMB     72       OSM      H14C     HL       0.250000       1.00800           0
      1975 MEMB     72       OSM      C13      CTL5    -0.350000       12.0110           0
      1976 MEMB     72       OSM      H13A     HL       0.250000       1.00800           0
      1977 MEMB     72       OSM      H13B     HL       0.250000       1.00800           0
      1978 MEMB     72       OSM      H13C     HL       0.250000       1.00800           0
      1979 MEMB     72       OSM      C12      CTL2    -0.100000       12.0110           0
      1980 MEMB     72       OSM      H12A     HL       0.250000       1.00800           0
      1981 MEMB     72       OSM      H12B     HL       0.250000       1.00800           0
      1982 MEMB     72       OSM      C11      CTL2    -0.800000E-01   12.0110           0
      1983 MEMB     72       OSM      H11A     HAL2     0.900000E-01   1.00800           0
      1984 MEMB     72       OSM      H11B     HAL2     0.900000E-01   1.00800           0
      1985 MEMB     72       OSM      P        PL       1.500000       30.9740           0
      1986 MEMB     72       OSM      O13      O2L     -0.780000       15.9994           0
      1987 MEMB     72       OSM      O14      O2L     -0.780000       15.9994           0
      1988 MEMB     72       OSM      O11      OSLP    -0.570000       15.9994           0
      1989 MEMB     72       OSM      O12      OSLP    -0.570000       15.9994           0
      1990 MEMB     72       OSM      C1S      CTL2    -0.800000E-01   12.0110           0
      1991 MEMB     72       OSM      H1S      HAL2     0.900000E-01   1.00800           0
      1992 MEMB     72       OSM      H1T      HAL2     0.900000E-01   1.00800           0
      1993 MEMB     72       OSM      NF       NHL     -0.700000       14.0070           0
      1994 MEMB     72       OSM      HNF      H        0.350000       1.00800           0
      1995 MEMB     72       OSM      C2S      CTL1     0.300000       12.0110           0
      1996 MEMB     72       OSM      H2S      HAL1     0.500000E-01   1.00800           0
      1997 MEMB     72       OSM      C3S      CTO1     0.500000       12.0110           0
      1998 MEMB     72       OSM      H3S      HAL1    -0.110000       1.00800           0
      1999 MEMB     72       OSM      O3       OHL     -0.690000       15.9994           0
      2000 MEMB     72       OSM      HO3      HOL      0.300000       1.00800           0
      2001 MEMB     72       OSM      C4S      CEL3    -0.150000       12.0110           0
      2002 MEMB     72       OSM      H4S      HEL1     0.150000       1.00800           0
      2003 MEMB     72       OSM      C5S      CEL3    -0.150000       12.0110           0
      2004 MEMB     72       OSM      H5S      HEL1     0.150000       1.00800           0
      2005 MEMB     72       OSM      C6S      CTL2    -0.180000       12.0110           0
      2006 MEMB     72       OSM      H6S      HAL2     0.900000E-01   1.00800           0
      2007 MEMB     72       OSM      H6T      HAL2     0.900000E-01   1.00800           0
      2008 MEMB     72       OSM      C7S      CTL2    -0.180000       12.0110           0
      2009 MEMB     72       OSM      H7S      HAL2     0.900000E-01   1.00800           0
      2010 MEMB     72       OSM      H7T      HAL2     0.900000E-01   1.00800           0
      2011 MEMB     72       OSM      C8S      CTL2    -0.180000       12.0110           0
      2012 MEMB     72       OSM      H8S      HAL2     0.900000E-01   1.00800           0
      2013 MEMB     72       OSM      H8T      HAL2     0.900000E-01   1.00800           0
      2014 MEMB     72       OSM      C9S      CTL2    -0.180000       12.0110           0
      2015 MEMB     72       OSM      H9S      HAL2     0.900000E-01   1.00800           0
      2016 MEMB     72       OSM      H9T      HAL2     0.900000E-01   1.00800           0
      2017 MEMB     72       OSM      C10S     CTL2    -0.180000       12.0110           0
      2018 MEMB     72       OSM      H10S     HAL2     0.900000E-01   1.00800           0
      2019 MEMB     72       OSM      H10T     HAL2     0.900000E-01   1.00800           0
      2020 MEMB     72       OSM      C11S     CTL2    -0.180000       12.0110           0
      2021 MEMB     72       OSM      H11S     HAL2     0.900000E-01   1.00800           0
      2022 MEMB     72       OSM      H11T     HAL2     0.900000E-01   1.00800           0
      2023 MEMB     72       OSM      C12S     CTL2    -0.180000       12.0110           0
      2024 MEMB     72       OSM      H12S     HAL2     0.900000E-01   1.00800           0
      2025 MEMB     72       OSM      H12T     HAL2     0.900000E-01   1.00800           0
      2026 MEMB     72       OSM      C13S     CTL2    -0.180000       12.0110           0
      2027 MEMB     72       OSM      H13S     HAL2     0.900000E-01   1.00800           0
      2028 MEMB     72       OSM      H13T     HAL2     0.900000E-01   1.00800           0
      2029 MEMB     72       OSM      C14S     CTL2    -0.180000       12.0110           0
      2030 MEMB     72       OSM      H14S     HAL2     0.900000E-01   1.00800           0
      2031 MEMB     72       OSM      H14T     HAL2     0.900000E-01   1.00800           0
      2032 MEMB     72       OSM      C15S     CTL2    -0.180000       12.0110           0
      2033 MEMB     72       OSM      H15S     HAL2     0.900000E-01   1.00800           0
      2034 MEMB     72       OSM      H15T     HAL2     0.900000E-01   1.00800           0
      2035 MEMB     72       OSM      C16S     CTL2    -0.180000       12.0110           0
      2036 MEMB     72       OSM      H16S     HAL2     0.900000E-01   1.00800           0
      2037 MEMB     72       OSM      H16T     HAL2     0.900000E-01   1.00800           0
      2038 MEMB     72       OSM      C17S     CTL2    -0.180000       12.0110           0
      2039 MEMB     72       OSM      H17S     HAL2     0.900000E-01   1.00800           0
      2040 MEMB     72       OSM      H17T     HAL2     0.900000E-01   1.00800           0
      2041 MEMB     72       OSM      C18S     CTL3    -0.270000       12.0110           0
      2042 MEMB     72       OSM      H18S     HAL3     0.900000E-01   1.00800           0
      2043 MEMB     72       OSM      H18T     HAL3     0.900000E-01   1.00800           0
      2044 MEMB     72       OSM      H18U     HAL3     0.900000E-01   1.00800           0
      2045 MEMB     72       OSM      C1F      C        0.550000       12.0110           0
      2046 MEMB     72       OSM      OF       O       -0.600000       15.9994           0
      2047 MEMB     72       OSM      C2F      CTL2    -0.700000E-01   12.0110           0
      2048 MEMB     72       OSM      H2F      HAL2     0.600000E-01   1.00800           0
      2049 MEMB     72       OSM      H2G      HAL2     0.600000E-01   1.00800           0
      2050 MEMB     72       OSM      C3F      CTL2    -0.180000       12.0110           0
      2051 MEMB     72       OSM      H3F      HAL2     0.900000E-01   1.00800           0
      2052 MEMB     72       OSM      H3G      HAL2     0.900000E-01   1.00800           0
      2053 MEMB     72       OSM      C4F      CTL2    -0.180000       12.0110           0
      2054 MEMB     72       OSM      H4F      HAL2     0.900000E-01   1.00800           0
      2055 MEMB     72       OSM      H4G      HAL2     0.900000E-01   1.00800           0
      2056 MEMB     72       OSM      C5F      CTL2    -0.180000       12.0110           0
      2057 MEMB     72       OSM      H5F      HAL2     0.900000E-01   1.00800           0
      2058 MEMB     72       OSM      H5G      HAL2     0.900000E-01   1.00800           0
      2059 MEMB     72       OSM      C6F      CTL2    -0.180000       12.0110           0
      2060 MEMB     72       OSM      H6F      HAL2     0.900000E-01   1.00800           0
      2061 MEMB     72       OSM      H6G      HAL2     0.900000E-01   1.00800           0
      2062 MEMB     72       OSM      C7F      CTL2    -0.180000       12.0110           0
      2063 MEMB     72       OSM      H7F      HAL2     0.900000E-01   1.00800           0
      2064 MEMB     72       OSM      H7G      HAL2     0.900000E-01   1.00800           0
      2065 MEMB     72       OSM      C8F      CTL2    -0.180000       12.0110           0
      2066 MEMB     72       OSM      H8F      HAL2     0.900000E-01   1.00800           0
      2067 MEMB     72       OSM      H8G      HAL2     0.900000E-01   1.00800           0
      2068 MEMB     72       OSM      C9F      CEL1    -0.150000       12.0110           0
      2069 MEMB     72       OSM      H9F      HEL1     0.150000       1.00800           0
      2070 MEMB     72       OSM      C10F     CEL1    -0.150000       12.0110           0
      2071 MEMB     72       OSM      H10F     HEL1     0.150000       1.00800           0
      2072 MEMB     72       OSM      C11F     CTL2    -0.180000       12.0110           0
      2073 MEMB     72       OSM      H11F     HAL2     0.900000E-01   1.00800           0
      2074 MEMB     72       OSM      H11G     HAL2     0.900000E-01   1.00800           0
      2075 MEMB     72       OSM      C12F     CTL2    -0.180000       12.0110           0
      2076 MEMB     72       OSM      H12F     HAL2     0.900000E-01   1.00800           0
      2077 MEMB     72       OSM      H12G     HAL2     0.900000E-01   1.00800           0
      2078 MEMB     72       OSM      C13F     CTL2    -0.180000       12.0110           0
      2079 MEMB     72       OSM      H13F     HAL2     0.900000E-01   1.00800           0
      2080 MEMB     72       OSM      H13G     HAL2     0.900000E-01   1.00800           0
      2081 MEMB     72       OSM      C14F     CTL2    -0.180000       12.0110           0
      2082 MEMB     72       OSM      H14F     HAL2     0.900000E-01   1.00800           0
      2083 MEMB     72       OSM      H14G     HAL2     0.900000E-01   1.00800           0
      2084 MEMB     72       OSM      C15F     CTL2    -0.180000       12.0110           0
      2085 MEMB     72       OSM      H15F     HAL2     0.900000E-01   1.00800           0
      2086 MEMB     72       OSM      H15G     HAL2     0.900000E-01   1.00800           0
      2087 MEMB     72       OSM      C16F     CTL2    -0.180000       12.0110           0
      2088 MEMB     72       OSM      H16F     HAL2     0.900000E-01   1.00800           0
      2089 MEMB     72       OSM      H16G     HAL2     0.900000E-01   1.00800           0
      2090 MEMB     72       OSM      C17F     CTL2    -0.180000       12.0110           0
      2091 MEMB     72       OSM      H17F     HAL2     0.900000E-01   1.00800           0
      2092 MEMB     72       OSM      H17G     HAL2     0.900000E-01   1.00800           0
      2093 MEMB     72       OSM      C18F     CTL3    -0.270000       12.0110           0
      2094 MEMB     72       OSM      H18F     HAL3     0.900000E-01   1.00800           0
      2095 MEMB     72       OSM      H18G     HAL3     0.900000E-01   1.00800           0
      2096 MEMB     72       OSM      H18H     HAL3     0.900000E-01   1.00800           0
      2097 MEMB     77       OSM      N        NTL     -0.600000       14.0070           0
      2098 MEMB     77       OSM      C15      CTL5    -0.350000       12.0110           0
      2099 MEMB     77       OSM      H15A     HL       0.250000       1.00800           0
      2100 MEMB     77       OSM      H15B     HL       0.250000       1.00800           0
      2101 MEMB     77       OSM      H15C     HL       0.250000       1.00800           0
      2102 MEMB     77       OSM      C14      CTL5    -0.350000       12.0110           0
      2103 MEMB     77       OSM      H14A     HL       0.250000       1.00800           0
      2104 MEMB     77       OSM      H14B     HL       0.250000       1.00800           0
      2105 MEMB     77       OSM      H14C     HL       0.250000       1.00800           0
      2106 MEMB     77       OSM      C13      CTL5    -0.350000       12.0110           0
      2107 MEMB     77       OSM      H13A     HL       0.250000       1.00800           0
      2108 MEMB     77       OSM      H13B     HL       0.250000       1.00800           0
      2109 MEMB     77       OSM      H13C     HL       0.250000       1.00800           0
      2110 MEMB     77       OSM      C12      CTL2    -0.100000       12.0110           0
      2111 MEMB     77       OSM      H12A     HL       0.250000       1.00800           0
      2112 MEMB     77       OSM      H12B     HL       0.250000       1.00800           0
      2113 MEMB     77       OSM      C11      CTL2    -0.800000E-01   12.0110           0
      2114 MEMB     77       OSM      H11A     HAL2     0.900000E-01   1.00800           0
      2115 MEMB     77       OSM      H11B     HAL2     0.900000E-01   1.00800           0
      2116 MEMB     77       OSM      P        PL       1.500000       30.9740           0
      2117 MEMB     77       OSM      O13      O2L     -0.780000       15.9994           0
      2118 MEMB     77       OSM      O14      O2L     -0.780000       15.9994           0
      2119 MEMB     77       OSM      O11      OSLP    -0.570000       15.9994           0
      2120 MEMB     77       OSM      O12      OSLP    -0.570000       15.9994           0
      2121 MEMB     77       OSM      C1S      CTL2    -0.800000E-01   12.0110           0
      2122 MEMB     77       OSM      H1S      HAL2     0.900000E-01   1.00800           0
      2123 MEMB     77       OSM      H1T      HAL2     0.900000E-01   1.00800           0
      2124 MEMB     77       OSM      NF       NHL     -0.700000       14.0070           0
      2125 MEMB     77       OSM      HNF      H        0.350000       1.00800           0
      2126 MEMB     77       OSM      C2S      CTL1     0.300000       12.0110           0
      2127 MEMB     77       OSM      H2S      HAL1     0.500000E-01   1.00800           0
      2128 MEMB     77       OSM      C3S      CTO1     0.500000       12.0110           0
      2129 MEMB     77       OSM      H3S      HAL1    -0.110000       1.00800           0
      2130 MEMB     77       OSM      O3       OHL     -0.690000       15.9994           0
      2131 MEMB     77       OSM      HO3      HOL      0.300000       1.00800           0
      2132 MEMB     77       OSM      C4S      CEL3    -0.150000       12.0110           0
      2133 MEMB     77       OSM      H4S      HEL1     0.150000       1.00800           0
      2134 MEMB     77       OSM      C5S      CEL3    -0.150000       12.0110           0
      2135 MEMB     77       OSM      H5S      HEL1     0.150000       1.00800           0
      2136 MEMB     77       OSM      C6S      CTL2    -0.180000       12.0110           0
      2137 MEMB     77       OSM      H6S      HAL2     0.900000E-01   1.00800           0
      2138 MEMB     77       OSM      H6T      HAL2     0.900000E-01   1.00800           0
      2139 MEMB     77       OSM      C7S      CTL2    -0.180000       12.0110           0
      2140 MEMB     77       OSM      H7S      HAL2     0.900000E-01   1.00800           0
      2141 MEMB     77       OSM      H7T      HAL2     0.900000E-01   1.00800           0
      2142 MEMB     77       OSM      C8S      CTL2    -0.180000       12.0110           0
      2143 MEMB     77       OSM      H8S      HAL2     0.900000E-01   1.00800           0
      2144 MEMB     77       OSM      H8T      HAL2     0.900000E-01   1.00800           0
      2145 MEMB     77       OSM      C9S      CTL2    -0.180000       12.0110           0
      2146 MEMB     77       OSM      H9S      HAL2     0.900000E-01   1.00800           0
      2147 MEMB     77       OSM      H9T      HAL2     0.900000E-01   1.00800           0
      2148 MEMB     77       OSM      C10S     CTL2    -0.180000       12.0110           0
      2149 MEMB     77       OSM      H10S     HAL2     0.900000E-01   1.00800           0
      2150 MEMB     77       OSM      H10T     HAL2     0.900000E-01   1.00800           0
      2151 MEMB     77       OSM      C11S     CTL2    -0.180000       12.0110           0
      2152 MEMB     77       OSM      H11S     HAL2     0.900000E-01   1.00800           0
      2153 MEMB     77       OSM      H11T     HAL2     0.900000E-01   1.00800           0
      2154 MEMB     77       OSM      C12S     CTL2    -0.180000       12.0110           0
      2155 MEMB     77       OSM      H12S     HAL2     0.900000E-01   1.00800           0
      2156 MEMB     77       OSM      H12T     HAL2     0.900000E-01   1.00800           0
      2157 MEMB     77       OSM      C13S     CTL2    -0.180000       12.0110           0
      2158 MEMB     77       OSM      H13S     HAL2     0.900000E-01   1.00800           0
      2159 MEMB     77       OSM      H13T     HAL2     0.900000E-01   1.00800           0
      2160 MEMB     77       OSM      C14S     CTL2    -0.180000       12.0110           0
      2161 MEMB     77       OSM      H14S     HAL2     0.900000E-01   1.00800           0
      2162 MEMB     77       OSM      H14T     HAL2     0.900000E-01   1.00800           0
      2163 MEMB     77       OSM      C15S     CTL2    -0.180000       12.0110           0
      2164 MEMB     77       OSM      H15S     HAL2     0.900000E-01   1.00800           0
      2165 MEMB     77       OSM      H15T     HAL2     0.900000E-01   1.00800           0
      2166 MEMB     77       OSM      C16S     CTL2    -0.180000       12.0110           0
      2167 MEMB     77       OSM      H16S     HAL2     0.900000E-01   1.00800           0
      2168 MEMB     77       OSM      H16T     HAL2     0.900000E-01   1.00800           0
      2169 MEMB     77       OSM      C17S     CTL2    -0.180000       12.0110           0
      2170 MEMB     77       OSM      H17S     HAL2     0.900000E-01   1.00800           0
      2171 MEMB     77       OSM      H17T     HAL2     0.900000E-01   1.00800           0
      2172 MEMB     77       OSM      C18S     CTL3    -0.270000       12.0110           0
      2173 MEMB     77       OSM      H18S     HAL3     0.900000E-01   1.00800           0
      2174 MEMB     77       OSM      H18T     HAL3     0.900000E-01   1.00800           0
      2175 MEMB     77       OSM      H18U     HAL3     0.900000E-01   1.00800           0
      2176 MEMB     77       OSM      C1F      C        0.550000       12.0110           0
      2177 MEMB     77       OSM      OF       O       -0.600000       15.9994           0
      2178 MEMB     77       OSM      C2F      CTL2    -0.700000E-01   12.0110           0
      2179 MEMB     77       OSM      H2F      HAL2     0.600000E-01   1.00800           0
      2180 MEMB     77       OSM      H2G      HAL2     0.600000E-01   1.00800           0
      2181 MEMB     77       OSM      C3F      CTL2    -0.180000       12.0110           0
      2182 MEMB     77       OSM      H3F      HAL2     0.900000E-01   1.00800           0
      2183 MEMB     77       OSM      H3G      HAL2     0.900000E-01   1.00800           0
      2184 MEMB     77       OSM      C4F      CTL2    -0.180000       12.0110           0
      2185 MEMB     77       OSM      H4F      HAL2     0.900000E-01   1.00800           0
      2186 MEMB     77       OSM      H4G      HAL2     0.900000E-01   1.00800           0
      2187 MEMB     77       OSM      C5F      CTL2    -0.180000       12.0110           0
      2188 MEMB     77       OSM      H5F      HAL2     0.900000E-01   1.00800           0
      2189 MEMB     77       OSM      H5G      HAL2     0.900000E-01   1.00800           0
      2190 MEMB     77       OSM      C6F      CTL2    -0.180000       12.0110           0
      2191 MEMB     77       OSM      H6F      HAL2     0.900000E-01   1.00800           0
      2192 MEMB     77       OSM      H6G      HAL2     0.900000E-01   1.00800           0
      2193 MEMB     77       OSM      C7F      CTL2    -0.180000       12.0110           0
      2194 MEMB     77       OSM      H7F      HAL2     0.900000E-01   1.00800           0
      2195 MEMB     77       OSM      H7G      HAL2     0.900000E-01   1.00800           0
      2196 MEMB     77       OSM      C8F      CTL2    -0.180000       12.0110           0
      2197 MEMB     77       OSM      H8F      HAL2     0.900000E-01   1.00800           0
      2198 MEMB     77       OSM      H8G      HAL2     0.900000E-01   1.00800           0
      2199 MEMB     77       OSM      C9F      CEL1    -0.150000       12.0110           0
      2200 MEMB     77       OSM      H9F      HEL1     0.150000       1.00800           0
      2201 MEMB     77       OSM      C10F     CEL1    -0.150000       12.0110           0
      2202 MEMB     77       OSM      H10F     HEL1     0.150000       1.00800           0
      2203 MEMB     77       OSM      C11F     CTL2    -0.180000       12.0110           0
      2204 MEMB     77       OSM      H11F     HAL2     0.900000E-01   1.00800           0
      2205 MEMB     77       OSM      H11G     HAL2     0.900000E-01   1.00800           0
      2206 MEMB     77       OSM      C12F     CTL2    -0.180000       12.0110           0
      2207 MEMB     77       OSM      H12F     HAL2     0.900000E-01   1.00800           0
      2208 MEMB     77       OSM      H12G     HAL2     0.900000E-01   1.00800           0
      2209 MEMB     77       OSM      C13F     CTL2    -0.180000       12.0110           0
      2210 MEMB     77       OSM      H13F     HAL2     0.900000E-01   1.00800           0
      2211 MEMB     77       OSM      H13G     HAL2     0.900000E-01   1.00800           0
      2212 MEMB     77       OSM      C14F     CTL2    -0.180000       12.0110           0
      2213 MEMB     77       OSM      H14F     HAL2     0.900000E-01   1.00800           0
      2214 MEMB     77       OSM      H14G     HAL2     0.900000E-01   1.00800           0
      2215 MEMB     77       OSM      C15F     CTL2    -0.180000       12.0110           0
      2216 MEMB     77       OSM      H15F     HAL2     0.900000E-01   1.00800           0
      2217 MEMB     77       OSM      H15G     HAL2     0.900000E-01   1.00800           0
      2218 MEMB     77       OSM      C16F     CTL2    -0.180000       12.0110           0
      2219 MEMB     77       OSM      H16F     HAL2     0.900000E-01   1.00800           0
      2220 MEMB     77       OSM      H16G     HAL2     0.900000E-01   1.00800           0
      2221 MEMB     77       OSM      C17F     CTL2    -0.180000       12.0110           0
      2222 MEMB     77       OSM      H17F     HAL2     0.900000E-01   1.00800           0
      2223 MEMB     77       OSM      H17G     HAL2     0.900000E-01   1.00800           0
      2224 MEMB     77       OSM      C18F     CTL3    -0.270000       12.0110           0
      2225 MEMB     77       OSM      H18F     HAL3     0.900000E-01   1.00800           0
      2226 MEMB     77       OSM      H18G     HAL3     0.900000E-01   1.00800           0
      2227 MEMB     77       OSM      H18H     HAL3     0.900000E-01   1.00800           0
      2228 MEMB     84       OSM      N        NTL     -0.600000       14.0070           0
      2229 MEMB     84       OSM      C15      CTL5    -0.350000       12.0110           0
      2230 MEMB     84       OSM      H15A     HL       0.250000       1.00800           0
      2231 MEMB     84       OSM      H15B     HL       0.250000       1.00800           0
      2232 MEMB     84       OSM      H15C     HL       0.250000       1.00800           0
      2233 MEMB     84       OSM      C14      CTL5    -0.350000       12.0110           0
      2234 MEMB     84       OSM      H14A     HL       0.250000       1.00800           0
      2235 MEMB     84       OSM      H14B     HL       0.250000       1.00800           0
      2236 MEMB     84       OSM      H14C     HL       0.250000       1.00800           0
      2237 MEMB     84       OSM      C13      CTL5    -0.350000       12.0110           0
      2238 MEMB     84       OSM      H13A     HL       0.250000       1.00800           0
      2239 MEMB     84       OSM      H13B     HL       0.250000       1.00800           0
      2240 MEMB     84       OSM      H13C     HL       0.250000       1.00800           0
      2241 MEMB     84       OSM      C12      CTL2    -0.100000       12.0110           0
      2242 MEMB     84       OSM      H12A     HL       0.250000       1.00800           0
      2243 MEMB     84       OSM      H12B     HL       0.250000       1.00800           0
      2244 MEMB     84       OSM      C11      CTL2    -0.800000E-01   12.0110           0
      2245 MEMB     84       OSM      H11A     HAL2     0.900000E-01   1.00800           0
      2246 MEMB     84       OSM      H11B     HAL2     0.900000E-01   1.00800           0
      2247 MEMB     84       OSM      P        PL       1.500000       30.9740           0
      2248 MEMB     84       OSM      O13      O2L     -0.780000       15.9994           0
      2249 MEMB     84       OSM      O14      O2L     -0.780000       15.9994           0
      2250 MEMB     84       OSM      O11      OSLP    -0.570000       15.9994           0
      2251 MEMB     84       OSM      O12      OSLP    -0.570000       15.9994           0
      2252 MEMB     84       OSM      C1S      CTL2    -0.800000E-01   12.0110           0
      2253 MEMB     84       OSM      H1S      HAL2     0.900000E-01   1.00800           0
      2254 MEMB     84       OSM      H1T      HAL2     0.900000E-01   1.00800           0
      2255 MEMB     84       OSM      NF       NHL     -0.700000       14.0070           0
      2256 MEMB     84       OSM      HNF      H        0.350000       1.00800           0
      2257 MEMB     84       OSM      C2S      CTL1     0.300000       12.0110           0
      2258 MEMB     84       OSM      H2S      HAL1     0.500000E-01   1.00800           0
      2259 MEMB     84       OSM      C3S      CTO1     0.500000       12.0110           0
      2260 MEMB     84       OSM      H3S      HAL1    -0.110000       1.00800           0
      2261 MEMB     84       OSM      O3       OHL     -0.690000       15.9994           0
      2262 MEMB     84       OSM      HO3      HOL      0.300000       1.00800           0
      2263 MEMB     84       OSM      C4S      CEL3    -0.150000       12.0110           0
      2264 MEMB     84       OSM      H4S      HEL1     0.150000       1.00800           0
      2265 MEMB     84       OSM      C5S      CEL3    -0.150000       12.0110           0
      2266 MEMB     84       OSM      H5S      HEL1     0.150000       1.00800           0
      2267 MEMB     84       OSM      C6S      CTL2    -0.180000       12.0110           0
      2268 MEMB     84       OSM      H6S      HAL2     0.900000E-01   1.00800           0
      2269 MEMB     84       OSM      H6T      HAL2     0.900000E-01   1.00800           0
      2270 MEMB     84       OSM      C7S      CTL2    -0.180000       12.0110           0
      2271 MEMB     84       OSM      H7S      HAL2     0.900000E-01   1.00800           0
      2272 MEMB     84       OSM      H7T      HAL2     0.900000E-01   1.00800           0
      2273 MEMB     84       OSM      C8S      CTL2    -0.180000       12.0110           0
      2274 MEMB     84       OSM      H8S      HAL2     0.900000E-01   1.00800           0
      2275 MEMB     84       OSM      H8T      HAL2     0.900000E-01   1.00800           0
      2276 MEMB     84       OSM      C9S      CTL2    -0.180000       12.0110           0
      2277 MEMB     84       OSM      H9S      HAL2     0.900000E-01   1.00800           0
      2278 MEMB     84       OSM      H9T      HAL2     0.900000E-01   1.00800           0
      2279 MEMB     84       OSM      C10S     CTL2    -0.180000       12.0110           0
      2280 MEMB     84       OSM      H10S     HAL2     0.900000E-01   1.00800           0
      2281 MEMB     84       OSM      H10T     HAL2     0.900000E-01   1.00800           0
      2282 MEMB     84       OSM      C11S     CTL2    -0.180000       12.0110           0
      2283 MEMB     84       OSM      H11S     HAL2     0.900000E-01   1.00800           0
      2284 MEMB     84       OSM      H11T     HAL2     0.900000E-01   1.00800           0
      2285 MEMB     84       OSM      C12S     CTL2    -0.180000       12.0110           0
      2286 MEMB     84       OSM      H12S     HAL2     0.900000E-01   1.00800           0
      2287 MEMB     84       OSM      H12T     HAL2     0.900000E-01   1.00800           0
      2288 MEMB     84       OSM      C13S     CTL2    -0.180000       12.0110           0
      2289 MEMB     84       OSM      H13S     HAL2     0.900000E-01   1.00800           0
      2290 MEMB     84       OSM      H13T     HAL2     0.900000E-01   1.00800           0
      2291 MEMB     84       OSM      C14S     CTL2    -0.180000       12.0110           0
      2292 MEMB     84       OSM      H14S     HAL2     0.900000E-01   1.00800           0
      2293 MEMB     84       OSM      H14T     HAL2     0.900000E-01   1.00800           0
      2294 MEMB     84       OSM      C15S     CTL2    -0.180000       12.0110           0
      2295 MEMB     84       OSM      H15S     HAL2     0.900000E-01   1.00800           0
      2296 MEMB     84       OSM      H15T     HAL2     0.900000E-01   1.00800           0
      2297 MEMB     84       OSM      C16S     CTL2    -0.180000       12.0110           0
      2298 MEMB     84       OSM      H16S     HAL2     0.900000E-01   1.00800           0
      2299 MEMB     84       OSM      H16T     HAL2     0.900000E-01   1.00800           0
      2300 MEMB     84       OSM      C17S     CTL2    -0.180000       12.0110           0
      2301 MEMB     84       OSM      H17S     HAL2     0.900000E-01   1.00800           0
      2302 MEMB     84       OSM      H17T     HAL2     0.900000E-01   1.00800           0
      2303 MEMB     84       OSM      C18S     CTL3    -0.270000       12.0110           0
      2304 MEMB     84       OSM      H18S     HAL3     0.900000E-01   1.00800           0
      2305 MEMB     84       OSM      H18T     HAL3     0.900000E-01   1.00800           0
      2306 MEMB     84       OSM      H18U     HAL3     0.900000E-01   1.00800           0
      2307 MEMB     84       OSM      C1F      C        0.550000       12.0110           0
      2308 MEMB     84       OSM      OF       O       -0.600000       15.9994           0
      2309 MEMB     84       OSM      C2F      CTL2    -0.700000E-01   12.0110           0
      2310 MEMB     84       OSM      H2F      HAL2     0.600000E-01   1.00800           0
      2311 MEMB     84       OSM      H2G      HAL2     0.600000E-01   1.00800           0
      2312 MEMB     84       OSM      C3F      CTL2    -0.180000       12.0110           0
      2313 MEMB     84       OSM      H3F      HAL2     0.900000E-01   1.00800           0
      2314 MEMB     84       OSM      H3G      HAL2     0.900000E-01   1.00800           0
      2315 MEMB     84       OSM      C4F      CTL2    -0.180000       12.0110           0
      2316 MEMB     84       OSM      H4F      HAL2     0.900000E-01   1.00800           0
      2317 MEMB     84       OSM      H4G      HAL2     0.900000E-01   1.00800           0
      2318 MEMB     84       OSM      C5F      CTL2    -0.180000       12.0110           0
      2319 MEMB     84       OSM      H5F      HAL2     0.900000E-01   1.00800           0
      2320 MEMB     84       OSM      H5G      HAL2     0.900000E-01   1.00800           0
      2321 MEMB     84       OSM      C6F      CTL2    -0.180000       12.0110           0
      2322 MEMB     84       OSM      H6F      HAL2     0.900000E-01   1.00800           0
      2323 MEMB     84       OSM      H6G      HAL2     0.900000E-01   1.00800           0
      2324 MEMB     84       OSM      C7F      CTL2    -0.180000       12.0110           0
      2325 MEMB     84       OSM      H7F      HAL2     0.900000E-01   1.00800           0
      2326 MEMB     84       OSM      H7G      HAL2     0.900000E-01   1.00800           0
      2327 MEMB     84       OSM      C8F      CTL2    -0.180000       12.0110           0
      2328 MEMB     84       OSM      H8F      HAL2     0.900000E-01   1.00800           0
      2329 MEMB     84       OSM      H8G      HAL2     0.900000E-01   1.00800           0
      2330 MEMB     84       OSM      C9F      CEL1    -0.150000       12.0110           0
      2331 MEMB     84       OSM      H9F      HEL1     0.150000       1.00800           0
      2332 MEMB     84       OSM      C10F     CEL1    -0.150000       12.0110           0
      2333 MEMB     84       OSM      H10F     HEL1     0.150000       1.00800           0
      2334 MEMB     84       OSM      C11F     CTL2    -0.180000       12.0110           0
      2335 MEMB     84       OSM      H11F     HAL2     0.900000E-01   1.00800           0
      2336 MEMB     84       OSM      H11G     HAL2     0.900000E-01   1.00800           0
      2337 MEMB     84       OSM      C12F     CTL2    -0.180000       12.0110           0
      2338 MEMB     84       OSM      H12F     HAL2     0.900000E-01   1.00800           0
      2339 MEMB     84       OSM      H12G     HAL2     0.900000E-01   1.00800           0
      2340 MEMB     84       OSM      C13F     CTL2    -0.180000       12.0110           0
      2341 MEMB     84       OSM      H13F     HAL2     0.900000E-01   1.00800           0
      2342 MEMB     84       OSM      H13G     HAL2     0.900000E-01   1.00800           0
      2343 MEMB     84       OSM      C14F     CTL2    -0.180000       12.0110           0
      2344 MEMB     84       OSM      H14F     HAL2     0.900000E-01   1.00800           0
      2345 MEMB     84       OSM      H14G     HAL2     0.900000E-01   1.00800           0
      2346 MEMB     84       OSM      C15F     CTL2    -0.180000       12.0110           0
      2347 MEMB     84       OSM      H15F     HAL2     0.900000E-01   1.00800           0
      2348 MEMB     84       OSM      H15G     HAL2     0.900000E-01   1.00800           0
      2349 MEMB     84       OSM      C16F     CTL2    -0.180000       12.0110           0
      2350 MEMB     84       OSM      H16F     HAL2     0.900000E-01   1.00800           0
      2351 MEMB     84       OSM      H16G     HAL2     0.900000E-01   1.00800           0
      2352 MEMB     84       OSM      C17F     CTL2    -0.180000       12.0110           0
      2353 MEMB     84       OSM      H17F     HAL2     0.900000E-01   1.00800           0
      2354 MEMB     84       OSM      H17G     HAL2     0.900000E-01   1.00800           0
      2355 MEMB     84       OSM      C18F     CTL3    -0.270000       12.0110           0
      2356 MEMB     84       OSM      H18F     HAL3     0.900000E-01   1.00800           0
      2357 MEMB     84       OSM      H18G     HAL3     0.900000E-01   1.00800           0
      2358 MEMB     84       OSM      H18H     HAL3     0.900000E-01   1.00800           0
      2359 MEMB     2        SAPS     N        NH3L    -0.300000       14.0070           0
      2360 MEMB     2        SAPS     HN1      HCL      0.330000       1.00800           0
      2361 MEMB     2        SAPS     HN2      HCL      0.330000       1.00800           0
      2362 MEMB     2        SAPS     HN3      HCL      0.330000       1.00800           0
      2363 MEMB     2        SAPS     C12      CTL1     0.210000       12.0110           0
      2364 MEMB     2        SAPS     H12A     HBL      0.100000       1.00800           0
      2365 MEMB     2        SAPS     C13      CCL      0.340000       12.0110           0
      2366 MEMB     2        SAPS     O13A     OCL     -0.670000       15.9994           0
      2367 MEMB     2        SAPS     O13B     OCL     -0.670000       15.9994           0
      2368 MEMB     2        SAPS     C11      CTL2    -0.800000E-01   12.0110           0
      2369 MEMB     2        SAPS     H11A     HAL2     0.900000E-01   1.00800           0
      2370 MEMB     2        SAPS     H11B     HAL2     0.900000E-01   1.00800           0
      2371 MEMB     2        SAPS     P        PL       1.500000       30.9740           0
      2372 MEMB     2        SAPS     O13      O2L     -0.780000       15.9994           0
      2373 MEMB     2        SAPS     O14      O2L     -0.780000       15.9994           0
      2374 MEMB     2        SAPS     O12      OSLP    -0.570000       15.9994           0
      2375 MEMB     2        SAPS     O11      OSLP    -0.570000       15.9994           0
      2376 MEMB     2        SAPS     C1       CTL2    -0.800000E-01   12.0110           0
      2377 MEMB     2        SAPS     HA       HAL2     0.900000E-01   1.00800           0
      2378 MEMB     2        SAPS     HB       HAL2     0.900000E-01   1.00800           0
      2379 MEMB     2        SAPS     C2       CTL1     0.170000       12.0110           0
      2380 MEMB     2        SAPS     HS       HAL1     0.900000E-01   1.00800           0
      2381 MEMB     2        SAPS     O21      OSL     -0.490000       15.9994           0
      2382 MEMB     2        SAPS     C21      CL       0.900000       12.0110           0
      2383 MEMB     2        SAPS     O22      OBL     -0.630000       15.9994           0
      2384 MEMB     2        SAPS     C22      CTL2    -0.220000       12.0110           0
      2385 MEMB     2        SAPS     H2R      HAL2     0.900000E-01   1.00800           0
      2386 MEMB     2        SAPS     H2S      HAL2     0.900000E-01   1.00800           0
      2387 MEMB     2        SAPS     C3       CTL2     0.800000E-01   12.0110           0
      2388 MEMB     2        SAPS     HX       HAL2     0.900000E-01   1.00800           0
      2389 MEMB     2        SAPS     HY       HAL2     0.900000E-01   1.00800           0
      2390 MEMB     2        SAPS     O31      OSL     -0.490000       15.9994           0
      2391 MEMB     2        SAPS     C31      CL       0.900000       12.0110           0
      2392 MEMB     2        SAPS     O32      OBL     -0.630000       15.9994           0
      2393 MEMB     2        SAPS     C32      CTL2    -0.220000       12.0110           0
      2394 MEMB     2        SAPS     H2X      HAL2     0.900000E-01   1.00800           0
      2395 MEMB     2        SAPS     H2Y      HAL2     0.900000E-01   1.00800           0
      2396 MEMB     2        SAPS     C23      CTL2    -0.180000       12.0110           0
      2397 MEMB     2        SAPS     H3R      HAL2     0.900000E-01   1.00800           0
      2398 MEMB     2        SAPS     H3S      HAL2     0.900000E-01   1.00800           0
      2399 MEMB     2        SAPS     C24      CTL2    -0.180000       12.0110           0
      2400 MEMB     2        SAPS     H4R      HAL2     0.900000E-01   1.00800           0
      2401 MEMB     2        SAPS     H4S      HAL2     0.900000E-01   1.00800           0
      2402 MEMB     2        SAPS     C25      CEL1    -0.150000       12.0110           0
      2403 MEMB     2        SAPS     H5R      HEL1     0.150000       1.00800           0
      2404 MEMB     2        SAPS     C26      CEL1    -0.150000       12.0110           0
      2405 MEMB     2        SAPS     H6R      HEL1     0.150000       1.00800           0
      2406 MEMB     2        SAPS     C27      CTL2    -0.180000       12.0110           0
      2407 MEMB     2        SAPS     H7R      HAL2     0.900000E-01   1.00800           0
      2408 MEMB     2        SAPS     H7S      HAL2     0.900000E-01   1.00800           0
      2409 MEMB     2        SAPS     C28      CEL1    -0.150000       12.0110           0
      2410 MEMB     2        SAPS     H8R      HEL1     0.150000       1.00800           0
      2411 MEMB     2        SAPS     C29      CEL1    -0.150000       12.0110           0
      2412 MEMB     2        SAPS     H9R      HEL1     0.150000       1.00800           0
      2413 MEMB     2        SAPS     C210     CTL2    -0.180000       12.0110           0
      2414 MEMB     2        SAPS     H10R     HAL2     0.900000E-01   1.00800           0
      2415 MEMB     2        SAPS     H10S     HAL2     0.900000E-01   1.00800           0
      2416 MEMB     2        SAPS     C211     CEL1    -0.150000       12.0110           0
      2417 MEMB     2        SAPS     H11R     HEL1     0.150000       1.00800           0
      2418 MEMB     2        SAPS     C212     CEL1    -0.150000       12.0110           0
      2419 MEMB     2        SAPS     H12R     HEL1     0.150000       1.00800           0
      2420 MEMB     2        SAPS     C213     CTL2    -0.180000       12.0110           0
      2421 MEMB     2        SAPS     H13R     HAL2     0.900000E-01   1.00800           0
      2422 MEMB     2        SAPS     H13S     HAL2     0.900000E-01   1.00800           0
      2423 MEMB     2        SAPS     C214     CEL1    -0.150000       12.0110           0
      2424 MEMB     2        SAPS     H14R     HEL1     0.150000       1.00800           0
      2425 MEMB     2        SAPS     C215     CEL1    -0.150000       12.0110           0
      2426 MEMB     2        SAPS     H15R     HEL1     0.150000       1.00800           0
      2427 MEMB     2        SAPS     C216     CTL2    -0.180000       12.0110           0
      2428 MEMB     2        SAPS     H16R     HAL2     0.900000E-01   1.00800           0
      2429 MEMB     2        SAPS     H16S     HAL2     0.900000E-01   1.00800           0
      2430 MEMB     2        SAPS     C217     CTL2    -0.180000       12.0110           0
      2431 MEMB     2        SAPS     H17R     HAL2     0.900000E-01   1.00800           0
      2432 MEMB     2        SAPS     H17S     HAL2     0.900000E-01   1.00800           0
      2433 MEMB     2        SAPS     C218     CTL2    -0.180000       12.0110           0
      2434 MEMB     2        SAPS     H18R     HAL2     0.900000E-01   1.00800           0
      2435 MEMB     2        SAPS     H18S     HAL2     0.900000E-01   1.00800           0
      2436 MEMB     2        SAPS     C219     CTL2    -0.180000       12.0110           0
      2437 MEMB     2        SAPS     H19R     HAL2     0.900000E-01   1.00800           0
      2438 MEMB     2        SAPS     H19S     HAL2     0.900000E-01   1.00800           0
      2439 MEMB     2        SAPS     C220     CTL3    -0.270000       12.0110           0
      2440 MEMB     2        SAPS     H20R     HAL3     0.900000E-01   1.00800           0
      2441 MEMB     2        SAPS     H20S     HAL3     0.900000E-01   1.00800           0
      2442 MEMB     2        SAPS     H20T     HAL3     0.900000E-01   1.00800           0
      2443 MEMB     2        SAPS     C33      CTL2    -0.180000       12.0110           0
      2444 MEMB     2        SAPS     H3X      HAL2     0.900000E-01   1.00800           0
      2445 MEMB     2        SAPS     H3Y      HAL2     0.900000E-01   1.00800           0
      2446 MEMB     2        SAPS     C34      CTL2    -0.180000       12.0110           0
      2447 MEMB     2        SAPS     H4X      HAL2     0.900000E-01   1.00800           0
      2448 MEMB     2        SAPS     H4Y      HAL2     0.900000E-01   1.00800           0
      2449 MEMB     2        SAPS     C35      CTL2    -0.180000       12.0110           0
      2450 MEMB     2        SAPS     H5X      HAL2     0.900000E-01   1.00800           0
      2451 MEMB     2        SAPS     H5Y      HAL2     0.900000E-01   1.00800           0
      2452 MEMB     2        SAPS     C36      CTL2    -0.180000       12.0110           0
      2453 MEMB     2        SAPS     H6X      HAL2     0.900000E-01   1.00800           0
      2454 MEMB     2        SAPS     H6Y      HAL2     0.900000E-01   1.00800           0
      2455 MEMB     2        SAPS     C37      CTL2    -0.180000       12.0110           0
      2456 MEMB     2        SAPS     H7X      HAL2     0.900000E-01   1.00800           0
      2457 MEMB     2        SAPS     H7Y      HAL2     0.900000E-01   1.00800           0
      2458 MEMB     2        SAPS     C38      CTL2    -0.180000       12.0110           0
      2459 MEMB     2        SAPS     H8X      HAL2     0.900000E-01   1.00800           0
      2460 MEMB     2        SAPS     H8Y      HAL2     0.900000E-01   1.00800           0
      2461 MEMB     2        SAPS     C39      CTL2    -0.180000       12.0110           0
      2462 MEMB     2        SAPS     H9X      HAL2     0.900000E-01   1.00800           0
      2463 MEMB     2        SAPS     H9Y      HAL2     0.900000E-01   1.00800           0
      2464 MEMB     2        SAPS     C310     CTL2    -0.180000       12.0110           0
      2465 MEMB     2        SAPS     H10X     HAL2     0.900000E-01   1.00800           0
      2466 MEMB     2        SAPS     H10Y     HAL2     0.900000E-01   1.00800           0
      2467 MEMB     2        SAPS     C311     CTL2    -0.180000       12.0110           0
      2468 MEMB     2        SAPS     H11X     HAL2     0.900000E-01   1.00800           0
      2469 MEMB     2        SAPS     H11Y     HAL2     0.900000E-01   1.00800           0
      2470 MEMB     2        SAPS     C312     CTL2    -0.180000       12.0110           0
      2471 MEMB     2        SAPS     H12X     HAL2     0.900000E-01   1.00800           0
      2472 MEMB     2        SAPS     H12Y     HAL2     0.900000E-01   1.00800           0
      2473 MEMB     2        SAPS     C313     CTL2    -0.180000       12.0110           0
      2474 MEMB     2        SAPS     H13X     HAL2     0.900000E-01   1.00800           0
      2475 MEMB     2        SAPS     H13Y     HAL2     0.900000E-01   1.00800           0
      2476 MEMB     2        SAPS     C314     CTL2    -0.180000       12.0110           0
      2477 MEMB     2        SAPS     H14X     HAL2     0.900000E-01   1.00800           0
      2478 MEMB     2        SAPS     H14Y     HAL2     0.900000E-01   1.00800           0
      2479 MEMB     2        SAPS     C315     CTL2    -0.180000       12.0110           0
      2480 MEMB     2        SAPS     H15X     HAL2     0.900000E-01   1.00800           0
      2481 MEMB     2        SAPS     H15Y     HAL2     0.900000E-01   1.00800           0
      2482 MEMB     2        SAPS     C316     CTL2    -0.180000       12.0110           0
      2483 MEMB     2        SAPS     H16X     HAL2     0.900000E-01   1.00800           0
      2484 MEMB     2        SAPS     H16Y     HAL2     0.900000E-01   1.00800           0
      2485 MEMB     2        SAPS     C317     CTL2    -0.180000       12.0110           0
      2486 MEMB     2        SAPS     H17X     HAL2     0.900000E-01   1.00800           0
      2487 MEMB     2        SAPS     H17Y     HAL2     0.900000E-01   1.00800           0
      2488 MEMB     2        SAPS     C318     CTL3    -0.270000       12.0110           0
      2489 MEMB     2        SAPS     H18X     HAL3     0.900000E-01   1.00800           0
      2490 MEMB     2        SAPS     H18Y     HAL3     0.900000E-01   1.00800           0
      2491 MEMB     2        SAPS     H18Z     HAL3     0.900000E-01   1.00800           0
      2492 MEMB     23       SAPS     N        NH3L    -0.300000       14.0070           0
      2493 MEMB     23       SAPS     HN1      HCL      0.330000       1.00800           0
      2494 MEMB     23       SAPS     HN2      HCL      0.330000       1.00800           0
      2495 MEMB     23       SAPS     HN3      HCL      0.330000       1.00800           0
      2496 MEMB     23       SAPS     C12      CTL1     0.210000       12.0110           0
      2497 MEMB     23       SAPS     H12A     HBL      0.100000       1.00800           0
      2498 MEMB     23       SAPS     C13      CCL      0.340000       12.0110           0
      2499 MEMB     23       SAPS     O13A     OCL     -0.670000       15.9994           0
      2500 MEMB     23       SAPS     O13B     OCL     -0.670000       15.9994           0
      2501 MEMB     23       SAPS     C11      CTL2    -0.800000E-01   12.0110           0
      2502 MEMB     23       SAPS     H11A     HAL2     0.900000E-01   1.00800           0
      2503 MEMB     23       SAPS     H11B     HAL2     0.900000E-01   1.00800           0
      2504 MEMB     23       SAPS     P        PL       1.500000       30.9740           0
      2505 MEMB     23       SAPS     O13      O2L     -0.780000       15.9994           0
      2506 MEMB     23       SAPS     O14      O2L     -0.780000       15.9994           0
      2507 MEMB     23       SAPS     O12      OSLP    -0.570000       15.9994           0
      2508 MEMB     23       SAPS     O11      OSLP    -0.570000       15.9994           0
      2509 MEMB     23       SAPS     C1       CTL2    -0.800000E-01   12.0110           0
      2510 MEMB     23       SAPS     HA       HAL2     0.900000E-01   1.00800           0
      2511 MEMB     23       SAPS     HB       HAL2     0.900000E-01   1.00800           0
      2512 MEMB     23       SAPS     C2       CTL1     0.170000       12.0110           0
      2513 MEMB     23       SAPS     HS       HAL1     0.900000E-01   1.00800           0
      2514 MEMB     23       SAPS     O21      OSL     -0.490000       15.9994           0
      2515 MEMB     23       SAPS     C21      CL       0.900000       12.0110           0
      2516 MEMB     23       SAPS     O22      OBL     -0.630000       15.9994           0
      2517 MEMB     23       SAPS     C22      CTL2    -0.220000       12.0110           0
      2518 MEMB     23       SAPS     H2R      HAL2     0.900000E-01   1.00800           0
      2519 MEMB     23       SAPS     H2S      HAL2     0.900000E-01   1.00800           0
      2520 MEMB     23       SAPS     C3       CTL2     0.800000E-01   12.0110           0
      2521 MEMB     23       SAPS     HX       HAL2     0.900000E-01   1.00800           0
      2522 MEMB     23       SAPS     HY       HAL2     0.900000E-01   1.00800           0
      2523 MEMB     23       SAPS     O31      OSL     -0.490000       15.9994           0
      2524 MEMB     23       SAPS     C31      CL       0.900000       12.0110           0
      2525 MEMB     23       SAPS     O32      OBL     -0.630000       15.9994           0
      2526 MEMB     23       SAPS     C32      CTL2    -0.220000       12.0110           0
      2527 MEMB     23       SAPS     H2X      HAL2     0.900000E-01   1.00800           0
      2528 MEMB     23       SAPS     H2Y      HAL2     0.900000E-01   1.00800           0
      2529 MEMB     23       SAPS     C23      CTL2    -0.180000       12.0110           0
      2530 MEMB     23       SAPS     H3R      HAL2     0.900000E-01   1.00800           0
      2531 MEMB     23       SAPS     H3S      HAL2     0.900000E-01   1.00800           0
      2532 MEMB     23       SAPS     C24      CTL2    -0.180000       12.0110           0
      2533 MEMB     23       SAPS     H4R      HAL2     0.900000E-01   1.00800           0
      2534 MEMB     23       SAPS     H4S      HAL2     0.900000E-01   1.00800           0
      2535 MEMB     23       SAPS     C25      CEL1    -0.150000       12.0110           0
      2536 MEMB     23       SAPS     H5R      HEL1     0.150000       1.00800           0
      2537 MEMB     23       SAPS     C26      CEL1    -0.150000       12.0110           0
      2538 MEMB     23       SAPS     H6R      HEL1     0.150000       1.00800           0
      2539 MEMB     23       SAPS     C27      CTL2    -0.180000       12.0110           0
      2540 MEMB     23       SAPS     H7R      HAL2     0.900000E-01   1.00800           0
      2541 MEMB     23       SAPS     H7S      HAL2     0.900000E-01   1.00800           0
      2542 MEMB     23       SAPS     C28      CEL1    -0.150000       12.0110           0
      2543 MEMB     23       SAPS     H8R      HEL1     0.150000       1.00800           0
      2544 MEMB     23       SAPS     C29      CEL1    -0.150000       12.0110           0
      2545 MEMB     23       SAPS     H9R      HEL1     0.150000       1.00800           0
      2546 MEMB     23       SAPS     C210     CTL2    -0.180000       12.0110           0
      2547 MEMB     23       SAPS     H10R     HAL2     0.900000E-01   1.00800           0
      2548 MEMB     23       SAPS     H10S     HAL2     0.900000E-01   1.00800           0
      2549 MEMB     23       SAPS     C211     CEL1    -0.150000       12.0110           0
      2550 MEMB     23       SAPS     H11R     HEL1     0.150000       1.00800           0
      2551 MEMB     23       SAPS     C212     CEL1    -0.150000       12.0110           0
      2552 MEMB     23       SAPS     H12R     HEL1     0.150000       1.00800           0
      2553 MEMB     23       SAPS     C213     CTL2    -0.180000       12.0110           0
      2554 MEMB     23       SAPS     H13R     HAL2     0.900000E-01   1.00800           0
      2555 MEMB     23       SAPS     H13S     HAL2     0.900000E-01   1.00800           0
      2556 MEMB     23       SAPS     C214     CEL1    -0.150000       12.0110           0
      2557 MEMB     23       SAPS     H14R     HEL1     0.150000       1.00800           0
      2558 MEMB     23       SAPS     C215     CEL1    -0.150000       12.0110           0
      2559 MEMB     23       SAPS     H15R     HEL1     0.150000       1.00800           0
      2560 MEMB     23       SAPS     C216     CTL2    -0.180000       12.0110           0
      2561 MEMB     23       SAPS     H16R     HAL2     0.900000E-01   1.00800           0
      2562 MEMB     23       SAPS     H16S     HAL2     0.900000E-01   1.00800           0
      2563 MEMB     23       SAPS     C217     CTL2    -0.180000       12.0110           0
      2564 MEMB     23       SAPS     H17R     HAL2     0.900000E-01   1.00800           0
      2565 MEMB     23       SAPS     H17S     HAL2     0.900000E-01   1.00800           0
      2566 MEMB     23       SAPS     C218     CTL2    -0.180000       12.0110           0
      2567 MEMB     23       SAPS     H18R     HAL2     0.900000E-01   1.00800           0
      2568 MEMB     23       SAPS     H18S     HAL2     0.900000E-01   1.00800           0
      2569 MEMB     23       SAPS     C219     CTL2    -0.180000       12.0110           0
      2570 MEMB     23       SAPS     H19R     HAL2     0.900000E-01   1.00800           0
      2571 MEMB     23       SAPS     H19S     HAL2     0.900000E-01   1.00800           0
      2572 MEMB     23       SAPS     C220     CTL3    -0.270000       12.0110           0
      2573 MEMB     23       SAPS     H20R     HAL3     0.900000E-01   1.00800           0
      2574 MEMB     23       SAPS     H20S     HAL3     0.900000E-01   1.00800           0
      2575 MEMB     23       SAPS     H20T     HAL3     0.900000E-01   1.00800           0
      2576 MEMB     23       SAPS     C33      CTL2    -0.180000       12.0110           0
      2577 MEMB     23       SAPS     H3X      HAL2     0.900000E-01   1.00800           0
      2578 MEMB     23       SAPS     H3Y      HAL2     0.900000E-01   1.00800           0
      2579 MEMB     23       SAPS     C34      CTL2    -0.180000       12.0110           0
      2580 MEMB     23       SAPS     H4X      HAL2     0.900000E-01   1.00800           0
      2581 MEMB     23       SAPS     H4Y      HAL2     0.900000E-01   1.00800           0
      2582 MEMB     23       SAPS     C35      CTL2    -0.180000       12.0110           0
      2583 MEMB     23       SAPS     H5X      HAL2     0.900000E-01   1.00800           0
      2584 MEMB     23       SAPS     H5Y      HAL2     0.900000E-01   1.00800           0
      2585 MEMB     23       SAPS     C36      CTL2    -0.180000       12.0110           0
      2586 MEMB     23       SAPS     H6X      HAL2     0.900000E-01   1.00800           0
      2587 MEMB     23       SAPS     H6Y      HAL2     0.900000E-01   1.00800           0
      2588 MEMB     23       SAPS     C37      CTL2    -0.180000       12.0110           0
      2589 MEMB     23       SAPS     H7X      HAL2     0.900000E-01   1.00800           0
      2590 MEMB     23       SAPS     H7Y      HAL2     0.900000E-01   1.00800           0
      2591 MEMB     23       SAPS     C38      CTL2    -0.180000       12.0110           0
      2592 MEMB     23       SAPS     H8X      HAL2     0.900000E-01   1.00800           0
      2593 MEMB     23       SAPS     H8Y      HAL2     0.900000E-01   1.00800           0
      2594 MEMB     23       SAPS     C39      CTL2    -0.180000       12.0110           0
      2595 MEMB     23       SAPS     H9X      HAL2     0.900000E-01   1.00800           0
      2596 MEMB     23       SAPS     H9Y      HAL2     0.900000E-01   1.00800           0
      2597 MEMB     23       SAPS     C310     CTL2    -0.180000       12.0110           0
      2598 MEMB     23       SAPS     H10X     HAL2     0.900000E-01   1.00800           0
      2599 MEMB     23       SAPS     H10Y     HAL2     0.900000E-01   1.00800           0
      2600 MEMB     23       SAPS     C311     CTL2    -0.180000       12.0110           0
      2601 MEMB     23       SAPS     H11X     HAL2     0.900000E-01   1.00800           0
      2602 MEMB     23       SAPS     H11Y     HAL2     0.900000E-01   1.00800           0
      2603 MEMB     23       SAPS     C312     CTL2    -0.180000       12.0110           0
      2604 MEMB     23       SAPS     H12X     HAL2     0.900000E-01   1.00800           0
      2605 MEMB     23       SAPS     H12Y     HAL2     0.900000E-01   1.00800           0
      2606 MEMB     23       SAPS     C313     CTL2    -0.180000       12.0110           0
      2607 MEMB     23       SAPS     H13X     HAL2     0.900000E-01   1.00800           0
      2608 MEMB     23       SAPS     H13Y     HAL2     0.900000E-01   1.00800           0
      2609 MEMB     23       SAPS     C314     CTL2    -0.180000       12.0110           0
      2610 MEMB     23       SAPS     H14X     HAL2     0.900000E-01   1.00800           0
      2611 MEMB     23       SAPS     H14Y     HAL2     0.900000E-01   1.00800           0
      2612 MEMB     23       SAPS     C315     CTL2    -0.180000       12.0110           0
      2613 MEMB     23       SAPS     H15X     HAL2     0.900000E-01   1.00800           0
      2614 MEMB     23       SAPS     H15Y     HAL2     0.900000E-01   1.00800           0
      2615 MEMB     23       SAPS     C316     CTL2    -0.180000       12.0110           0
      2616 MEMB     23       SAPS     H16X     HAL2     0.900000E-01   1.00800           0
      2617 MEMB     23       SAPS     H16Y     HAL2     0.900000E-01   1.00800           0
      2618 MEMB     23       SAPS     C317     CTL2    -0.180000       12.0110           0
      2619 MEMB     23       SAPS     H17X     HAL2     0.900000E-01   1.00800           0
      2620 MEMB     23       SAPS     H17Y     HAL2     0.900000E-01   1.00800           0
      2621 MEMB     23       SAPS     C318     CTL3    -0.270000       12.0110           0
      2622 MEMB     23       SAPS     H18X     HAL3     0.900000E-01   1.00800           0
      2623 MEMB     23       SAPS     H18Y     HAL3     0.900000E-01   1.00800           0
      2624 MEMB     23       SAPS     H18Z     HAL3     0.900000E-01   1.00800           0
      2625 MEMB     34       SAPS     N        NH3L    -0.300000       14.0070           0
      2626 MEMB     34       SAPS     HN1      HCL      0.330000       1.00800           0
      2627 MEMB     34       SAPS     HN2      HCL      0.330000       1.00800           0
      2628 MEMB     34       SAPS     HN3      HCL      0.330000       1.00800           0
      2629 MEMB     34       SAPS     C12      CTL1     0.210000       12.0110           0
      2630 MEMB     34       SAPS     H12A     HBL      0.100000       1.00800           0
      2631 MEMB     34       SAPS     C13      CCL      0.340000       12.0110           0
      2632 MEMB     34       SAPS     O13A     OCL     -0.670000       15.9994           0
      2633 MEMB     34       SAPS     O13B     OCL     -0.670000       15.9994           0
      2634 MEMB     34       SAPS     C11      CTL2    -0.800000E-01   12.0110           0
      2635 MEMB     34       SAPS     H11A     HAL2     0.900000E-01   1.00800           0
      2636 MEMB     34       SAPS     H11B     HAL2     0.900000E-01   1.00800           0
      2637 MEMB     34       SAPS     P        PL       1.500000       30.9740           0
      2638 MEMB     34       SAPS     O13      O2L     -0.780000       15.9994           0
      2639 MEMB     34       SAPS     O14      O2L     -0.780000       15.9994           0
      2640 MEMB     34       SAPS     O12      OSLP    -0.570000       15.9994           0
      2641 MEMB     34       SAPS     O11      OSLP    -0.570000       15.9994           0
      2642 MEMB     34       SAPS     C1       CTL2    -0.800000E-01   12.0110           0
      2643 MEMB     34       SAPS     HA       HAL2     0.900000E-01   1.00800           0
      2644 MEMB     34       SAPS     HB       HAL2     0.900000E-01   1.00800           0
      2645 MEMB     34       SAPS     C2       CTL1     0.170000       12.0110           0
      2646 MEMB     34       SAPS     HS       HAL1     0.900000E-01   1.00800           0
      2647 MEMB     34       SAPS     O21      OSL     -0.490000       15.9994           0
      2648 MEMB     34       SAPS     C21      CL       0.900000       12.0110           0
      2649 MEMB     34       SAPS     O22      OBL     -0.630000       15.9994           0
      2650 MEMB     34       SAPS     C22      CTL2    -0.220000       12.0110           0
      2651 MEMB     34       SAPS     H2R      HAL2     0.900000E-01   1.00800           0
      2652 MEMB     34       SAPS     H2S      HAL2     0.900000E-01   1.00800           0
      2653 MEMB     34       SAPS     C3       CTL2     0.800000E-01   12.0110           0
      2654 MEMB     34       SAPS     HX       HAL2     0.900000E-01   1.00800           0
      2655 MEMB     34       SAPS     HY       HAL2     0.900000E-01   1.00800           0
      2656 MEMB     34       SAPS     O31      OSL     -0.490000       15.9994           0
      2657 MEMB     34       SAPS     C31      CL       0.900000       12.0110           0
      2658 MEMB     34       SAPS     O32      OBL     -0.630000       15.9994           0
      2659 MEMB     34       SAPS     C32      CTL2    -0.220000       12.0110           0
      2660 MEMB     34       SAPS     H2X      HAL2     0.900000E-01   1.00800           0
      2661 MEMB     34       SAPS     H2Y      HAL2     0.900000E-01   1.00800           0
      2662 MEMB     34       SAPS     C23      CTL2    -0.180000       12.0110           0
      2663 MEMB     34       SAPS     H3R      HAL2     0.900000E-01   1.00800           0
      2664 MEMB     34       SAPS     H3S      HAL2     0.900000E-01   1.00800           0
      2665 MEMB     34       SAPS     C24      CTL2    -0.180000       12.0110           0
      2666 MEMB     34       SAPS     H4R      HAL2     0.900000E-01   1.00800           0
      2667 MEMB     34       SAPS     H4S      HAL2     0.900000E-01   1.00800           0
      2668 MEMB     34       SAPS     C25      CEL1    -0.150000       12.0110           0
      2669 MEMB     34       SAPS     H5R      HEL1     0.150000       1.00800           0
      2670 MEMB     34       SAPS     C26      CEL1    -0.150000       12.0110           0
      2671 MEMB     34       SAPS     H6R      HEL1     0.150000       1.00800           0
      2672 MEMB     34       SAPS     C27      CTL2    -0.180000       12.0110           0
      2673 MEMB     34       SAPS     H7R      HAL2     0.900000E-01   1.00800           0
      2674 MEMB     34       SAPS     H7S      HAL2     0.900000E-01   1.00800           0
      2675 MEMB     34       SAPS     C28      CEL1    -0.150000       12.0110           0
      2676 MEMB     34       SAPS     H8R      HEL1     0.150000       1.00800           0
      2677 MEMB     34       SAPS     C29      CEL1    -0.150000       12.0110           0
      2678 MEMB     34       SAPS     H9R      HEL1     0.150000       1.00800           0
      2679 MEMB     34       SAPS     C210     CTL2    -0.180000       12.0110           0
      2680 MEMB     34       SAPS     H10R     HAL2     0.900000E-01   1.00800           0
      2681 MEMB     34       SAPS     H10S     HAL2     0.900000E-01   1.00800           0
      2682 MEMB     34       SAPS     C211     CEL1    -0.150000       12.0110           0
      2683 MEMB     34       SAPS     H11R     HEL1     0.150000       1.00800           0
      2684 MEMB     34       SAPS     C212     CEL1    -0.150000       12.0110           0
      2685 MEMB     34       SAPS     H12R     HEL1     0.150000       1.00800           0
      2686 MEMB     34       SAPS     C213     CTL2    -0.180000       12.0110           0
      2687 MEMB     34       SAPS     H13R     HAL2     0.900000E-01   1.00800           0
      2688 MEMB     34       SAPS     H13S     HAL2     0.900000E-01   1.00800           0
      2689 MEMB     34       SAPS     C214     CEL1    -0.150000       12.0110           0
      2690 MEMB     34       SAPS     H14R     HEL1     0.150000       1.00800           0
      2691 MEMB     34       SAPS     C215     CEL1    -0.150000       12.0110           0
      2692 MEMB     34       SAPS     H15R     HEL1     0.150000       1.00800           0
      2693 MEMB     34       SAPS     C216     CTL2    -0.180000       12.0110           0
      2694 MEMB     34       SAPS     H16R     HAL2     0.900000E-01   1.00800           0
      2695 MEMB     34       SAPS     H16S     HAL2     0.900000E-01   1.00800           0
      2696 MEMB     34       SAPS     C217     CTL2    -0.180000       12.0110           0
      2697 MEMB     34       SAPS     H17R     HAL2     0.900000E-01   1.00800           0
      2698 MEMB     34       SAPS     H17S     HAL2     0.900000E-01   1.00800           0
      2699 MEMB     34       SAPS     C218     CTL2    -0.180000       12.0110           0
      2700 MEMB     34       SAPS     H18R     HAL2     0.900000E-01   1.00800           0
      2701 MEMB     34       SAPS     H18S     HAL2     0.900000E-01   1.00800           0
      2702 MEMB     34       SAPS     C219     CTL2    -0.180000       12.0110           0
      2703 MEMB     34       SAPS     H19R     HAL2     0.900000E-01   1.00800           0
      2704 MEMB     34       SAPS     H19S     HAL2     0.900000E-01   1.00800           0
      2705 MEMB     34       SAPS     C220     CTL3    -0.270000       12.0110           0
      2706 MEMB     34       SAPS     H20R     HAL3     0.900000E-01   1.00800           0
      2707 MEMB     34       SAPS     H20S     HAL3     0.900000E-01   1.00800           0
      2708 MEMB     34       SAPS     H20T     HAL3     0.900000E-01   1.00800           0
      2709 MEMB     34       SAPS     C33      CTL2    -0.180000       12.0110           0
      2710 MEMB     34       SAPS     H3X      HAL2     0.900000E-01   1.00800           0
      2711 MEMB     34       SAPS     H3Y      HAL2     0.900000E-01   1.00800           0
      2712 MEMB     34       SAPS     C34      CTL2    -0.180000       12.0110           0
      2713 MEMB     34       SAPS     H4X      HAL2     0.900000E-01   1.00800           0
      2714 MEMB     34       SAPS     H4Y      HAL2     0.900000E-01   1.00800           0
      2715 MEMB     34       SAPS     C35      CTL2    -0.180000       12.0110           0
      2716 MEMB     34       SAPS     H5X      HAL2     0.900000E-01   1.00800           0
      2717 MEMB     34       SAPS     H5Y      HAL2     0.900000E-01   1.00800           0
      2718 MEMB     34       SAPS     C36      CTL2    -0.180000       12.0110           0
      2719 MEMB     34       SAPS     H6X      HAL2     0.900000E-01   1.00800           0
      2720 MEMB     34       SAPS     H6Y      HAL2     0.900000E-01   1.00800           0
      2721 MEMB     34       SAPS     C37      CTL2    -0.180000       12.0110           0
      2722 MEMB     34       SAPS     H7X      HAL2     0.900000E-01   1.00800           0
      2723 MEMB     34       SAPS     H7Y      HAL2     0.900000E-01   1.00800           0
      2724 MEMB     34       SAPS     C38      CTL2    -0.180000       12.0110           0
      2725 MEMB     34       SAPS     H8X      HAL2     0.900000E-01   1.00800           0
      2726 MEMB     34       SAPS     H8Y      HAL2     0.900000E-01   1.00800           0
      2727 MEMB     34       SAPS     C39      CTL2    -0.180000       12.0110           0
      2728 MEMB     34       SAPS     H9X      HAL2     0.900000E-01   1.00800           0
      2729 MEMB     34       SAPS     H9Y      HAL2     0.900000E-01   1.00800           0
      2730 MEMB     34       SAPS     C310     CTL2    -0.180000       12.0110           0
      2731 MEMB     34       SAPS     H10X     HAL2     0.900000E-01   1.00800           0
      2732 MEMB     34       SAPS     H10Y     HAL2     0.900000E-01   1.00800           0
      2733 MEMB     34       SAPS     C311     CTL2    -0.180000       12.0110           0
      2734 MEMB     34       SAPS     H11X     HAL2     0.900000E-01   1.00800           0
      2735 MEMB     34       SAPS     H11Y     HAL2     0.900000E-01   1.00800           0
      2736 MEMB     34       SAPS     C312     CTL2    -0.180000       12.0110           0
      2737 MEMB     34       SAPS     H12X     HAL2     0.900000E-01   1.00800           0
      2738 MEMB     34       SAPS     H12Y     HAL2     0.900000E-01   1.00800           0
      2739 MEMB     34       SAPS     C313     CTL2    -0.180000       12.0110           0
      2740 MEMB     34       SAPS     H13X     HAL2     0.900000E-01   1.00800           0
      2741 MEMB     34       SAPS     H13Y     HAL2     0.900000E-01   1.00800           0
      2742 MEMB     34       SAPS     C314     CTL2    -0.180000       12.0110           0
      2743 MEMB     34       SAPS     H14X     HAL2     0.900000E-01   1.00800           0
      2744 MEMB     34       SAPS     H14Y     HAL2     0.900000E-01   1.00800           0
      2745 MEMB     34       SAPS     C315     CTL2    -0.180000       12.0110           0
      2746 MEMB     34       SAPS     H15X     HAL2     0.900000E-01   1.00800           0
      2747 MEMB     34       SAPS     H15Y     HAL2     0.900000E-01   1.00800           0
      2748 MEMB     34       SAPS     C316     CTL2    -0.180000       12.0110           0
      2749 MEMB     34       SAPS     H16X     HAL2     0.900000E-01   1.00800           0
      2750 MEMB     34       SAPS     H16Y     HAL2     0.900000E-01   1.00800           0
      2751 MEMB     34       SAPS     C317     CTL2    -0.180000       12.0110           0
      2752 MEMB     34       SAPS     H17X     HAL2     0.900000E-01   1.00800           0
      2753 MEMB     34       SAPS     H17Y     HAL2     0.900000E-01   1.00800           0
      2754 MEMB     34       SAPS     C318     CTL3    -0.270000       12.0110           0
      2755 MEMB     34       SAPS     H18X     HAL3     0.900000E-01   1.00800           0
      2756 MEMB     34       SAPS     H18Y     HAL3     0.900000E-01   1.00800           0
      2757 MEMB     34       SAPS     H18Z     HAL3     0.900000E-01   1.00800           0
      2758 MEMB     39       SAPS     N        NH3L    -0.300000       14.0070           0
      2759 MEMB     39       SAPS     HN1      HCL      0.330000       1.00800           0
      2760 MEMB     39       SAPS     HN2      HCL      0.330000       1.00800           0
      2761 MEMB     39       SAPS     HN3      HCL      0.330000       1.00800           0
      2762 MEMB     39       SAPS     C12      CTL1     0.210000       12.0110           0
      2763 MEMB     39       SAPS     H12A     HBL      0.100000       1.00800           0
      2764 MEMB     39       SAPS     C13      CCL      0.340000       12.0110           0
      2765 MEMB     39       SAPS     O13A     OCL     -0.670000       15.9994           0
      2766 MEMB     39       SAPS     O13B     OCL     -0.670000       15.9994           0
      2767 MEMB     39       SAPS     C11      CTL2    -0.800000E-01   12.0110           0
      2768 MEMB     39       SAPS     H11A     HAL2     0.900000E-01   1.00800           0
      2769 MEMB     39       SAPS     H11B     HAL2     0.900000E-01   1.00800           0
      2770 MEMB     39       SAPS     P        PL       1.500000       30.9740           0
      2771 MEMB     39       SAPS     O13      O2L     -0.780000       15.9994           0
      2772 MEMB     39       SAPS     O14      O2L     -0.780000       15.9994           0
      2773 MEMB     39       SAPS     O12      OSLP    -0.570000       15.9994           0
      2774 MEMB     39       SAPS     O11      OSLP    -0.570000       15.9994           0
      2775 MEMB     39       SAPS     C1       CTL2    -0.800000E-01   12.0110           0
      2776 MEMB     39       SAPS     HA       HAL2     0.900000E-01   1.00800           0
      2777 MEMB     39       SAPS     HB       HAL2     0.900000E-01   1.00800           0
      2778 MEMB     39       SAPS     C2       CTL1     0.170000       12.0110           0
      2779 MEMB     39       SAPS     HS       HAL1     0.900000E-01   1.00800           0
      2780 MEMB     39       SAPS     O21      OSL     -0.490000       15.9994           0
      2781 MEMB     39       SAPS     C21      CL       0.900000       12.0110           0
      2782 MEMB     39       SAPS     O22      OBL     -0.630000       15.9994           0
      2783 MEMB     39       SAPS     C22      CTL2    -0.220000       12.0110           0
      2784 MEMB     39       SAPS     H2R      HAL2     0.900000E-01   1.00800           0
      2785 MEMB     39       SAPS     H2S      HAL2     0.900000E-01   1.00800           0
      2786 MEMB     39       SAPS     C3       CTL2     0.800000E-01   12.0110           0
      2787 MEMB     39       SAPS     HX       HAL2     0.900000E-01   1.00800           0
      2788 MEMB     39       SAPS     HY       HAL2     0.900000E-01   1.00800           0
      2789 MEMB     39       SAPS     O31      OSL     -0.490000       15.9994           0
      2790 MEMB     39       SAPS     C31      CL       0.900000       12.0110           0
      2791 MEMB     39       SAPS     O32      OBL     -0.630000       15.9994           0
      2792 MEMB     39       SAPS     C32      CTL2    -0.220000       12.0110           0
      2793 MEMB     39       SAPS     H2X      HAL2     0.900000E-01   1.00800           0
      2794 MEMB     39       SAPS     H2Y      HAL2     0.900000E-01   1.00800           0
      2795 MEMB     39       SAPS     C23      CTL2    -0.180000       12.0110           0
      2796 MEMB     39       SAPS     H3R      HAL2     0.900000E-01   1.00800           0
      2797 MEMB     39       SAPS     H3S      HAL2     0.900000E-01   1.00800           0
      2798 MEMB     39       SAPS     C24      CTL2    -0.180000       12.0110           0
      2799 MEMB     39       SAPS     H4R      HAL2     0.900000E-01   1.00800           0
      2800 MEMB     39       SAPS     H4S      HAL2     0.900000E-01   1.00800           0
      2801 MEMB     39       SAPS     C25      CEL1    -0.150000       12.0110           0
      2802 MEMB     39       SAPS     H5R      HEL1     0.150000       1.00800           0
      2803 MEMB     39       SAPS     C26      CEL1    -0.150000       12.0110           0
      2804 MEMB     39       SAPS     H6R      HEL1     0.150000       1.00800           0
      2805 MEMB     39       SAPS     C27      CTL2    -0.180000       12.0110           0
      2806 MEMB     39       SAPS     H7R      HAL2     0.900000E-01   1.00800           0
      2807 MEMB     39       SAPS     H7S      HAL2     0.900000E-01   1.00800           0
      2808 MEMB     39       SAPS     C28      CEL1    -0.150000       12.0110           0
      2809 MEMB     39       SAPS     H8R      HEL1     0.150000       1.00800           0
      2810 MEMB     39       SAPS     C29      CEL1    -0.150000       12.0110           0
      2811 MEMB     39       SAPS     H9R      HEL1     0.150000       1.00800           0
      2812 MEMB     39       SAPS     C210     CTL2    -0.180000       12.0110           0
      2813 MEMB     39       SAPS     H10R     HAL2     0.900000E-01   1.00800           0
      2814 MEMB     39       SAPS     H10S     HAL2     0.900000E-01   1.00800           0
      2815 MEMB     39       SAPS     C211     CEL1    -0.150000       12.0110           0
      2816 MEMB     39       SAPS     H11R     HEL1     0.150000       1.00800           0
      2817 MEMB     39       SAPS     C212     CEL1    -0.150000       12.0110           0
      2818 MEMB     39       SAPS     H12R     HEL1     0.150000       1.00800           0
      2819 MEMB     39       SAPS     C213     CTL2    -0.180000       12.0110           0
      2820 MEMB     39       SAPS     H13R     HAL2     0.900000E-01   1.00800           0
      2821 MEMB     39       SAPS     H13S     HAL2     0.900000E-01   1.00800           0
      2822 MEMB     39       SAPS     C214     CEL1    -0.150000       12.0110           0
      2823 MEMB     39       SAPS     H14R     HEL1     0.150000       1.00800           0
      2824 MEMB     39       SAPS     C215     CEL1    -0.150000       12.0110           0
      2825 MEMB     39       SAPS     H15R     HEL1     0.150000       1.00800           0
      2826 MEMB     39       SAPS     C216     CTL2    -0.180000       12.0110           0
      2827 MEMB     39       SAPS     H16R     HAL2     0.900000E-01   1.00800           0
      2828 MEMB     39       SAPS     H16S     HAL2     0.900000E-01   1.00800           0
      2829 MEMB     39       SAPS     C217     CTL2    -0.180000       12.0110           0
      2830 MEMB     39       SAPS     H17R     HAL2     0.900000E-01   1.00800           0
      2831 MEMB     39       SAPS     H17S     HAL2     0.900000E-01   1.00800           0
      2832 MEMB     39       SAPS     C218     CTL2    -0.180000       12.0110           0
      2833 MEMB     39       SAPS     H18R     HAL2     0.900000E-01   1.00800           0
      2834 MEMB     39       SAPS     H18S     HAL2     0.900000E-01   1.00800           0
      2835 MEMB     39       SAPS     C219     CTL2    -0.180000       12.0110           0
      2836 MEMB     39       SAPS     H19R     HAL2     0.900000E-01   1.00800           0
      2837 MEMB     39       SAPS     H19S     HAL2     0.900000E-01   1.00800           0
      2838 MEMB     39       SAPS     C220     CTL3    -0.270000       12.0110           0
      2839 MEMB     39       SAPS     H20R     HAL3     0.900000E-01   1.00800           0
      2840 MEMB     39       SAPS     H20S     HAL3     0.900000E-01   1.00800           0
      2841 MEMB     39       SAPS     H20T     HAL3     0.900000E-01   1.00800           0
      2842 MEMB     39       SAPS     C33      CTL2    -0.180000       12.0110           0
      2843 MEMB     39       SAPS     H3X      HAL2     0.900000E-01   1.00800           0
      2844 MEMB     39       SAPS     H3Y      HAL2     0.900000E-01   1.00800           0
      2845 MEMB     39       SAPS     C34      CTL2    -0.180000       12.0110           0
      2846 MEMB     39       SAPS     H4X      HAL2     0.900000E-01   1.00800           0
      2847 MEMB     39       SAPS     H4Y      HAL2     0.900000E-01   1.00800           0
      2848 MEMB     39       SAPS     C35      CTL2    -0.180000       12.0110           0
      2849 MEMB     39       SAPS     H5X      HAL2     0.900000E-01   1.00800           0
      2850 MEMB     39       SAPS     H5Y      HAL2     0.900000E-01   1.00800           0
      2851 MEMB     39       SAPS     C36      CTL2    -0.180000       12.0110           0
      2852 MEMB     39       SAPS     H6X      HAL2     0.900000E-01   1.00800           0
      2853 MEMB     39       SAPS     H6Y      HAL2     0.900000E-01   1.00800           0
      2854 MEMB     39       SAPS     C37      CTL2    -0.180000       12.0110           0
      2855 MEMB     39       SAPS     H7X      HAL2     0.900000E-01   1.00800           0
      2856 MEMB     39       SAPS     H7Y      HAL2     0.900000E-01   1.00800           0
      2857 MEMB     39       SAPS     C38      CTL2    -0.180000       12.0110           0
      2858 MEMB     39       SAPS     H8X      HAL2     0.900000E-01   1.00800           0
      2859 MEMB     39       SAPS     H8Y      HAL2     0.900000E-01   1.00800           0
      2860 MEMB     39       SAPS     C39      CTL2    -0.180000       12.0110           0
      2861 MEMB     39       SAPS     H9X      HAL2     0.900000E-01   1.00800           0
      2862 MEMB     39       SAPS     H9Y      HAL2     0.900000E-01   1.00800           0
      2863 MEMB     39       SAPS     C310     CTL2    -0.180000       12.0110           0
      2864 MEMB     39       SAPS     H10X     HAL2     0.900000E-01   1.00800           0
      2865 MEMB     39       SAPS     H10Y     HAL2     0.900000E-01   1.00800           0
      2866 MEMB     39       SAPS     C311     CTL2    -0.180000       12.0110           0
      2867 MEMB     39       SAPS     H11X     HAL2     0.900000E-01   1.00800           0
      2868 MEMB     39       SAPS     H11Y     HAL2     0.900000E-01   1.00800           0
      2869 MEMB     39       SAPS     C312     CTL2    -0.180000       12.0110           0
      2870 MEMB     39       SAPS     H12X     HAL2     0.900000E-01   1.00800           0
      2871 MEMB     39       SAPS     H12Y     HAL2     0.900000E-01   1.00800           0
      2872 MEMB     39       SAPS     C313     CTL2    -0.180000       12.0110           0
      2873 MEMB     39       SAPS     H13X     HAL2     0.900000E-01   1.00800           0
      2874 MEMB     39       SAPS     H13Y     HAL2     0.900000E-01   1.00800           0
      2875 MEMB     39       SAPS     C314     CTL2    -0.180000       12.0110           0
      2876 MEMB     39       SAPS     H14X     HAL2     0.900000E-01   1.00800           0
      2877 MEMB     39       SAPS     H14Y     HAL2     0.900000E-01   1.00800           0
      2878 MEMB     39       SAPS     C315     CTL2    -0.180000       12.0110           0
      2879 MEMB     39       SAPS     H15X     HAL2     0.900000E-01   1.00800           0
      2880 MEMB     39       SAPS     H15Y     HAL2     0.900000E-01   1.00800           0
      2881 MEMB     39       SAPS     C316     CTL2    -0.180000       12.0110           0
      2882 MEMB     39       SAPS     H16X     HAL2     0.900000E-01   1.00800           0
      2883 MEMB     39       SAPS     H16Y     HAL2     0.900000E-01   1.00800           0
      2884 MEMB     39       SAPS     C317     CTL2    -0.180000       12.0110           0
      2885 MEMB     39       SAPS     H17X     HAL2     0.900000E-01   1.00800           0
      2886 MEMB     39       SAPS     H17Y     HAL2     0.900000E-01   1.00800           0
      2887 MEMB     39       SAPS     C318     CTL3    -0.270000       12.0110           0
      2888 MEMB     39       SAPS     H18X     HAL3     0.900000E-01   1.00800           0
      2889 MEMB     39       SAPS     H18Y     HAL3     0.900000E-01   1.00800           0
      2890 MEMB     39       SAPS     H18Z     HAL3     0.900000E-01   1.00800           0
      2891 MEMB     74       SAPS     N        NH3L    -0.300000       14.0070           0
      2892 MEMB     74       SAPS     HN1      HCL      0.330000       1.00800           0
      2893 MEMB     74       SAPS     HN2      HCL      0.330000       1.00800           0
      2894 MEMB     74       SAPS     HN3      HCL      0.330000       1.00800           0
      2895 MEMB     74       SAPS     C12      CTL1     0.210000       12.0110           0
      2896 MEMB     74       SAPS     H12A     HBL      0.100000       1.00800           0
      2897 MEMB     74       SAPS     C13      CCL      0.340000       12.0110           0
      2898 MEMB     74       SAPS     O13A     OCL     -0.670000       15.9994           0
      2899 MEMB     74       SAPS     O13B     OCL     -0.670000       15.9994           0
      2900 MEMB     74       SAPS     C11      CTL2    -0.800000E-01   12.0110           0
      2901 MEMB     74       SAPS     H11A     HAL2     0.900000E-01   1.00800           0
      2902 MEMB     74       SAPS     H11B     HAL2     0.900000E-01   1.00800           0
      2903 MEMB     74       SAPS     P        PL       1.500000       30.9740           0
      2904 MEMB     74       SAPS     O13      O2L     -0.780000       15.9994           0
      2905 MEMB     74       SAPS     O14      O2L     -0.780000       15.9994           0
      2906 MEMB     74       SAPS     O12      OSLP    -0.570000       15.9994           0
      2907 MEMB     74       SAPS     O11      OSLP    -0.570000       15.9994           0
      2908 MEMB     74       SAPS     C1       CTL2    -0.800000E-01   12.0110           0
      2909 MEMB     74       SAPS     HA       HAL2     0.900000E-01   1.00800           0
      2910 MEMB     74       SAPS     HB       HAL2     0.900000E-01   1.00800           0
      2911 MEMB     74       SAPS     C2       CTL1     0.170000       12.0110           0
      2912 MEMB     74       SAPS     HS       HAL1     0.900000E-01   1.00800           0
      2913 MEMB     74       SAPS     O21      OSL     -0.490000       15.9994           0
      2914 MEMB     74       SAPS     C21      CL       0.900000       12.0110           0
      2915 MEMB     74       SAPS     O22      OBL     -0.630000       15.9994           0
      2916 MEMB     74       SAPS     C22      CTL2    -0.220000       12.0110           0
      2917 MEMB     74       SAPS     H2R      HAL2     0.900000E-01   1.00800           0
      2918 MEMB     74       SAPS     H2S      HAL2     0.900000E-01   1.00800           0
      2919 MEMB     74       SAPS     C3       CTL2     0.800000E-01   12.0110           0
      2920 MEMB     74       SAPS     HX       HAL2     0.900000E-01   1.00800           0
      2921 MEMB     74       SAPS     HY       HAL2     0.900000E-01   1.00800           0
      2922 MEMB     74       SAPS     O31      OSL     -0.490000       15.9994           0
      2923 MEMB     74       SAPS     C31      CL       0.900000       12.0110           0
      2924 MEMB     74       SAPS     O32      OBL     -0.630000       15.9994           0
      2925 MEMB     74       SAPS     C32      CTL2    -0.220000       12.0110           0
      2926 MEMB     74       SAPS     H2X      HAL2     0.900000E-01   1.00800           0
      2927 MEMB     74       SAPS     H2Y      HAL2     0.900000E-01   1.00800           0
      2928 MEMB     74       SAPS     C23      CTL2    -0.180000       12.0110           0
      2929 MEMB     74       SAPS     H3R      HAL2     0.900000E-01   1.00800           0
      2930 MEMB     74       SAPS     H3S      HAL2     0.900000E-01   1.00800           0
      2931 MEMB     74       SAPS     C24      CTL2    -0.180000       12.0110           0
      2932 MEMB     74       SAPS     H4R      HAL2     0.900000E-01   1.00800           0
      2933 MEMB     74       SAPS     H4S      HAL2     0.900000E-01   1.00800           0
      2934 MEMB     74       SAPS     C25      CEL1    -0.150000       12.0110           0
      2935 MEMB     74       SAPS     H5R      HEL1     0.150000       1.00800           0
      2936 MEMB     74       SAPS     C26      CEL1    -0.150000       12.0110           0
      2937 MEMB     74       SAPS     H6R      HEL1     0.150000       1.00800           0
      2938 MEMB     74       SAPS     C27      CTL2    -0.180000       12.0110           0
      2939 MEMB     74       SAPS     H7R      HAL2     0.900000E-01   1.00800           0
      2940 MEMB     74       SAPS     H7S      HAL2     0.900000E-01   1.00800           0
      2941 MEMB     74       SAPS     C28      CEL1    -0.150000       12.0110           0
      2942 MEMB     74       SAPS     H8R      HEL1     0.150000       1.00800           0
      2943 MEMB     74       SAPS     C29      CEL1    -0.150000       12.0110           0
      2944 MEMB     74       SAPS     H9R      HEL1     0.150000       1.00800           0
      2945 MEMB     74       SAPS     C210     CTL2    -0.180000       12.0110           0
      2946 MEMB     74       SAPS     H10R     HAL2     0.900000E-01   1.00800           0
      2947 MEMB     74       SAPS     H10S     HAL2     0.900000E-01   1.00800           0
      2948 MEMB     74       SAPS     C211     CEL1    -0.150000       12.0110           0
      2949 MEMB     74       SAPS     H11R     HEL1     0.150000       1.00800           0
      2950 MEMB     74       SAPS     C212     CEL1    -0.150000       12.0110           0
      2951 MEMB     74       SAPS     H12R     HEL1     0.150000       1.00800           0
      2952 MEMB     74       SAPS     C213     CTL2    -0.180000       12.0110           0
      2953 MEMB     74       SAPS     H13R     HAL2     0.900000E-01   1.00800           0
      2954 MEMB     74       SAPS     H13S     HAL2     0.900000E-01   1.00800           0
      2955 MEMB     74       SAPS     C214     CEL1    -0.150000       12.0110           0
      2956 MEMB     74       SAPS     H14R     HEL1     0.150000       1.00800           0
      2957 MEMB     74       SAPS     C215     CEL1    -0.150000       12.0110           0
      2958 MEMB     74       SAPS     H15R     HEL1     0.150000       1.00800           0
      2959 MEMB     74       SAPS     C216     CTL2    -0.180000       12.0110           0
      2960 MEMB     74       SAPS     H16R     HAL2     0.900000E-01   1.00800           0
      2961 MEMB     74       SAPS     H16S     HAL2     0.900000E-01   1.00800           0
      2962 MEMB     74       SAPS     C217     CTL2    -0.180000       12.0110           0
      2963 MEMB     74       SAPS     H17R     HAL2     0.900000E-01   1.00800           0
      2964 MEMB     74       SAPS     H17S     HAL2     0.900000E-01   1.00800           0
      2965 MEMB     74       SAPS     C218     CTL2    -0.180000       12.0110           0
      2966 MEMB     74       SAPS     H18R     HAL2     0.900000E-01   1.00800           0
      2967 MEMB     74       SAPS     H18S     HAL2     0.900000E-01   1.00800           0
      2968 MEMB     74       SAPS     C219     CTL2    -0.180000       12.0110           0
      2969 MEMB     74       SAPS     H19R     HAL2     0.900000E-01   1.00800           0
      2970 MEMB     74       SAPS     H19S     HAL2     0.900000E-01   1.00800           0
      2971 MEMB     74       SAPS     C220     CTL3    -0.270000       12.0110           0
      2972 MEMB     74       SAPS     H20R     HAL3     0.900000E-01   1.00800           0
      2973 MEMB     74       SAPS     H20S     HAL3     0.900000E-01   1.00800           0
      2974 MEMB     74       SAPS     H20T     HAL3     0.900000E-01   1.00800           0
      2975 MEMB     74       SAPS     C33      CTL2    -0.180000       12.0110           0
      2976 MEMB     74       SAPS     H3X      HAL2     0.900000E-01   1.00800           0
      2977 MEMB     74       SAPS     H3Y      HAL2     0.900000E-01   1.00800           0
      2978 MEMB     74       SAPS     C34      CTL2    -0.180000       12.0110           0
      2979 MEMB     74       SAPS     H4X      HAL2     0.900000E-01   1.00800           0
      2980 MEMB     74       SAPS     H4Y      HAL2     0.900000E-01   1.00800           0
      2981 MEMB     74       SAPS     C35      CTL2    -0.180000       12.0110           0
      2982 MEMB     74       SAPS     H5X      HAL2     0.900000E-01   1.00800           0
      2983 MEMB     74       SAPS     H5Y      HAL2     0.900000E-01   1.00800           0
      2984 MEMB     74       SAPS     C36      CTL2    -0.180000       12.0110           0
      2985 MEMB     74       SAPS     H6X      HAL2     0.900000E-01   1.00800           0
      2986 MEMB     74       SAPS     H6Y      HAL2     0.900000E-01   1.00800           0
      2987 MEMB     74       SAPS     C37      CTL2    -0.180000       12.0110           0
      2988 MEMB     74       SAPS     H7X      HAL2     0.900000E-01   1.00800           0
      2989 MEMB     74       SAPS     H7Y      HAL2     0.900000E-01   1.00800           0
      2990 MEMB     74       SAPS     C38      CTL2    -0.180000       12.0110           0
      2991 MEMB     74       SAPS     H8X      HAL2     0.900000E-01   1.00800           0
      2992 MEMB     74       SAPS     H8Y      HAL2     0.900000E-01   1.00800           0
      2993 MEMB     74       SAPS     C39      CTL2    -0.180000       12.0110           0
      2994 MEMB     74       SAPS     H9X      HAL2     0.900000E-01   1.00800           0
      2995 MEMB     74       SAPS     H9Y      HAL2     0.900000E-01   1.00800           0
      2996 MEMB     74       SAPS     C310     CTL2    -0.180000       12.0110           0
      2997 MEMB     74       SAPS     H10X     HAL2     0.900000E-01   1.00800           0
      2998 MEMB     74       SAPS     H10Y     HAL2     0.900000E-01   1.00800           0
      2999 MEMB     74       SAPS     C311     CTL2    -0.180000       12.0110           0
      3000 MEMB     74       SAPS     H11X     HAL2     0.900000E-01   1.00800           0
      3001 MEMB     74       SAPS     H11Y     HAL2     0.900000E-01   1.00800           0
      3002 MEMB     74       SAPS     C312     CTL2    -0.180000       12.0110           0
      3003 MEMB     74       SAPS     H12X     HAL2     0.900000E-01   1.00800           0
      3004 MEMB     74       SAPS     H12Y     HAL2     0.900000E-01   1.00800           0
      3005 MEMB     74       SAPS     C313     CTL2    -0.180000       12.0110           0
      3006 MEMB     74       SAPS     H13X     HAL2     0.900000E-01   1.00800           0
      3007 MEMB     74       SAPS     H13Y     HAL2     0.900000E-01   1.00800           0
      3008 MEMB     74       SAPS     C314     CTL2    -0.180000       12.0110           0
      3009 MEMB     74       SAPS     H14X     HAL2     0.900000E-01   1.00800           0
      3010 MEMB     74       SAPS     H14Y     HAL2     0.900000E-01   1.00800           0
      3011 MEMB     74       SAPS     C315     CTL2    -0.180000       12.0110           0
      3012 MEMB     74       SAPS     H15X     HAL2     0.900000E-01   1.00800           0
      3013 MEMB     74       SAPS     H15Y     HAL2     0.900000E-01   1.00800           0
      3014 MEMB     74       SAPS     C316     CTL2    -0.180000       12.0110           0
      3015 MEMB     74       SAPS     H16X     HAL2     0.900000E-01   1.00800           0
      3016 MEMB     74       SAPS     H16Y     HAL2     0.900000E-01   1.00800           0
      3017 MEMB     74       SAPS     C317     CTL2    -0.180000       12.0110           0
      3018 MEMB     74       SAPS     H17X     HAL2     0.900000E-01   1.00800           0
      3019 MEMB     74       SAPS     H17Y     HAL2     0.900000E-01   1.00800           0
      3020 MEMB     74       SAPS     C318     CTL3    -0.270000       12.0110           0
      3021 MEMB     74       SAPS     H18X     HAL3     0.900000E-01   1.00800           0
      3022 MEMB     74       SAPS     H18Y     HAL3     0.900000E-01   1.00800           0
      3023 MEMB     74       SAPS     H18Z     HAL3     0.900000E-01   1.00800           0
      3024 MEMB     75       SAPS     N        NH3L    -0.300000       14.0070           0
      3025 MEMB     75       SAPS     HN1      HCL      0.330000       1.00800           0
      3026 MEMB     75       SAPS     HN2      HCL      0.330000       1.00800           0
      3027 MEMB     75       SAPS     HN3      HCL      0.330000       1.00800           0
      3028 MEMB     75       SAPS     C12      CTL1     0.210000       12.0110           0
      3029 MEMB     75       SAPS     H12A     HBL      0.100000       1.00800           0
      3030 MEMB     75       SAPS     C13      CCL      0.340000       12.0110           0
      3031 MEMB     75       SAPS     O13A     OCL     -0.670000       15.9994           0
      3032 MEMB     75       SAPS     O13B     OCL     -0.670000       15.9994           0
      3033 MEMB     75       SAPS     C11      CTL2    -0.800000E-01   12.0110           0
      3034 MEMB     75       SAPS     H11A     HAL2     0.900000E-01   1.00800           0
      3035 MEMB     75       SAPS     H11B     HAL2     0.900000E-01   1.00800           0
      3036 MEMB     75       SAPS     P        PL       1.500000       30.9740           0
      3037 MEMB     75       SAPS     O13      O2L     -0.780000       15.9994           0
      3038 MEMB     75       SAPS     O14      O2L     -0.780000       15.9994           0
      3039 MEMB     75       SAPS     O12      OSLP    -0.570000       15.9994           0
      3040 MEMB     75       SAPS     O11      OSLP    -0.570000       15.9994           0
      3041 MEMB     75       SAPS     C1       CTL2    -0.800000E-01   12.0110           0
      3042 MEMB     75       SAPS     HA       HAL2     0.900000E-01   1.00800           0
      3043 MEMB     75       SAPS     HB       HAL2     0.900000E-01   1.00800           0
      3044 MEMB     75       SAPS     C2       CTL1     0.170000       12.0110           0
      3045 MEMB     75       SAPS     HS       HAL1     0.900000E-01   1.00800           0
      3046 MEMB     75       SAPS     O21      OSL     -0.490000       15.9994           0
      3047 MEMB     75       SAPS     C21      CL       0.900000       12.0110           0
      3048 MEMB     75       SAPS     O22      OBL     -0.630000       15.9994           0
      3049 MEMB     75       SAPS     C22      CTL2    -0.220000       12.0110           0
      3050 MEMB     75       SAPS     H2R      HAL2     0.900000E-01   1.00800           0
      3051 MEMB     75       SAPS     H2S      HAL2     0.900000E-01   1.00800           0
      3052 MEMB     75       SAPS     C3       CTL2     0.800000E-01   12.0110           0
      3053 MEMB     75       SAPS     HX       HAL2     0.900000E-01   1.00800           0
      3054 MEMB     75       SAPS     HY       HAL2     0.900000E-01   1.00800           0
      3055 MEMB     75       SAPS     O31      OSL     -0.490000       15.9994           0
      3056 MEMB     75       SAPS     C31      CL       0.900000       12.0110           0
      3057 MEMB     75       SAPS     O32      OBL     -0.630000       15.9994           0
      3058 MEMB     75       SAPS     C32      CTL2    -0.220000       12.0110           0
      3059 MEMB     75       SAPS     H2X      HAL2     0.900000E-01   1.00800           0
      3060 MEMB     75       SAPS     H2Y      HAL2     0.900000E-01   1.00800           0
      3061 MEMB     75       SAPS     C23      CTL2    -0.180000       12.0110           0
      3062 MEMB     75       SAPS     H3R      HAL2     0.900000E-01   1.00800           0
      3063 MEMB     75       SAPS     H3S      HAL2     0.900000E-01   1.00800           0
      3064 MEMB     75       SAPS     C24      CTL2    -0.180000       12.0110           0
      3065 MEMB     75       SAPS     H4R      HAL2     0.900000E-01   1.00800           0
      3066 MEMB     75       SAPS     H4S      HAL2     0.900000E-01   1.00800           0
      3067 MEMB     75       SAPS     C25      CEL1    -0.150000       12.0110           0
      3068 MEMB     75       SAPS     H5R      HEL1     0.150000       1.00800           0
      3069 MEMB     75       SAPS     C26      CEL1    -0.150000       12.0110           0
      3070 MEMB     75       SAPS     H6R      HEL1     0.150000       1.00800           0
      3071 MEMB     75       SAPS     C27      CTL2    -0.180000       12.0110           0
      3072 MEMB     75       SAPS     H7R      HAL2     0.900000E-01   1.00800           0
      3073 MEMB     75       SAPS     H7S      HAL2     0.900000E-01   1.00800           0
      3074 MEMB     75       SAPS     C28      CEL1    -0.150000       12.0110           0
      3075 MEMB     75       SAPS     H8R      HEL1     0.150000       1.00800           0
      3076 MEMB     75       SAPS     C29      CEL1    -0.150000       12.0110           0
      3077 MEMB     75       SAPS     H9R      HEL1     0.150000       1.00800           0
      3078 MEMB     75       SAPS     C210     CTL2    -0.180000       12.0110           0
      3079 MEMB     75       SAPS     H10R     HAL2     0.900000E-01   1.00800           0
      3080 MEMB     75       SAPS     H10S     HAL2     0.900000E-01   1.00800           0
      3081 MEMB     75       SAPS     C211     CEL1    -0.150000       12.0110           0
      3082 MEMB     75       SAPS     H11R     HEL1     0.150000       1.00800           0
      3083 MEMB     75       SAPS     C212     CEL1    -0.150000       12.0110           0
      3084 MEMB     75       SAPS     H12R     HEL1     0.150000       1.00800           0
      3085 MEMB     75       SAPS     C213     CTL2    -0.180000       12.0110           0
      3086 MEMB     75       SAPS     H13R     HAL2     0.900000E-01   1.00800           0
      3087 MEMB     75       SAPS     H13S     HAL2     0.900000E-01   1.00800           0
      3088 MEMB     75       SAPS     C214     CEL1    -0.150000       12.0110           0
      3089 MEMB     75       SAPS     H14R     HEL1     0.150000       1.00800           0
      3090 MEMB     75       SAPS     C215     CEL1    -0.150000       12.0110           0
      3091 MEMB     75       SAPS     H15R     HEL1     0.150000       1.00800           0
      3092 MEMB     75       SAPS     C216     CTL2    -0.180000       12.0110           0
      3093 MEMB     75       SAPS     H16R     HAL2     0.900000E-01   1.00800           0
      3094 MEMB     75       SAPS     H16S     HAL2     0.900000E-01   1.00800           0
      3095 MEMB     75       SAPS     C217     CTL2    -0.180000       12.0110           0
      3096 MEMB     75       SAPS     H17R     HAL2     0.900000E-01   1.00800           0
      3097 MEMB     75       SAPS     H17S     HAL2     0.900000E-01   1.00800           0
      3098 MEMB     75       SAPS     C218     CTL2    -0.180000       12.0110           0
      3099 MEMB     75       SAPS     H18R     HAL2     0.900000E-01   1.00800           0
      3100 MEMB     75       SAPS     H18S     HAL2     0.900000E-01   1.00800           0
      3101 MEMB     75       SAPS     C219     CTL2    -0.180000       12.0110           0
      3102 MEMB     75       SAPS     H19R     HAL2     0.900000E-01   1.00800           0
      3103 MEMB     75       SAPS     H19S     HAL2     0.900000E-01   1.00800           0
      3104 MEMB     75       SAPS     C220     CTL3    -0.270000       12.0110           0
      3105 MEMB     75       SAPS     H20R     HAL3     0.900000E-01   1.00800           0
      3106 MEMB     75       SAPS     H20S     HAL3     0.900000E-01   1.00800           0
      3107 MEMB     75       SAPS     H20T     HAL3     0.900000E-01   1.00800           0
      3108 MEMB     75       SAPS     C33      CTL2    -0.180000       12.0110           0
      3109 MEMB     75       SAPS     H3X      HAL2     0.900000E-01   1.00800           0
      3110 MEMB     75       SAPS     H3Y      HAL2     0.900000E-01   1.00800           0
      3111 MEMB     75       SAPS     C34      CTL2    -0.180000       12.0110           0
      3112 MEMB     75       SAPS     H4X      HAL2     0.900000E-01   1.00800           0
      3113 MEMB     75       SAPS     H4Y      HAL2     0.900000E-01   1.00800           0
      3114 MEMB     75       SAPS     C35      CTL2    -0.180000       12.0110           0
      3115 MEMB     75       SAPS     H5X      HAL2     0.900000E-01   1.00800           0
      3116 MEMB     75       SAPS     H5Y      HAL2     0.900000E-01   1.00800           0
      3117 MEMB     75       SAPS     C36      CTL2    -0.180000       12.0110           0
      3118 MEMB     75       SAPS     H6X      HAL2     0.900000E-01   1.00800           0
      3119 MEMB     75       SAPS     H6Y      HAL2     0.900000E-01   1.00800           0
      3120 MEMB     75       SAPS     C37      CTL2    -0.180000       12.0110           0
      3121 MEMB     75       SAPS     H7X      HAL2     0.900000E-01   1.00800           0
      3122 MEMB     75       SAPS     H7Y      HAL2     0.900000E-01   1.00800           0
      3123 MEMB     75       SAPS     C38      CTL2    -0.180000       12.0110           0
      3124 MEMB     75       SAPS     H8X      HAL2     0.900000E-01   1.00800           0
      3125 MEMB     75       SAPS     H8Y      HAL2     0.900000E-01   1.00800           0
      3126 MEMB     75       SAPS     C39      CTL2    -0.180000       12.0110           0
      3127 MEMB     75       SAPS     H9X      HAL2     0.900000E-01   1.00800           0
      3128 MEMB     75       SAPS     H9Y      HAL2     0.900000E-01   1.00800           0
      3129 MEMB     75       SAPS     C310     CTL2    -0.180000       12.0110           0
      3130 MEMB     75       SAPS     H10X     HAL2     0.900000E-01   1.00800           0
      3131 MEMB     75       SAPS     H10Y     HAL2     0.900000E-01   1.00800           0
      3132 MEMB     75       SAPS     C311     CTL2    -0.180000       12.0110           0
      3133 MEMB     75       SAPS     H11X     HAL2     0.900000E-01   1.00800           0
      3134 MEMB     75       SAPS     H11Y     HAL2     0.900000E-01   1.00800           0
      3135 MEMB     75       SAPS     C312     CTL2    -0.180000       12.0110           0
      3136 MEMB     75       SAPS     H12X     HAL2     0.900000E-01   1.00800           0
      3137 MEMB     75       SAPS     H12Y     HAL2     0.900000E-01   1.00800           0
      3138 MEMB     75       SAPS     C313     CTL2    -0.180000       12.0110           0
      3139 MEMB     75       SAPS     H13X     HAL2     0.900000E-01   1.00800           0
      3140 MEMB     75       SAPS     H13Y     HAL2     0.900000E-01   1.00800           0
      3141 MEMB     75       SAPS     C314     CTL2    -0.180000       12.0110           0
      3142 MEMB     75       SAPS     H14X     HAL2     0.900000E-01   1.00800           0
      3143 MEMB     75       SAPS     H14Y     HAL2     0.900000E-01   1.00800           0
      3144 MEMB     75       SAPS     C315     CTL2    -0.180000       12.0110           0
      3145 MEMB     75       SAPS     H15X     HAL2     0.900000E-01   1.00800           0
      3146 MEMB     75       SAPS     H15Y     HAL2     0.900000E-01   1.00800           0
      3147 MEMB     75       SAPS     C316     CTL2    -0.180000       12.0110           0
      3148 MEMB     75       SAPS     H16X     HAL2     0.900000E-01   1.00800           0
      3149 MEMB     75       SAPS     H16Y     HAL2     0.900000E-01   1.00800           0
      3150 MEMB     75       SAPS     C317     CTL2    -0.180000       12.0110           0
      3151 MEMB     75       SAPS     H17X     HAL2     0.900000E-01   1.00800           0
      3152 MEMB     75       SAPS     H17Y     HAL2     0.900000E-01   1.00800           0
      3153 MEMB     75       SAPS     C318     CTL3    -0.270000       12.0110           0
      3154 MEMB     75       SAPS     H18X     HAL3     0.900000E-01   1.00800           0
      3155 MEMB     75       SAPS     H18Y     HAL3     0.900000E-01   1.00800           0
      3156 MEMB     75       SAPS     H18Z     HAL3     0.900000E-01   1.00800           0
      3157 MEMB     85       SAPS     N        NH3L    -0.300000       14.0070           0
      3158 MEMB     85       SAPS     HN1      HCL      0.330000       1.00800           0
      3159 MEMB     85       SAPS     HN2      HCL      0.330000       1.00800           0
      3160 MEMB     85       SAPS     HN3      HCL      0.330000       1.00800           0
      3161 MEMB     85       SAPS     C12      CTL1     0.210000       12.0110           0
      3162 MEMB     85       SAPS     H12A     HBL      0.100000       1.00800           0
      3163 MEMB     85       SAPS     C13      CCL      0.340000       12.0110           0
      3164 MEMB     85       SAPS     O13A     OCL     -0.670000       15.9994           0
      3165 MEMB     85       SAPS     O13B     OCL     -0.670000       15.9994           0
      3166 MEMB     85       SAPS     C11      CTL2    -0.800000E-01   12.0110           0
      3167 MEMB     85       SAPS     H11A     HAL2     0.900000E-01   1.00800           0
      3168 MEMB     85       SAPS     H11B     HAL2     0.900000E-01   1.00800           0
      3169 MEMB     85       SAPS     P        PL       1.500000       30.9740           0
      3170 MEMB     85       SAPS     O13      O2L     -0.780000       15.9994           0
      3171 MEMB     85       SAPS     O14      O2L     -0.780000       15.9994           0
      3172 MEMB     85       SAPS     O12      OSLP    -0.570000       15.9994           0
      3173 MEMB     85       SAPS     O11      OSLP    -0.570000       15.9994           0
      3174 MEMB     85       SAPS     C1       CTL2    -0.800000E-01   12.0110           0
      3175 MEMB     85       SAPS     HA       HAL2     0.900000E-01   1.00800           0
      3176 MEMB     85       SAPS     HB       HAL2     0.900000E-01   1.00800           0
      3177 MEMB     85       SAPS     C2       CTL1     0.170000       12.0110           0
      3178 MEMB     85       SAPS     HS       HAL1     0.900000E-01   1.00800           0
      3179 MEMB     85       SAPS     O21      OSL     -0.490000       15.9994           0
      3180 MEMB     85       SAPS     C21      CL       0.900000       12.0110           0
      3181 MEMB     85       SAPS     O22      OBL     -0.630000       15.9994           0
      3182 MEMB     85       SAPS     C22      CTL2    -0.220000       12.0110           0
      3183 MEMB     85       SAPS     H2R      HAL2     0.900000E-01   1.00800           0
      3184 MEMB     85       SAPS     H2S      HAL2     0.900000E-01   1.00800           0
      3185 MEMB     85       SAPS     C3       CTL2     0.800000E-01   12.0110           0
      3186 MEMB     85       SAPS     HX       HAL2     0.900000E-01   1.00800           0
      3187 MEMB     85       SAPS     HY       HAL2     0.900000E-01   1.00800           0
      3188 MEMB     85       SAPS     O31      OSL     -0.490000       15.9994           0
      3189 MEMB     85       SAPS     C31      CL       0.900000       12.0110           0
      3190 MEMB     85       SAPS     O32      OBL     -0.630000       15.9994           0
      3191 MEMB     85       SAPS     C32      CTL2    -0.220000       12.0110           0
      3192 MEMB     85       SAPS     H2X      HAL2     0.900000E-01   1.00800           0
      3193 MEMB     85       SAPS     H2Y      HAL2     0.900000E-01   1.00800           0
      3194 MEMB     85       SAPS     C23      CTL2    -0.180000       12.0110           0
      3195 MEMB     85       SAPS     H3R      HAL2     0.900000E-01   1.00800           0
      3196 MEMB     85       SAPS     H3S      HAL2     0.900000E-01   1.00800           0
      3197 MEMB     85       SAPS     C24      CTL2    -0.180000       12.0110           0
      3198 MEMB     85       SAPS     H4R      HAL2     0.900000E-01   1.00800           0
      3199 MEMB     85       SAPS     H4S      HAL2     0.900000E-01   1.00800           0
      3200 MEMB     85       SAPS     C25      CEL1    -0.150000       12.0110           0
      3201 MEMB     85       SAPS     H5R      HEL1     0.150000       1.00800           0
      3202 MEMB     85       SAPS     C26      CEL1    -0.150000       12.0110           0
      3203 MEMB     85       SAPS     H6R      HEL1     0.150000       1.00800           0
      3204 MEMB     85       SAPS     C27      CTL2    -0.180000       12.0110           0
      3205 MEMB     85       SAPS     H7R      HAL2     0.900000E-01   1.00800           0
      3206 MEMB     85       SAPS     H7S      HAL2     0.900000E-01   1.00800           0
      3207 MEMB     85       SAPS     C28      CEL1    -0.150000       12.0110           0
      3208 MEMB     85       SAPS     H8R      HEL1     0.150000       1.00800           0
      3209 MEMB     85       SAPS     C29      CEL1    -0.150000       12.0110           0
      3210 MEMB     85       SAPS     H9R      HEL1     0.150000       1.00800           0
      3211 MEMB     85       SAPS     C210     CTL2    -0.180000       12.0110           0
      3212 MEMB     85       SAPS     H10R     HAL2     0.900000E-01   1.00800           0
      3213 MEMB     85       SAPS     H10S     HAL2     0.900000E-01   1.00800           0
      3214 MEMB     85       SAPS     C211     CEL1    -0.150000       12.0110           0
      3215 MEMB     85       SAPS     H11R     HEL1     0.150000       1.00800           0
      3216 MEMB     85       SAPS     C212     CEL1    -0.150000       12.0110           0
      3217 MEMB     85       SAPS     H12R     HEL1     0.150000       1.00800           0
      3218 MEMB     85       SAPS     C213     CTL2    -0.180000       12.0110           0
      3219 MEMB     85       SAPS     H13R     HAL2     0.900000E-01   1.00800           0
      3220 MEMB     85       SAPS     H13S     HAL2     0.900000E-01   1.00800           0
      3221 MEMB     85       SAPS     C214     CEL1    -0.150000       12.0110           0
      3222 MEMB     85       SAPS     H14R     HEL1     0.150000       1.00800           0
      3223 MEMB     85       SAPS     C215     CEL1    -0.150000       12.0110           0
      3224 MEMB     85       SAPS     H15R     HEL1     0.150000       1.00800           0
      3225 MEMB     85       SAPS     C216     CTL2    -0.180000       12.0110           0
      3226 MEMB     85       SAPS     H16R     HAL2     0.900000E-01   1.00800           0
      3227 MEMB     85       SAPS     H16S     HAL2     0.900000E-01   1.00800           0
      3228 MEMB     85       SAPS     C217     CTL2    -0.180000       12.0110           0
      3229 MEMB     85       SAPS     H17R     HAL2     0.900000E-01   1.00800           0
      3230 MEMB     85       SAPS     H17S     HAL2     0.900000E-01   1.00800           0
      3231 MEMB     85       SAPS     C218     CTL2    -0.180000       12.0110           0
      3232 MEMB     85       SAPS     H18R     HAL2     0.900000E-01   1.00800           0
      3233 MEMB     85       SAPS     H18S     HAL2     0.900000E-01   1.00800           0
      3234 MEMB     85       SAPS     C219     CTL2    -0.180000       12.0110           0
      3235 MEMB     85       SAPS     H19R     HAL2     0.900000E-01   1.00800           0
      3236 MEMB     85       SAPS     H19S     HAL2     0.900000E-01   1.00800           0
      3237 MEMB     85       SAPS     C220     CTL3    -0.270000       12.0110           0
      3238 MEMB     85       SAPS     H20R     HAL3     0.900000E-01   1.00800           0
      3239 MEMB     85       SAPS     H20S     HAL3     0.900000E-01   1.00800           0
      3240 MEMB     85       SAPS     H20T     HAL3     0.900000E-01   1.00800           0
      3241 MEMB     85       SAPS     C33      CTL2    -0.180000       12.0110           0
      3242 MEMB     85       SAPS     H3X      HAL2     0.900000E-01   1.00800           0
      3243 MEMB     85       SAPS     H3Y      HAL2     0.900000E-01   1.00800           0
      3244 MEMB     85       SAPS     C34      CTL2    -0.180000       12.0110           0
      3245 MEMB     85       SAPS     H4X      HAL2     0.900000E-01   1.00800           0
      3246 MEMB     85       SAPS     H4Y      HAL2     0.900000E-01   1.00800           0
      3247 MEMB     85       SAPS     C35      CTL2    -0.180000       12.0110           0
      3248 MEMB     85       SAPS     H5X      HAL2     0.900000E-01   1.00800           0
      3249 MEMB     85       SAPS     H5Y      HAL2     0.900000E-01   1.00800           0
      3250 MEMB     85       SAPS     C36      CTL2    -0.180000       12.0110           0
      3251 MEMB     85       SAPS     H6X      HAL2     0.900000E-01   1.00800           0
      3252 MEMB     85       SAPS     H6Y      HAL2     0.900000E-01   1.00800           0
      3253 MEMB     85       SAPS     C37      CTL2    -0.180000       12.0110           0
      3254 MEMB     85       SAPS     H7X      HAL2     0.900000E-01   1.00800           0
      3255 MEMB     85       SAPS     H7Y      HAL2     0.900000E-01   1.00800           0
      3256 MEMB     85       SAPS     C38      CTL2    -0.180000       12.0110           0
      3257 MEMB     85       SAPS     H8X      HAL2     0.900000E-01   1.00800           0
      3258 MEMB     85       SAPS     H8Y      HAL2     0.900000E-01   1.00800           0
      3259 MEMB     85       SAPS     C39      CTL2    -0.180000       12.0110           0
      3260 MEMB     85       SAPS     H9X      HAL2     0.900000E-01   1.00800           0
      3261 MEMB     85       SAPS     H9Y      HAL2     0.900000E-01   1.00800           0
      3262 MEMB     85       SAPS     C310     CTL2    -0.180000       12.0110           0
      3263 MEMB     85       SAPS     H10X     HAL2     0.900000E-01   1.00800           0
      3264 MEMB     85       SAPS     H10Y     HAL2     0.900000E-01   1.00800           0
      3265 MEMB     85       SAPS     C311     CTL2    -0.180000       12.0110           0
      3266 MEMB     85       SAPS     H11X     HAL2     0.900000E-01   1.00800           0
      3267 MEMB     85       SAPS     H11Y     HAL2     0.900000E-01   1.00800           0
      3268 MEMB     85       SAPS     C312     CTL2    -0.180000       12.0110           0
      3269 MEMB     85       SAPS     H12X     HAL2     0.900000E-01   1.00800           0
      3270 MEMB     85       SAPS     H12Y     HAL2     0.900000E-01   1.00800           0
      3271 MEMB     85       SAPS     C313     CTL2    -0.180000       12.0110           0
      3272 MEMB     85       SAPS     H13X     HAL2     0.900000E-01   1.00800           0
      3273 MEMB     85       SAPS     H13Y     HAL2     0.900000E-01   1.00800           0
      3274 MEMB     85       SAPS     C314     CTL2    -0.180000       12.0110           0
      3275 MEMB     85       SAPS     H14X     HAL2     0.900000E-01   1.00800           0
      3276 MEMB     85       SAPS     H14Y     HAL2     0.900000E-01   1.00800           0
      3277 MEMB     85       SAPS     C315     CTL2    -0.180000       12.0110           0
      3278 MEMB     85       SAPS     H15X     HAL2     0.900000E-01   1.00800           0
      3279 MEMB     85       SAPS     H15Y     HAL2     0.900000E-01   1.00800           0
      3280 MEMB     85       SAPS     C316     CTL2    -0.180000       12.0110           0
      3281 MEMB     85       SAPS     H16X     HAL2     0.900000E-01   1.00800           0
      3282 MEMB     85       SAPS     H16Y     HAL2     0.900000E-01   1.00800           0
      3283 MEMB     85       SAPS     C317     CTL2    -0.180000       12.0110           0
      3284 MEMB     85       SAPS     H17X     HAL2     0.900000E-01   1.00800           0
      3285 MEMB     85       SAPS     H17Y     HAL2     0.900000E-01   1.00800           0
      3286 MEMB     85       SAPS     C318     CTL3    -0.270000       12.0110           0
      3287 MEMB     85       SAPS     H18X     HAL3     0.900000E-01   1.00800           0
      3288 MEMB     85       SAPS     H18Y     HAL3     0.900000E-01   1.00800           0
      3289 MEMB     85       SAPS     H18Z     HAL3     0.900000E-01   1.00800           0
      3290 MEMB     95       SAPS     N        NH3L    -0.300000       14.0070           0
      3291 MEMB     95       SAPS     HN1      HCL      0.330000       1.00800           0
      3292 MEMB     95       SAPS     HN2      HCL      0.330000       1.00800           0
      3293 MEMB     95       SAPS     HN3      HCL      0.330000       1.00800           0
      3294 MEMB     95       SAPS     C12      CTL1     0.210000       12.0110           0
      3295 MEMB     95       SAPS     H12A     HBL      0.100000       1.00800           0
      3296 MEMB     95       SAPS     C13      CCL      0.340000       12.0110           0
      3297 MEMB     95       SAPS     O13A     OCL     -0.670000       15.9994           0
      3298 MEMB     95       SAPS     O13B     OCL     -0.670000       15.9994           0
      3299 MEMB     95       SAPS     C11      CTL2    -0.800000E-01   12.0110           0
      3300 MEMB     95       SAPS     H11A     HAL2     0.900000E-01   1.00800           0
      3301 MEMB     95       SAPS     H11B     HAL2     0.900000E-01   1.00800           0
      3302 MEMB     95       SAPS     P        PL       1.500000       30.9740           0
      3303 MEMB     95       SAPS     O13      O2L     -0.780000       15.9994           0
      3304 MEMB     95       SAPS     O14      O2L     -0.780000       15.9994           0
      3305 MEMB     95       SAPS     O12      OSLP    -0.570000       15.9994           0
      3306 MEMB     95       SAPS     O11      OSLP    -0.570000       15.9994           0
      3307 MEMB     95       SAPS     C1       CTL2    -0.800000E-01   12.0110           0
      3308 MEMB     95       SAPS     HA       HAL2     0.900000E-01   1.00800           0
      3309 MEMB     95       SAPS     HB       HAL2     0.900000E-01   1.00800           0
      3310 MEMB     95       SAPS     C2       CTL1     0.170000       12.0110           0
      3311 MEMB     95       SAPS     HS       HAL1     0.900000E-01   1.00800           0
      3312 MEMB     95       SAPS     O21      OSL     -0.490000       15.9994           0
      3313 MEMB     95       SAPS     C21      CL       0.900000       12.0110           0
      3314 MEMB     95       SAPS     O22      OBL     -0.630000       15.9994           0
      3315 MEMB     95       SAPS     C22      CTL2    -0.220000       12.0110           0
      3316 MEMB     95       SAPS     H2R      HAL2     0.900000E-01   1.00800           0
      3317 MEMB     95       SAPS     H2S      HAL2     0.900000E-01   1.00800           0
      3318 MEMB     95       SAPS     C3       CTL2     0.800000E-01   12.0110           0
      3319 MEMB     95       SAPS     HX       HAL2     0.900000E-01   1.00800           0
      3320 MEMB     95       SAPS     HY       HAL2     0.900000E-01   1.00800           0
      3321 MEMB     95       SAPS     O31      OSL     -0.490000       15.9994           0
      3322 MEMB     95       SAPS     C31      CL       0.900000       12.0110           0
      3323 MEMB     95       SAPS     O32      OBL     -0.630000       15.9994           0
      3324 MEMB     95       SAPS     C32      CTL2    -0.220000       12.0110           0
      3325 MEMB     95       SAPS     H2X      HAL2     0.900000E-01   1.00800           0
      3326 MEMB     95       SAPS     H2Y      HAL2     0.900000E-01   1.00800           0
      3327 MEMB     95       SAPS     C23      CTL2    -0.180000       12.0110           0
      3328 MEMB     95       SAPS     H3R      HAL2     0.900000E-01   1.00800           0
      3329 MEMB     95       SAPS     H3S      HAL2     0.900000E-01   1.00800           0
      3330 MEMB     95       SAPS     C24      CTL2    -0.180000       12.0110           0
      3331 MEMB     95       SAPS     H4R      HAL2     0.900000E-01   1.00800           0
      3332 MEMB     95       SAPS     H4S      HAL2     0.900000E-01   1.00800           0
      3333 MEMB     95       SAPS     C25      CEL1    -0.150000       12.0110           0
      3334 MEMB     95       SAPS     H5R      HEL1     0.150000       1.00800           0
      3335 MEMB     95       SAPS     C26      CEL1    -0.150000       12.0110           0
      3336 MEMB     95       SAPS     H6R      HEL1     0.150000       1.00800           0
      3337 MEMB     95       SAPS     C27      CTL2    -0.180000       12.0110           0
      3338 MEMB     95       SAPS     H7R      HAL2     0.900000E-01   1.00800           0
      3339 MEMB     95       SAPS     H7S      HAL2     0.900000E-01   1.00800           0
      3340 MEMB     95       SAPS     C28      CEL1    -0.150000       12.0110           0
      3341 MEMB     95       SAPS     H8R      HEL1     0.150000       1.00800           0
      3342 MEMB     95       SAPS     C29      CEL1    -0.150000       12.0110           0
      3343 MEMB     95       SAPS     H9R      HEL1     0.150000       1.00800           0
      3344 MEMB     95       SAPS     C210     CTL2    -0.180000       12.0110           0
      3345 MEMB     95       SAPS     H10R     HAL2     0.900000E-01   1.00800           0
      3346 MEMB     95       SAPS     H10S     HAL2     0.900000E-01   1.00800           0
      3347 MEMB     95       SAPS     C211     CEL1    -0.150000       12.0110           0
      3348 MEMB     95       SAPS     H11R     HEL1     0.150000       1.00800           0
      3349 MEMB     95       SAPS     C212     CEL1    -0.150000       12.0110           0
      3350 MEMB     95       SAPS     H12R     HEL1     0.150000       1.00800           0
      3351 MEMB     95       SAPS     C213     CTL2    -0.180000       12.0110           0
      3352 MEMB     95       SAPS     H13R     HAL2     0.900000E-01   1.00800           0
      3353 MEMB     95       SAPS     H13S     HAL2     0.900000E-01   1.00800           0
      3354 MEMB     95       SAPS     C214     CEL1    -0.150000       12.0110           0
      3355 MEMB     95       SAPS     H14R     HEL1     0.150000       1.00800           0
      3356 MEMB     95       SAPS     C215     CEL1    -0.150000       12.0110           0
      3357 MEMB     95       SAPS     H15R     HEL1     0.150000       1.00800           0
      3358 MEMB     95       SAPS     C216     CTL2    -0.180000       12.0110           0
      3359 MEMB     95       SAPS     H16R     HAL2     0.900000E-01   1.00800           0
      3360 MEMB     95       SAPS     H16S     HAL2     0.900000E-01   1.00800           0
      3361 MEMB     95       SAPS     C217     CTL2    -0.180000       12.0110           0
      3362 MEMB     95       SAPS     H17R     HAL2     0.900000E-01   1.00800           0
      3363 MEMB     95       SAPS     H17S     HAL2     0.900000E-01   1.00800           0
      3364 MEMB     95       SAPS     C218     CTL2    -0.180000       12.0110           0
      3365 MEMB     95       SAPS     H18R     HAL2     0.900000E-01   1.00800           0
      3366 MEMB     95       SAPS     H18S     HAL2     0.900000E-01   1.00800           0
      3367 MEMB     95       SAPS     C219     CTL2    -0.180000       12.0110           0
      3368 MEMB     95       SAPS     H19R     HAL2     0.900000E-01   1.00800           0
      3369 MEMB     95       SAPS     H19S     HAL2     0.900000E-01   1.00800           0
      3370 MEMB     95       SAPS     C220     CTL3    -0.270000       12.0110           0
      3371 MEMB     95       SAPS     H20R     HAL3     0.900000E-01   1.00800           0
      3372 MEMB     95       SAPS     H20S     HAL3     0.900000E-01   1.00800           0
      3373 MEMB     95       SAPS     H20T     HAL3     0.900000E-01   1.00800           0
      3374 MEMB     95       SAPS     C33      CTL2    -0.180000       12.0110           0
      3375 MEMB     95       SAPS     H3X      HAL2     0.900000E-01   1.00800           0
      3376 MEMB     95       SAPS     H3Y      HAL2     0.900000E-01   1.00800           0
      3377 MEMB     95       SAPS     C34      CTL2    -0.180000       12.0110           0
      3378 MEMB     95       SAPS     H4X      HAL2     0.900000E-01   1.00800           0
      3379 MEMB     95       SAPS     H4Y      HAL2     0.900000E-01   1.00800           0
      3380 MEMB     95       SAPS     C35      CTL2    -0.180000       12.0110           0
      3381 MEMB     95       SAPS     H5X      HAL2     0.900000E-01   1.00800           0
      3382 MEMB     95       SAPS     H5Y      HAL2     0.900000E-01   1.00800           0
      3383 MEMB     95       SAPS     C36      CTL2    -0.180000       12.0110           0
      3384 MEMB     95       SAPS     H6X      HAL2     0.900000E-01   1.00800           0
      3385 MEMB     95       SAPS     H6Y      HAL2     0.900000E-01   1.00800           0
      3386 MEMB     95       SAPS     C37      CTL2    -0.180000       12.0110           0
      3387 MEMB     95       SAPS     H7X      HAL2     0.900000E-01   1.00800           0
      3388 MEMB     95       SAPS     H7Y      HAL2     0.900000E-01   1.00800           0
      3389 MEMB     95       SAPS     C38      CTL2    -0.180000       12.0110           0
      3390 MEMB     95       SAPS     H8X      HAL2     0.900000E-01   1.00800           0
      3391 MEMB     95       SAPS     H8Y      HAL2     0.900000E-01   1.00800           0
      3392 MEMB     95       SAPS     C39      CTL2    -0.180000       12.0110           0
      3393 MEMB     95       SAPS     H9X      HAL2     0.900000E-01   1.00800           0
      3394 MEMB     95       SAPS     H9Y      HAL2     0.900000E-01   1.00800           0
      3395 MEMB     95       SAPS     C310     CTL2    -0.180000       12.0110           0
      3396 MEMB     95       SAPS     H10X     HAL2     0.900000E-01   1.00800           0
      3397 MEMB     95       SAPS     H10Y     HAL2     0.900000E-01   1.00800           0
      3398 MEMB     95       SAPS     C311     CTL2    -0.180000       12.0110           0
      3399 MEMB     95       SAPS     H11X     HAL2     0.900000E-01   1.00800           0
      3400 MEMB     95       SAPS     H11Y     HAL2     0.900000E-01   1.00800           0
      3401 MEMB     95       SAPS     C312     CTL2    -0.180000       12.0110           0
      3402 MEMB     95       SAPS     H12X     HAL2     0.900000E-01   1.00800           0
      3403 MEMB     95       SAPS     H12Y     HAL2     0.900000E-01   1.00800           0
      3404 MEMB     95       SAPS     C313     CTL2    -0.180000       12.0110           0
      3405 MEMB     95       SAPS     H13X     HAL2     0.900000E-01   1.00800           0
      3406 MEMB     95       SAPS     H13Y     HAL2     0.900000E-01   1.00800           0
      3407 MEMB     95       SAPS     C314     CTL2    -0.180000       12.0110           0
      3408 MEMB     95       SAPS     H14X     HAL2     0.900000E-01   1.00800           0
      3409 MEMB     95       SAPS     H14Y     HAL2     0.900000E-01   1.00800           0
      3410 MEMB     95       SAPS     C315     CTL2    -0.180000       12.0110           0
      3411 MEMB     95       SAPS     H15X     HAL2     0.900000E-01   1.00800           0
      3412 MEMB     95       SAPS     H15Y     HAL2     0.900000E-01   1.00800           0
      3413 MEMB     95       SAPS     C316     CTL2    -0.180000       12.0110           0
      3414 MEMB     95       SAPS     H16X     HAL2     0.900000E-01   1.00800           0
      3415 MEMB     95       SAPS     H16Y     HAL2     0.900000E-01   1.00800           0
      3416 MEMB     95       SAPS     C317     CTL2    -0.180000       12.0110           0
      3417 MEMB     95       SAPS     H17X     HAL2     0.900000E-01   1.00800           0
      3418 MEMB     95       SAPS     H17Y     HAL2     0.900000E-01   1.00800           0
      3419 MEMB     95       SAPS     C318     CTL3    -0.270000       12.0110           0
      3420 MEMB     95       SAPS     H18X     HAL3     0.900000E-01   1.00800           0
      3421 MEMB     95       SAPS     H18Y     HAL3     0.900000E-01   1.00800           0
      3422 MEMB     95       SAPS     H18Z     HAL3     0.900000E-01   1.00800           0
      3423 MEMB     3        SAPE     N        NH3L    -0.300000       14.0070           0
      3424 MEMB     3        SAPE     HN1      HCL      0.330000       1.00800           0
      3425 MEMB     3        SAPE     HN2      HCL      0.330000       1.00800           0
      3426 MEMB     3        SAPE     HN3      HCL      0.330000       1.00800           0
      3427 MEMB     3        SAPE     C12      CTL2     0.130000       12.0110           0
      3428 MEMB     3        SAPE     H12A     HAL2     0.900000E-01   1.00800           0
      3429 MEMB     3        SAPE     H12B     HAL2     0.900000E-01   1.00800           0
      3430 MEMB     3        SAPE     C11      CTL2    -0.800000E-01   12.0110           0
      3431 MEMB     3        SAPE     H11A     HAL2     0.900000E-01   1.00800           0
      3432 MEMB     3        SAPE     H11B     HAL2     0.900000E-01   1.00800           0
      3433 MEMB     3        SAPE     P        PL       1.500000       30.9740           0
      3434 MEMB     3        SAPE     O13      O2L     -0.780000       15.9994           0
      3435 MEMB     3        SAPE     O14      O2L     -0.780000       15.9994           0
      3436 MEMB     3        SAPE     O12      OSLP    -0.570000       15.9994           0
      3437 MEMB     3        SAPE     O11      OSLP    -0.570000       15.9994           0
      3438 MEMB     3        SAPE     C1       CTL2    -0.800000E-01   12.0110           0
      3439 MEMB     3        SAPE     HA       HAL2     0.900000E-01   1.00800           0
      3440 MEMB     3        SAPE     HB       HAL2     0.900000E-01   1.00800           0
      3441 MEMB     3        SAPE     C2       CTL1     0.170000       12.0110           0
      3442 MEMB     3        SAPE     HS       HAL1     0.900000E-01   1.00800           0
      3443 MEMB     3        SAPE     O21      OSL     -0.490000       15.9994           0
      3444 MEMB     3        SAPE     C21      CL       0.900000       12.0110           0
      3445 MEMB     3        SAPE     O22      OBL     -0.630000       15.9994           0
      3446 MEMB     3        SAPE     C22      CTL2    -0.220000       12.0110           0
      3447 MEMB     3        SAPE     H2R      HAL2     0.900000E-01   1.00800           0
      3448 MEMB     3        SAPE     H2S      HAL2     0.900000E-01   1.00800           0
      3449 MEMB     3        SAPE     C3       CTL2     0.800000E-01   12.0110           0
      3450 MEMB     3        SAPE     HX       HAL2     0.900000E-01   1.00800           0
      3451 MEMB     3        SAPE     HY       HAL2     0.900000E-01   1.00800           0
      3452 MEMB     3        SAPE     O31      OSL     -0.490000       15.9994           0
      3453 MEMB     3        SAPE     C31      CL       0.900000       12.0110           0
      3454 MEMB     3        SAPE     O32      OBL     -0.630000       15.9994           0
      3455 MEMB     3        SAPE     C32      CTL2    -0.220000       12.0110           0
      3456 MEMB     3        SAPE     H2X      HAL2     0.900000E-01   1.00800           0
      3457 MEMB     3        SAPE     H2Y      HAL2     0.900000E-01   1.00800           0
      3458 MEMB     3        SAPE     C23      CTL2    -0.180000       12.0110           0
      3459 MEMB     3        SAPE     H3R      HAL2     0.900000E-01   1.00800           0
      3460 MEMB     3        SAPE     H3S      HAL2     0.900000E-01   1.00800           0
      3461 MEMB     3        SAPE     C24      CTL2    -0.180000       12.0110           0
      3462 MEMB     3        SAPE     H4R      HAL2     0.900000E-01   1.00800           0
      3463 MEMB     3        SAPE     H4S      HAL2     0.900000E-01   1.00800           0
      3464 MEMB     3        SAPE     C25      CEL1    -0.150000       12.0110           0
      3465 MEMB     3        SAPE     H5R      HEL1     0.150000       1.00800           0
      3466 MEMB     3        SAPE     C26      CEL1    -0.150000       12.0110           0
      3467 MEMB     3        SAPE     H6R      HEL1     0.150000       1.00800           0
      3468 MEMB     3        SAPE     C27      CTL2    -0.180000       12.0110           0
      3469 MEMB     3        SAPE     H7R      HAL2     0.900000E-01   1.00800           0
      3470 MEMB     3        SAPE     H7S      HAL2     0.900000E-01   1.00800           0
      3471 MEMB     3        SAPE     C28      CEL1    -0.150000       12.0110           0
      3472 MEMB     3        SAPE     H8R      HEL1     0.150000       1.00800           0
      3473 MEMB     3        SAPE     C29      CEL1    -0.150000       12.0110           0
      3474 MEMB     3        SAPE     H9R      HEL1     0.150000       1.00800           0
      3475 MEMB     3        SAPE     C210     CTL2    -0.180000       12.0110           0
      3476 MEMB     3        SAPE     H10R     HAL2     0.900000E-01   1.00800           0
      3477 MEMB     3        SAPE     H10S     HAL2     0.900000E-01   1.00800           0
      3478 MEMB     3        SAPE     C211     CEL1    -0.150000       12.0110           0
      3479 MEMB     3        SAPE     H11R     HEL1     0.150000       1.00800           0
      3480 MEMB     3        SAPE     C212     CEL1    -0.150000       12.0110           0
      3481 MEMB     3        SAPE     H12R     HEL1     0.150000       1.00800           0
      3482 MEMB     3        SAPE     C213     CTL2    -0.180000       12.0110           0
      3483 MEMB     3        SAPE     H13R     HAL2     0.900000E-01   1.00800           0
      3484 MEMB     3        SAPE     H13S     HAL2     0.900000E-01   1.00800           0
      3485 MEMB     3        SAPE     C214     CEL1    -0.150000       12.0110           0
      3486 MEMB     3        SAPE     H14R     HEL1     0.150000       1.00800           0
      3487 MEMB     3        SAPE     C215     CEL1    -0.150000       12.0110           0
      3488 MEMB     3        SAPE     H15R     HEL1     0.150000       1.00800           0
      3489 MEMB     3        SAPE     C216     CTL2    -0.180000       12.0110           0
      3490 MEMB     3        SAPE     H16R     HAL2     0.900000E-01   1.00800           0
      3491 MEMB     3        SAPE     H16S     HAL2     0.900000E-01   1.00800           0
      3492 MEMB     3        SAPE     C217     CTL2    -0.180000       12.0110           0
      3493 MEMB     3        SAPE     H17R     HAL2     0.900000E-01   1.00800           0
      3494 MEMB     3        SAPE     H17S     HAL2     0.900000E-01   1.00800           0
      3495 MEMB     3        SAPE     C218     CTL2    -0.180000       12.0110           0
      3496 MEMB     3        SAPE     H18R     HAL2     0.900000E-01   1.00800           0
      3497 MEMB     3        SAPE     H18S     HAL2     0.900000E-01   1.00800           0
      3498 MEMB     3        SAPE     C219     CTL2    -0.180000       12.0110           0
      3499 MEMB     3        SAPE     H19R     HAL2     0.900000E-01   1.00800           0
      3500 MEMB     3        SAPE     H19S     HAL2     0.900000E-01   1.00800           0
      3501 MEMB     3        SAPE     C220     CTL3    -0.270000       12.0110           0
      3502 MEMB     3        SAPE     H20R     HAL3     0.900000E-01   1.00800           0
      3503 MEMB     3        SAPE     H20S     HAL3     0.900000E-01   1.00800           0
      3504 MEMB     3        SAPE     H20T     HAL3     0.900000E-01   1.00800           0
      3505 MEMB     3        SAPE     C33      CTL2    -0.180000       12.0110           0
      3506 MEMB     3        SAPE     H3X      HAL2     0.900000E-01   1.00800           0
      3507 MEMB     3        SAPE     H3Y      HAL2     0.900000E-01   1.00800           0
      3508 MEMB     3        SAPE     C34      CTL2    -0.180000       12.0110           0
      3509 MEMB     3        SAPE     H4X      HAL2     0.900000E-01   1.00800           0
      3510 MEMB     3        SAPE     H4Y      HAL2     0.900000E-01   1.00800           0
      3511 MEMB     3        SAPE     C35      CTL2    -0.180000       12.0110           0
      3512 MEMB     3        SAPE     H5X      HAL2     0.900000E-01   1.00800           0
      3513 MEMB     3        SAPE     H5Y      HAL2     0.900000E-01   1.00800           0
      3514 MEMB     3        SAPE     C36      CTL2    -0.180000       12.0110           0
      3515 MEMB     3        SAPE     H6X      HAL2     0.900000E-01   1.00800           0
      3516 MEMB     3        SAPE     H6Y      HAL2     0.900000E-01   1.00800           0
      3517 MEMB     3        SAPE     C37      CTL2    -0.180000       12.0110           0
      3518 MEMB     3        SAPE     H7X      HAL2     0.900000E-01   1.00800           0
      3519 MEMB     3        SAPE     H7Y      HAL2     0.900000E-01   1.00800           0
      3520 MEMB     3        SAPE     C38      CTL2    -0.180000       12.0110           0
      3521 MEMB     3        SAPE     H8X      HAL2     0.900000E-01   1.00800           0
      3522 MEMB     3        SAPE     H8Y      HAL2     0.900000E-01   1.00800           0
      3523 MEMB     3        SAPE     C39      CTL2    -0.180000       12.0110           0
      3524 MEMB     3        SAPE     H9X      HAL2     0.900000E-01   1.00800           0
      3525 MEMB     3        SAPE     H9Y      HAL2     0.900000E-01   1.00800           0
      3526 MEMB     3        SAPE     C310     CTL2    -0.180000       12.0110           0
      3527 MEMB     3        SAPE     H10X     HAL2     0.900000E-01   1.00800           0
      3528 MEMB     3        SAPE     H10Y     HAL2     0.900000E-01   1.00800           0
      3529 MEMB     3        SAPE     C311     CTL2    -0.180000       12.0110           0
      3530 MEMB     3        SAPE     H11X     HAL2     0.900000E-01   1.00800           0
      3531 MEMB     3        SAPE     H11Y     HAL2     0.900000E-01   1.00800           0
      3532 MEMB     3        SAPE     C312     CTL2    -0.180000       12.0110           0
      3533 MEMB     3        SAPE     H12X     HAL2     0.900000E-01   1.00800           0
      3534 MEMB     3        SAPE     H12Y     HAL2     0.900000E-01   1.00800           0
      3535 MEMB     3        SAPE     C313     CTL2    -0.180000       12.0110           0
      3536 MEMB     3        SAPE     H13X     HAL2     0.900000E-01   1.00800           0
      3537 MEMB     3        SAPE     H13Y     HAL2     0.900000E-01   1.00800           0
      3538 MEMB     3        SAPE     C314     CTL2    -0.180000       12.0110           0
      3539 MEMB     3        SAPE     H14X     HAL2     0.900000E-01   1.00800           0
      3540 MEMB     3        SAPE     H14Y     HAL2     0.900000E-01   1.00800           0
      3541 MEMB     3        SAPE     C315     CTL2    -0.180000       12.0110           0
      3542 MEMB     3        SAPE     H15X     HAL2     0.900000E-01   1.00800           0
      3543 MEMB     3        SAPE     H15Y     HAL2     0.900000E-01   1.00800           0
      3544 MEMB     3        SAPE     C316     CTL2    -0.180000       12.0110           0
      3545 MEMB     3        SAPE     H16X     HAL2     0.900000E-01   1.00800           0
      3546 MEMB     3        SAPE     H16Y     HAL2     0.900000E-01   1.00800           0
      3547 MEMB     3        SAPE     C317     CTL2    -0.180000       12.0110           0
      3548 MEMB     3        SAPE     H17X     HAL2     0.900000E-01   1.00800           0
      3549 MEMB     3        SAPE     H17Y     HAL2     0.900000E-01   1.00800           0
      3550 MEMB     3        SAPE     C318     CTL3    -0.270000       12.0110           0
      3551 MEMB     3        SAPE     H18X     HAL3     0.900000E-01   1.00800           0
      3552 MEMB     3        SAPE     H18Y     HAL3     0.900000E-01   1.00800           0
      3553 MEMB     3        SAPE     H18Z     HAL3     0.900000E-01   1.00800           0
      3554 MEMB     5        SAPE     N        NH3L    -0.300000       14.0070           0
      3555 MEMB     5        SAPE     HN1      HCL      0.330000       1.00800           0
      3556 MEMB     5        SAPE     HN2      HCL      0.330000       1.00800           0
      3557 MEMB     5        SAPE     HN3      HCL      0.330000       1.00800           0
      3558 MEMB     5        SAPE     C12      CTL2     0.130000       12.0110           0
      3559 MEMB     5        SAPE     H12A     HAL2     0.900000E-01   1.00800           0
      3560 MEMB     5        SAPE     H12B     HAL2     0.900000E-01   1.00800           0
      3561 MEMB     5        SAPE     C11      CTL2    -0.800000E-01   12.0110           0
      3562 MEMB     5        SAPE     H11A     HAL2     0.900000E-01   1.00800           0
      3563 MEMB     5        SAPE     H11B     HAL2     0.900000E-01   1.00800           0
      3564 MEMB     5        SAPE     P        PL       1.500000       30.9740           0
      3565 MEMB     5        SAPE     O13      O2L     -0.780000       15.9994           0
      3566 MEMB     5        SAPE     O14      O2L     -0.780000       15.9994           0
      3567 MEMB     5        SAPE     O12      OSLP    -0.570000       15.9994           0
      3568 MEMB     5        SAPE     O11      OSLP    -0.570000       15.9994           0
      3569 MEMB     5        SAPE     C1       CTL2    -0.800000E-01   12.0110           0
      3570 MEMB     5        SAPE     HA       HAL2     0.900000E-01   1.00800           0
      3571 MEMB     5        SAPE     HB       HAL2     0.900000E-01   1.00800           0
      3572 MEMB     5        SAPE     C2       CTL1     0.170000       12.0110           0
      3573 MEMB     5        SAPE     HS       HAL1     0.900000E-01   1.00800           0
      3574 MEMB     5        SAPE     O21      OSL     -0.490000       15.9994           0
      3575 MEMB     5        SAPE     C21      CL       0.900000       12.0110           0
      3576 MEMB     5        SAPE     O22      OBL     -0.630000       15.9994           0
      3577 MEMB     5        SAPE     C22      CTL2    -0.220000       12.0110           0
      3578 MEMB     5        SAPE     H2R      HAL2     0.900000E-01   1.00800           0
      3579 MEMB     5        SAPE     H2S      HAL2     0.900000E-01   1.00800           0
      3580 MEMB     5        SAPE     C3       CTL2     0.800000E-01   12.0110           0
      3581 MEMB     5        SAPE     HX       HAL2     0.900000E-01   1.00800           0
      3582 MEMB     5        SAPE     HY       HAL2     0.900000E-01   1.00800           0
      3583 MEMB     5        SAPE     O31      OSL     -0.490000       15.9994           0
      3584 MEMB     5        SAPE     C31      CL       0.900000       12.0110           0
      3585 MEMB     5        SAPE     O32      OBL     -0.630000       15.9994           0
      3586 MEMB     5        SAPE     C32      CTL2    -0.220000       12.0110           0
      3587 MEMB     5        SAPE     H2X      HAL2     0.900000E-01   1.00800           0
      3588 MEMB     5        SAPE     H2Y      HAL2     0.900000E-01   1.00800           0
      3589 MEMB     5        SAPE     C23      CTL2    -0.180000       12.0110           0
      3590 MEMB     5        SAPE     H3R      HAL2     0.900000E-01   1.00800           0
      3591 MEMB     5        SAPE     H3S      HAL2     0.900000E-01   1.00800           0
      3592 MEMB     5        SAPE     C24      CTL2    -0.180000       12.0110           0
      3593 MEMB     5        SAPE     H4R      HAL2     0.900000E-01   1.00800           0
      3594 MEMB     5        SAPE     H4S      HAL2     0.900000E-01   1.00800           0
      3595 MEMB     5        SAPE     C25      CEL1    -0.150000       12.0110           0
      3596 MEMB     5        SAPE     H5R      HEL1     0.150000       1.00800           0
      3597 MEMB     5        SAPE     C26      CEL1    -0.150000       12.0110           0
      3598 MEMB     5        SAPE     H6R      HEL1     0.150000       1.00800           0
      3599 MEMB     5        SAPE     C27      CTL2    -0.180000       12.0110           0
      3600 MEMB     5        SAPE     H7R      HAL2     0.900000E-01   1.00800           0
      3601 MEMB     5        SAPE     H7S      HAL2     0.900000E-01   1.00800           0
      3602 MEMB     5        SAPE     C28      CEL1    -0.150000       12.0110           0
      3603 MEMB     5        SAPE     H8R      HEL1     0.150000       1.00800           0
      3604 MEMB     5        SAPE     C29      CEL1    -0.150000       12.0110           0
      3605 MEMB     5        SAPE     H9R      HEL1     0.150000       1.00800           0
      3606 MEMB     5        SAPE     C210     CTL2    -0.180000       12.0110           0
      3607 MEMB     5        SAPE     H10R     HAL2     0.900000E-01   1.00800           0
      3608 MEMB     5        SAPE     H10S     HAL2     0.900000E-01   1.00800           0
      3609 MEMB     5        SAPE     C211     CEL1    -0.150000       12.0110           0
      3610 MEMB     5        SAPE     H11R     HEL1     0.150000       1.00800           0
      3611 MEMB     5        SAPE     C212     CEL1    -0.150000       12.0110           0
      3612 MEMB     5        SAPE     H12R     HEL1     0.150000       1.00800           0
      3613 MEMB     5        SAPE     C213     CTL2    -0.180000       12.0110           0
      3614 MEMB     5        SAPE     H13R     HAL2     0.900000E-01   1.00800           0
      3615 MEMB     5        SAPE     H13S     HAL2     0.900000E-01   1.00800           0
      3616 MEMB     5        SAPE     C214     CEL1    -0.150000       12.0110           0
      3617 MEMB     5        SAPE     H14R     HEL1     0.150000       1.00800           0
      3618 MEMB     5        SAPE     C215     CEL1    -0.150000       12.0110           0
      3619 MEMB     5        SAPE     H15R     HEL1     0.150000       1.00800           0
      3620 MEMB     5        SAPE     C216     CTL2    -0.180000       12.0110           0
      3621 MEMB     5        SAPE     H16R     HAL2     0.900000E-01   1.00800           0
      3622 MEMB     5        SAPE     H16S     HAL2     0.900000E-01   1.00800           0
      3623 MEMB     5        SAPE     C217     CTL2    -0.180000       12.0110           0
      3624 MEMB     5        SAPE     H17R     HAL2     0.900000E-01   1.00800           0
      3625 MEMB     5        SAPE     H17S     HAL2     0.900000E-01   1.00800           0
      3626 MEMB     5        SAPE     C218     CTL2    -0.180000       12.0110           0
      3627 MEMB     5        SAPE     H18R     HAL2     0.900000E-01   1.00800           0
      3628 MEMB     5        SAPE     H18S     HAL2     0.900000E-01   1.00800           0
      3629 MEMB     5        SAPE     C219     CTL2    -0.180000       12.0110           0
      3630 MEMB     5        SAPE     H19R     HAL2     0.900000E-01   1.00800           0
      3631 MEMB     5        SAPE     H19S     HAL2     0.900000E-01   1.00800           0
      3632 MEMB     5        SAPE     C220     CTL3    -0.270000       12.0110           0
      3633 MEMB     5        SAPE     H20R     HAL3     0.900000E-01   1.00800           0
      3634 MEMB     5        SAPE     H20S     HAL3     0.900000E-01   1.00800           0
      3635 MEMB     5        SAPE     H20T     HAL3     0.900000E-01   1.00800           0
      3636 MEMB     5        SAPE     C33      CTL2    -0.180000       12.0110           0
      3637 MEMB     5        SAPE     H3X      HAL2     0.900000E-01   1.00800           0
      3638 MEMB     5        SAPE     H3Y      HAL2     0.900000E-01   1.00800           0
      3639 MEMB     5        SAPE     C34      CTL2    -0.180000       12.0110           0
      3640 MEMB     5        SAPE     H4X      HAL2     0.900000E-01   1.00800           0
      3641 MEMB     5        SAPE     H4Y      HAL2     0.900000E-01   1.00800           0
      3642 MEMB     5        SAPE     C35      CTL2    -0.180000       12.0110           0
      3643 MEMB     5        SAPE     H5X      HAL2     0.900000E-01   1.00800           0
      3644 MEMB     5        SAPE     H5Y      HAL2     0.900000E-01   1.00800           0
      3645 MEMB     5        SAPE     C36      CTL2    -0.180000       12.0110           0
      3646 MEMB     5        SAPE     H6X      HAL2     0.900000E-01   1.00800           0
      3647 MEMB     5        SAPE     H6Y      HAL2     0.900000E-01   1.00800           0
      3648 MEMB     5        SAPE     C37      CTL2    -0.180000       12.0110           0
      3649 MEMB     5        SAPE     H7X      HAL2     0.900000E-01   1.00800           0
      3650 MEMB     5        SAPE     H7Y      HAL2     0.900000E-01   1.00800           0
      3651 MEMB     5        SAPE     C38      CTL2    -0.180000       12.0110           0
      3652 MEMB     5        SAPE     H8X      HAL2     0.900000E-01   1.00800           0
      3653 MEMB     5        SAPE     H8Y      HAL2     0.900000E-01   1.00800           0
      3654 MEMB     5        SAPE     C39      CTL2    -0.180000       12.0110           0
      3655 MEMB     5        SAPE     H9X      HAL2     0.900000E-01   1.00800           0
      3656 MEMB     5        SAPE     H9Y      HAL2     0.900000E-01   1.00800           0
      3657 MEMB     5        SAPE     C310     CTL2    -0.180000       12.0110           0
      3658 MEMB     5        SAPE     H10X     HAL2     0.900000E-01   1.00800           0
      3659 MEMB     5        SAPE     H10Y     HAL2     0.900000E-01   1.00800           0
      3660 MEMB     5        SAPE     C311     CTL2    -0.180000       12.0110           0
      3661 MEMB     5        SAPE     H11X     HAL2     0.900000E-01   1.00800           0
      3662 MEMB     5        SAPE     H11Y     HAL2     0.900000E-01   1.00800           0
      3663 MEMB     5        SAPE     C312     CTL2    -0.180000       12.0110           0
      3664 MEMB     5        SAPE     H12X     HAL2     0.900000E-01   1.00800           0
      3665 MEMB     5        SAPE     H12Y     HAL2     0.900000E-01   1.00800           0
      3666 MEMB     5        SAPE     C313     CTL2    -0.180000       12.0110           0
      3667 MEMB     5        SAPE     H13X     HAL2     0.900000E-01   1.00800           0
      3668 MEMB     5        SAPE     H13Y     HAL2     0.900000E-01   1.00800           0
      3669 MEMB     5        SAPE     C314     CTL2    -0.180000       12.0110           0
      3670 MEMB     5        SAPE     H14X     HAL2     0.900000E-01   1.00800           0
      3671 MEMB     5        SAPE     H14Y     HAL2     0.900000E-01   1.00800           0
      3672 MEMB     5        SAPE     C315     CTL2    -0.180000       12.0110           0
      3673 MEMB     5        SAPE     H15X     HAL2     0.900000E-01   1.00800           0
      3674 MEMB     5        SAPE     H15Y     HAL2     0.900000E-01   1.00800           0
      3675 MEMB     5        SAPE     C316     CTL2    -0.180000       12.0110           0
      3676 MEMB     5        SAPE     H16X     HAL2     0.900000E-01   1.00800           0
      3677 MEMB     5        SAPE     H16Y     HAL2     0.900000E-01   1.00800           0
      3678 MEMB     5        SAPE     C317     CTL2    -0.180000       12.0110           0
      3679 MEMB     5        SAPE     H17X     HAL2     0.900000E-01   1.00800           0
      3680 MEMB     5        SAPE     H17Y     HAL2     0.900000E-01   1.00800           0
      3681 MEMB     5        SAPE     C318     CTL3    -0.270000       12.0110           0
      3682 MEMB     5        SAPE     H18X     HAL3     0.900000E-01   1.00800           0
      3683 MEMB     5        SAPE     H18Y     HAL3     0.900000E-01   1.00800           0
      3684 MEMB     5        SAPE     H18Z     HAL3     0.900000E-01   1.00800           0
      3685 MEMB     12       SAPE     N        NH3L    -0.300000       14.0070           0
      3686 MEMB     12       SAPE     HN1      HCL      0.330000       1.00800           0
      3687 MEMB     12       SAPE     HN2      HCL      0.330000       1.00800           0
      3688 MEMB     12       SAPE     HN3      HCL      0.330000       1.00800           0
      3689 MEMB     12       SAPE     C12      CTL2     0.130000       12.0110           0
      3690 MEMB     12       SAPE     H12A     HAL2     0.900000E-01   1.00800           0
      3691 MEMB     12       SAPE     H12B     HAL2     0.900000E-01   1.00800           0
      3692 MEMB     12       SAPE     C11      CTL2    -0.800000E-01   12.0110           0
      3693 MEMB     12       SAPE     H11A     HAL2     0.900000E-01   1.00800           0
      3694 MEMB     12       SAPE     H11B     HAL2     0.900000E-01   1.00800           0
      3695 MEMB     12       SAPE     P        PL       1.500000       30.9740           0
      3696 MEMB     12       SAPE     O13      O2L     -0.780000       15.9994           0
      3697 MEMB     12       SAPE     O14      O2L     -0.780000       15.9994           0
      3698 MEMB     12       SAPE     O12      OSLP    -0.570000       15.9994           0
      3699 MEMB     12       SAPE     O11      OSLP    -0.570000       15.9994           0
      3700 MEMB     12       SAPE     C1       CTL2    -0.800000E-01   12.0110           0
      3701 MEMB     12       SAPE     HA       HAL2     0.900000E-01   1.00800           0
      3702 MEMB     12       SAPE     HB       HAL2     0.900000E-01   1.00800           0
      3703 MEMB     12       SAPE     C2       CTL1     0.170000       12.0110           0
      3704 MEMB     12       SAPE     HS       HAL1     0.900000E-01   1.00800           0
      3705 MEMB     12       SAPE     O21      OSL     -0.490000       15.9994           0
      3706 MEMB     12       SAPE     C21      CL       0.900000       12.0110           0
      3707 MEMB     12       SAPE     O22      OBL     -0.630000       15.9994           0
      3708 MEMB     12       SAPE     C22      CTL2    -0.220000       12.0110           0
      3709 MEMB     12       SAPE     H2R      HAL2     0.900000E-01   1.00800           0
      3710 MEMB     12       SAPE     H2S      HAL2     0.900000E-01   1.00800           0
      3711 MEMB     12       SAPE     C3       CTL2     0.800000E-01   12.0110           0
      3712 MEMB     12       SAPE     HX       HAL2     0.900000E-01   1.00800           0
      3713 MEMB     12       SAPE     HY       HAL2     0.900000E-01   1.00800           0
      3714 MEMB     12       SAPE     O31      OSL     -0.490000       15.9994           0
      3715 MEMB     12       SAPE     C31      CL       0.900000       12.0110           0
      3716 MEMB     12       SAPE     O32      OBL     -0.630000       15.9994           0
      3717 MEMB     12       SAPE     C32      CTL2    -0.220000       12.0110           0
      3718 MEMB     12       SAPE     H2X      HAL2     0.900000E-01   1.00800           0
      3719 MEMB     12       SAPE     H2Y      HAL2     0.900000E-01   1.00800           0
      3720 MEMB     12       SAPE     C23      CTL2    -0.180000       12.0110           0
      3721 MEMB     12       SAPE     H3R      HAL2     0.900000E-01   1.00800           0
      3722 MEMB     12       SAPE     H3S      HAL2     0.900000E-01   1.00800           0
      3723 MEMB     12       SAPE     C24      CTL2    -0.180000       12.0110           0
      3724 MEMB     12       SAPE     H4R      HAL2     0.900000E-01   1.00800           0
      3725 MEMB     12       SAPE     H4S      HAL2     0.900000E-01   1.00800           0
      3726 MEMB     12       SAPE     C25      CEL1    -0.150000       12.0110           0
      3727 MEMB     12       SAPE     H5R      HEL1     0.150000       1.00800           0
      3728 MEMB     12       SAPE     C26      CEL1    -0.150000       12.0110           0
      3729 MEMB     12       SAPE     H6R      HEL1     0.150000       1.00800           0
      3730 MEMB     12       SAPE     C27      CTL2    -0.180000       12.0110           0
      3731 MEMB     12       SAPE     H7R      HAL2     0.900000E-01   1.00800           0
      3732 MEMB     12       SAPE     H7S      HAL2     0.900000E-01   1.00800           0
      3733 MEMB     12       SAPE     C28      CEL1    -0.150000       12.0110           0
      3734 MEMB     12       SAPE     H8R      HEL1     0.150000       1.00800           0
      3735 MEMB     12       SAPE     C29      CEL1    -0.150000       12.0110           0
      3736 MEMB     12       SAPE     H9R      HEL1     0.150000       1.00800           0
      3737 MEMB     12       SAPE     C210     CTL2    -0.180000       12.0110           0
      3738 MEMB     12       SAPE     H10R     HAL2     0.900000E-01   1.00800           0
      3739 MEMB     12       SAPE     H10S     HAL2     0.900000E-01   1.00800           0
      3740 MEMB     12       SAPE     C211     CEL1    -0.150000       12.0110           0
      3741 MEMB     12       SAPE     H11R     HEL1     0.150000       1.00800           0
      3742 MEMB     12       SAPE     C212     CEL1    -0.150000       12.0110           0
      3743 MEMB     12       SAPE     H12R     HEL1     0.150000       1.00800           0
      3744 MEMB     12       SAPE     C213     CTL2    -0.180000       12.0110           0
      3745 MEMB     12       SAPE     H13R     HAL2     0.900000E-01   1.00800           0
      3746 MEMB     12       SAPE     H13S     HAL2     0.900000E-01   1.00800           0
      3747 MEMB     12       SAPE     C214     CEL1    -0.150000       12.0110           0
      3748 MEMB     12       SAPE     H14R     HEL1     0.150000       1.00800           0
      3749 MEMB     12       SAPE     C215     CEL1    -0.150000       12.0110           0
      3750 MEMB     12       SAPE     H15R     HEL1     0.150000       1.00800           0
      3751 MEMB     12       SAPE     C216     CTL2    -0.180000       12.0110           0
      3752 MEMB     12       SAPE     H16R     HAL2     0.900000E-01   1.00800           0
      3753 MEMB     12       SAPE     H16S     HAL2     0.900000E-01   1.00800           0
      3754 MEMB     12       SAPE     C217     CTL2    -0.180000       12.0110           0
      3755 MEMB     12       SAPE     H17R     HAL2     0.900000E-01   1.00800           0
      3756 MEMB     12       SAPE     H17S     HAL2     0.900000E-01   1.00800           0
      3757 MEMB     12       SAPE     C218     CTL2    -0.180000       12.0110           0
      3758 MEMB     12       SAPE     H18R     HAL2     0.900000E-01   1.00800           0
      3759 MEMB     12       SAPE     H18S     HAL2     0.900000E-01   1.00800           0
      3760 MEMB     12       SAPE     C219     CTL2    -0.180000       12.0110           0
      3761 MEMB     12       SAPE     H19R     HAL2     0.900000E-01   1.00800           0
      3762 MEMB     12       SAPE     H19S     HAL2     0.900000E-01   1.00800           0
      3763 MEMB     12       SAPE     C220     CTL3    -0.270000       12.0110           0
      3764 MEMB     12       SAPE     H20R     HAL3     0.900000E-01   1.00800           0
      3765 MEMB     12       SAPE     H20S     HAL3     0.900000E-01   1.00800           0
      3766 MEMB     12       SAPE     H20T     HAL3     0.900000E-01   1.00800           0
      3767 MEMB     12       SAPE     C33      CTL2    -0.180000       12.0110           0
      3768 MEMB     12       SAPE     H3X      HAL2     0.900000E-01   1.00800           0
      3769 MEMB     12       SAPE     H3Y      HAL2     0.900000E-01   1.00800           0
      3770 MEMB     12       SAPE     C34      CTL2    -0.180000       12.0110           0
      3771 MEMB     12       SAPE     H4X      HAL2     0.900000E-01   1.00800           0
      3772 MEMB     12       SAPE     H4Y      HAL2     0.900000E-01   1.00800           0
      3773 MEMB     12       SAPE     C35      CTL2    -0.180000       12.0110           0
      3774 MEMB     12       SAPE     H5X      HAL2     0.900000E-01   1.00800           0
      3775 MEMB     12       SAPE     H5Y      HAL2     0.900000E-01   1.00800           0
      3776 MEMB     12       SAPE     C36      CTL2    -0.180000       12.0110           0
      3777 MEMB     12       SAPE     H6X      HAL2     0.900000E-01   1.00800           0
      3778 MEMB     12       SAPE     H6Y      HAL2     0.900000E-01   1.00800           0
      3779 MEMB     12       SAPE     C37      CTL2    -0.180000       12.0110           0
      3780 MEMB     12       SAPE     H7X      HAL2     0.900000E-01   1.00800           0
      3781 MEMB     12       SAPE     H7Y      HAL2     0.900000E-01   1.00800           0
      3782 MEMB     12       SAPE     C38      CTL2    -0.180000       12.0110           0
      3783 MEMB     12       SAPE     H8X      HAL2     0.900000E-01   1.00800           0
      3784 MEMB     12       SAPE     H8Y      HAL2     0.900000E-01   1.00800           0
      3785 MEMB     12       SAPE     C39      CTL2    -0.180000       12.0110           0
      3786 MEMB     12       SAPE     H9X      HAL2     0.900000E-01   1.00800           0
      3787 MEMB     12       SAPE     H9Y      HAL2     0.900000E-01   1.00800           0
      3788 MEMB     12       SAPE     C310     CTL2    -0.180000       12.0110           0
      3789 MEMB     12       SAPE     H10X     HAL2     0.900000E-01   1.00800           0
      3790 MEMB     12       SAPE     H10Y     HAL2     0.900000E-01   1.00800           0
      3791 MEMB     12       SAPE     C311     CTL2    -0.180000       12.0110           0
      3792 MEMB     12       SAPE     H11X     HAL2     0.900000E-01   1.00800           0
      3793 MEMB     12       SAPE     H11Y     HAL2     0.900000E-01   1.00800           0
      3794 MEMB     12       SAPE     C312     CTL2    -0.180000       12.0110           0
      3795 MEMB     12       SAPE     H12X     HAL2     0.900000E-01   1.00800           0
      3796 MEMB     12       SAPE     H12Y     HAL2     0.900000E-01   1.00800           0
      3797 MEMB     12       SAPE     C313     CTL2    -0.180000       12.0110           0
      3798 MEMB     12       SAPE     H13X     HAL2     0.900000E-01   1.00800           0
      3799 MEMB     12       SAPE     H13Y     HAL2     0.900000E-01   1.00800           0
      3800 MEMB     12       SAPE     C314     CTL2    -0.180000       12.0110           0
      3801 MEMB     12       SAPE     H14X     HAL2     0.900000E-01   1.00800           0
      3802 MEMB     12       SAPE     H14Y     HAL2     0.900000E-01   1.00800           0
      3803 MEMB     12       SAPE     C315     CTL2    -0.180000       12.0110           0
      3804 MEMB     12       SAPE     H15X     HAL2     0.900000E-01   1.00800           0
      3805 MEMB     12       SAPE     H15Y     HAL2     0.900000E-01   1.00800           0
      3806 MEMB     12       SAPE     C316     CTL2    -0.180000       12.0110           0
      3807 MEMB     12       SAPE     H16X     HAL2     0.900000E-01   1.00800           0
      3808 MEMB     12       SAPE     H16Y     HAL2     0.900000E-01   1.00800           0
      3809 MEMB     12       SAPE     C317     CTL2    -0.180000       12.0110           0
      3810 MEMB     12       SAPE     H17X     HAL2     0.900000E-01   1.00800           0
      3811 MEMB     12       SAPE     H17Y     HAL2     0.900000E-01   1.00800           0
      3812 MEMB     12       SAPE     C318     CTL3    -0.270000       12.0110           0
      3813 MEMB     12       SAPE     H18X     HAL3     0.900000E-01   1.00800           0
      3814 MEMB     12       SAPE     H18Y     HAL3     0.900000E-01   1.00800           0
      3815 MEMB     12       SAPE     H18Z     HAL3     0.900000E-01   1.00800           0
      3816 MEMB     18       SAPE     N        NH3L    -0.300000       14.0070           0
      3817 MEMB     18       SAPE     HN1      HCL      0.330000       1.00800           0
      3818 MEMB     18       SAPE     HN2      HCL      0.330000       1.00800           0
      3819 MEMB     18       SAPE     HN3      HCL      0.330000       1.00800           0
      3820 MEMB     18       SAPE     C12      CTL2     0.130000       12.0110           0
      3821 MEMB     18       SAPE     H12A     HAL2     0.900000E-01   1.00800           0
      3822 MEMB     18       SAPE     H12B     HAL2     0.900000E-01   1.00800           0
      3823 MEMB     18       SAPE     C11      CTL2    -0.800000E-01   12.0110           0
      3824 MEMB     18       SAPE     H11A     HAL2     0.900000E-01   1.00800           0
      3825 MEMB     18       SAPE     H11B     HAL2     0.900000E-01   1.00800           0
      3826 MEMB     18       SAPE     P        PL       1.500000       30.9740           0
      3827 MEMB     18       SAPE     O13      O2L     -0.780000       15.9994           0
      3828 MEMB     18       SAPE     O14      O2L     -0.780000       15.9994           0
      3829 MEMB     18       SAPE     O12      OSLP    -0.570000       15.9994           0
      3830 MEMB     18       SAPE     O11      OSLP    -0.570000       15.9994           0
      3831 MEMB     18       SAPE     C1       CTL2    -0.800000E-01   12.0110           0
      3832 MEMB     18       SAPE     HA       HAL2     0.900000E-01   1.00800           0
      3833 MEMB     18       SAPE     HB       HAL2     0.900000E-01   1.00800           0
      3834 MEMB     18       SAPE     C2       CTL1     0.170000       12.0110           0
      3835 MEMB     18       SAPE     HS       HAL1     0.900000E-01   1.00800           0
      3836 MEMB     18       SAPE     O21      OSL     -0.490000       15.9994           0
      3837 MEMB     18       SAPE     C21      CL       0.900000       12.0110           0
      3838 MEMB     18       SAPE     O22      OBL     -0.630000       15.9994           0
      3839 MEMB     18       SAPE     C22      CTL2    -0.220000       12.0110           0
      3840 MEMB     18       SAPE     H2R      HAL2     0.900000E-01   1.00800           0
      3841 MEMB     18       SAPE     H2S      HAL2     0.900000E-01   1.00800           0
      3842 MEMB     18       SAPE     C3       CTL2     0.800000E-01   12.0110           0
      3843 MEMB     18       SAPE     HX       HAL2     0.900000E-01   1.00800           0
      3844 MEMB     18       SAPE     HY       HAL2     0.900000E-01   1.00800           0
      3845 MEMB     18       SAPE     O31      OSL     -0.490000       15.9994           0
      3846 MEMB     18       SAPE     C31      CL       0.900000       12.0110           0
      3847 MEMB     18       SAPE     O32      OBL     -0.630000       15.9994           0
      3848 MEMB     18       SAPE     C32      CTL2    -0.220000       12.0110           0
      3849 MEMB     18       SAPE     H2X      HAL2     0.900000E-01   1.00800           0
      3850 MEMB     18       SAPE     H2Y      HAL2     0.900000E-01   1.00800           0
      3851 MEMB     18       SAPE     C23      CTL2    -0.180000       12.0110           0
      3852 MEMB     18       SAPE     H3R      HAL2     0.900000E-01   1.00800           0
      3853 MEMB     18       SAPE     H3S      HAL2     0.900000E-01   1.00800           0
      3854 MEMB     18       SAPE     C24      CTL2    -0.180000       12.0110           0
      3855 MEMB     18       SAPE     H4R      HAL2     0.900000E-01   1.00800           0
      3856 MEMB     18       SAPE     H4S      HAL2     0.900000E-01   1.00800           0
      3857 MEMB     18       SAPE     C25      CEL1    -0.150000       12.0110           0
      3858 MEMB     18       SAPE     H5R      HEL1     0.150000       1.00800           0
      3859 MEMB     18       SAPE     C26      CEL1    -0.150000       12.0110           0
      3860 MEMB     18       SAPE     H6R      HEL1     0.150000       1.00800           0
      3861 MEMB     18       SAPE     C27      CTL2    -0.180000       12.0110           0
      3862 MEMB     18       SAPE     H7R      HAL2     0.900000E-01   1.00800           0
      3863 MEMB     18       SAPE     H7S      HAL2     0.900000E-01   1.00800           0
      3864 MEMB     18       SAPE     C28      CEL1    -0.150000       12.0110           0
      3865 MEMB     18       SAPE     H8R      HEL1     0.150000       1.00800           0
      3866 MEMB     18       SAPE     C29      CEL1    -0.150000       12.0110           0
      3867 MEMB     18       SAPE     H9R      HEL1     0.150000       1.00800           0
      3868 MEMB     18       SAPE     C210     CTL2    -0.180000       12.0110           0
      3869 MEMB     18       SAPE     H10R     HAL2     0.900000E-01   1.00800           0
      3870 MEMB     18       SAPE     H10S     HAL2     0.900000E-01   1.00800           0
      3871 MEMB     18       SAPE     C211     CEL1    -0.150000       12.0110           0
      3872 MEMB     18       SAPE     H11R     HEL1     0.150000       1.00800           0
      3873 MEMB     18       SAPE     C212     CEL1    -0.150000       12.0110           0
      3874 MEMB     18       SAPE     H12R     HEL1     0.150000       1.00800           0
      3875 MEMB     18       SAPE     C213     CTL2    -0.180000       12.0110           0
      3876 MEMB     18       SAPE     H13R     HAL2     0.900000E-01   1.00800           0
      3877 MEMB     18       SAPE     H13S     HAL2     0.900000E-01   1.00800           0
      3878 MEMB     18       SAPE     C214     CEL1    -0.150000       12.0110           0
      3879 MEMB     18       SAPE     H14R     HEL1     0.150000       1.00800           0
      3880 MEMB     18       SAPE     C215     CEL1    -0.150000       12.0110           0
      3881 MEMB     18       SAPE     H15R     HEL1     0.150000       1.00800           0
      3882 MEMB     18       SAPE     C216     CTL2    -0.180000       12.0110           0
      3883 MEMB     18       SAPE     H16R     HAL2     0.900000E-01   1.00800           0
      3884 MEMB     18       SAPE     H16S     HAL2     0.900000E-01   1.00800           0
      3885 MEMB     18       SAPE     C217     CTL2    -0.180000       12.0110           0
      3886 MEMB     18       SAPE     H17R     HAL2     0.900000E-01   1.00800           0
      3887 MEMB     18       SAPE     H17S     HAL2     0.900000E-01   1.00800           0
      3888 MEMB     18       SAPE     C218     CTL2    -0.180000       12.0110           0
      3889 MEMB     18       SAPE     H18R     HAL2     0.900000E-01   1.00800           0
      3890 MEMB     18       SAPE     H18S     HAL2     0.900000E-01   1.00800           0
      3891 MEMB     18       SAPE     C219     CTL2    -0.180000       12.0110           0
      3892 MEMB     18       SAPE     H19R     HAL2     0.900000E-01   1.00800           0
      3893 MEMB     18       SAPE     H19S     HAL2     0.900000E-01   1.00800           0
      3894 MEMB     18       SAPE     C220     CTL3    -0.270000       12.0110           0
      3895 MEMB     18       SAPE     H20R     HAL3     0.900000E-01   1.00800           0
      3896 MEMB     18       SAPE     H20S     HAL3     0.900000E-01   1.00800           0
      3897 MEMB     18       SAPE     H20T     HAL3     0.900000E-01   1.00800           0
      3898 MEMB     18       SAPE     C33      CTL2    -0.180000       12.0110           0
      3899 MEMB     18       SAPE     H3X      HAL2     0.900000E-01   1.00800           0
      3900 MEMB     18       SAPE     H3Y      HAL2     0.900000E-01   1.00800           0
      3901 MEMB     18       SAPE     C34      CTL2    -0.180000       12.0110           0
      3902 MEMB     18       SAPE     H4X      HAL2     0.900000E-01   1.00800           0
      3903 MEMB     18       SAPE     H4Y      HAL2     0.900000E-01   1.00800           0
      3904 MEMB     18       SAPE     C35      CTL2    -0.180000       12.0110           0
      3905 MEMB     18       SAPE     H5X      HAL2     0.900000E-01   1.00800           0
      3906 MEMB     18       SAPE     H5Y      HAL2     0.900000E-01   1.00800           0
      3907 MEMB     18       SAPE     C36      CTL2    -0.180000       12.0110           0
      3908 MEMB     18       SAPE     H6X      HAL2     0.900000E-01   1.00800           0
      3909 MEMB     18       SAPE     H6Y      HAL2     0.900000E-01   1.00800           0
      3910 MEMB     18       SAPE     C37      CTL2    -0.180000       12.0110           0
      3911 MEMB     18       SAPE     H7X      HAL2     0.900000E-01   1.00800           0
      3912 MEMB     18       SAPE     H7Y      HAL2     0.900000E-01   1.00800           0
      3913 MEMB     18       SAPE     C38      CTL2    -0.180000       12.0110           0
      3914 MEMB     18       SAPE     H8X      HAL2     0.900000E-01   1.00800           0
      3915 MEMB     18       SAPE     H8Y      HAL2     0.900000E-01   1.00800           0
      3916 MEMB     18       SAPE     C39      CTL2    -0.180000       12.0110           0
      3917 MEMB     18       SAPE     H9X      HAL2     0.900000E-01   1.00800           0
      3918 MEMB     18       SAPE     H9Y      HAL2     0.900000E-01   1.00800           0
      3919 MEMB     18       SAPE     C310     CTL2    -0.180000       12.0110           0
      3920 MEMB     18       SAPE     H10X     HAL2     0.900000E-01   1.00800           0
      3921 MEMB     18       SAPE     H10Y     HAL2     0.900000E-01   1.00800           0
      3922 MEMB     18       SAPE     C311     CTL2    -0.180000       12.0110           0
      3923 MEMB     18       SAPE     H11X     HAL2     0.900000E-01   1.00800           0
      3924 MEMB     18       SAPE     H11Y     HAL2     0.900000E-01   1.00800           0
      3925 MEMB     18       SAPE     C312     CTL2    -0.180000       12.0110           0
      3926 MEMB     18       SAPE     H12X     HAL2     0.900000E-01   1.00800           0
      3927 MEMB     18       SAPE     H12Y     HAL2     0.900000E-01   1.00800           0
      3928 MEMB     18       SAPE     C313     CTL2    -0.180000       12.0110           0
      3929 MEMB     18       SAPE     H13X     HAL2     0.900000E-01   1.00800           0
      3930 MEMB     18       SAPE     H13Y     HAL2     0.900000E-01   1.00800           0
      3931 MEMB     18       SAPE     C314     CTL2    -0.180000       12.0110           0
      3932 MEMB     18       SAPE     H14X     HAL2     0.900000E-01   1.00800           0
      3933 MEMB     18       SAPE     H14Y     HAL2     0.900000E-01   1.00800           0
      3934 MEMB     18       SAPE     C315     CTL2    -0.180000       12.0110           0
      3935 MEMB     18       SAPE     H15X     HAL2     0.900000E-01   1.00800           0
      3936 MEMB     18       SAPE     H15Y     HAL2     0.900000E-01   1.00800           0
      3937 MEMB     18       SAPE     C316     CTL2    -0.180000       12.0110           0
      3938 MEMB     18       SAPE     H16X     HAL2     0.900000E-01   1.00800           0
      3939 MEMB     18       SAPE     H16Y     HAL2     0.900000E-01   1.00800           0
      3940 MEMB     18       SAPE     C317     CTL2    -0.180000       12.0110           0
      3941 MEMB     18       SAPE     H17X     HAL2     0.900000E-01   1.00800           0
      3942 MEMB     18       SAPE     H17Y     HAL2     0.900000E-01   1.00800           0
      3943 MEMB     18       SAPE     C318     CTL3    -0.270000       12.0110           0
      3944 MEMB     18       SAPE     H18X     HAL3     0.900000E-01   1.00800           0
      3945 MEMB     18       SAPE     H18Y     HAL3     0.900000E-01   1.00800           0
      3946 MEMB     18       SAPE     H18Z     HAL3     0.900000E-01   1.00800           0
      3947 MEMB     25       SAPE     N        NH3L    -0.300000       14.0070           0
      3948 MEMB     25       SAPE     HN1      HCL      0.330000       1.00800           0
      3949 MEMB     25       SAPE     HN2      HCL      0.330000       1.00800           0
      3950 MEMB     25       SAPE     HN3      HCL      0.330000       1.00800           0
      3951 MEMB     25       SAPE     C12      CTL2     0.130000       12.0110           0
      3952 MEMB     25       SAPE     H12A     HAL2     0.900000E-01   1.00800           0
      3953 MEMB     25       SAPE     H12B     HAL2     0.900000E-01   1.00800           0
      3954 MEMB     25       SAPE     C11      CTL2    -0.800000E-01   12.0110           0
      3955 MEMB     25       SAPE     H11A     HAL2     0.900000E-01   1.00800           0
      3956 MEMB     25       SAPE     H11B     HAL2     0.900000E-01   1.00800           0
      3957 MEMB     25       SAPE     P        PL       1.500000       30.9740           0
      3958 MEMB     25       SAPE     O13      O2L     -0.780000       15.9994           0
      3959 MEMB     25       SAPE     O14      O2L     -0.780000       15.9994           0
      3960 MEMB     25       SAPE     O12      OSLP    -0.570000       15.9994           0
      3961 MEMB     25       SAPE     O11      OSLP    -0.570000       15.9994           0
      3962 MEMB     25       SAPE     C1       CTL2    -0.800000E-01   12.0110           0
      3963 MEMB     25       SAPE     HA       HAL2     0.900000E-01   1.00800           0
      3964 MEMB     25       SAPE     HB       HAL2     0.900000E-01   1.00800           0
      3965 MEMB     25       SAPE     C2       CTL1     0.170000       12.0110           0
      3966 MEMB     25       SAPE     HS       HAL1     0.900000E-01   1.00800           0
      3967 MEMB     25       SAPE     O21      OSL     -0.490000       15.9994           0
      3968 MEMB     25       SAPE     C21      CL       0.900000       12.0110           0
      3969 MEMB     25       SAPE     O22      OBL     -0.630000       15.9994           0
      3970 MEMB     25       SAPE     C22      CTL2    -0.220000       12.0110           0
      3971 MEMB     25       SAPE     H2R      HAL2     0.900000E-01   1.00800           0
      3972 MEMB     25       SAPE     H2S      HAL2     0.900000E-01   1.00800           0
      3973 MEMB     25       SAPE     C3       CTL2     0.800000E-01   12.0110           0
      3974 MEMB     25       SAPE     HX       HAL2     0.900000E-01   1.00800           0
      3975 MEMB     25       SAPE     HY       HAL2     0.900000E-01   1.00800           0
      3976 MEMB     25       SAPE     O31      OSL     -0.490000       15.9994           0
      3977 MEMB     25       SAPE     C31      CL       0.900000       12.0110           0
      3978 MEMB     25       SAPE     O32      OBL     -0.630000       15.9994           0
      3979 MEMB     25       SAPE     C32      CTL2    -0.220000       12.0110           0
      3980 MEMB     25       SAPE     H2X      HAL2     0.900000E-01   1.00800           0
      3981 MEMB     25       SAPE     H2Y      HAL2     0.900000E-01   1.00800           0
      3982 MEMB     25       SAPE     C23      CTL2    -0.180000       12.0110           0
      3983 MEMB     25       SAPE     H3R      HAL2     0.900000E-01   1.00800           0
      3984 MEMB     25       SAPE     H3S      HAL2     0.900000E-01   1.00800           0
      3985 MEMB     25       SAPE     C24      CTL2    -0.180000       12.0110           0
      3986 MEMB     25       SAPE     H4R      HAL2     0.900000E-01   1.00800           0
      3987 MEMB     25       SAPE     H4S      HAL2     0.900000E-01   1.00800           0
      3988 MEMB     25       SAPE     C25      CEL1    -0.150000       12.0110           0
      3989 MEMB     25       SAPE     H5R      HEL1     0.150000       1.00800           0
      3990 MEMB     25       SAPE     C26      CEL1    -0.150000       12.0110           0
      3991 MEMB     25       SAPE     H6R      HEL1     0.150000       1.00800           0
      3992 MEMB     25       SAPE     C27      CTL2    -0.180000       12.0110           0
      3993 MEMB     25       SAPE     H7R      HAL2     0.900000E-01   1.00800           0
      3994 MEMB     25       SAPE     H7S      HAL2     0.900000E-01   1.00800           0
      3995 MEMB     25       SAPE     C28      CEL1    -0.150000       12.0110           0
      3996 MEMB     25       SAPE     H8R      HEL1     0.150000       1.00800           0
      3997 MEMB     25       SAPE     C29      CEL1    -0.150000       12.0110           0
      3998 MEMB     25       SAPE     H9R      HEL1     0.150000       1.00800           0
      3999 MEMB     25       SAPE     C210     CTL2    -0.180000       12.0110           0
      4000 MEMB     25       SAPE     H10R     HAL2     0.900000E-01   1.00800           0
      4001 MEMB     25       SAPE     H10S     HAL2     0.900000E-01   1.00800           0
      4002 MEMB     25       SAPE     C211     CEL1    -0.150000       12.0110           0
      4003 MEMB     25       SAPE     H11R     HEL1     0.150000       1.00800           0
      4004 MEMB     25       SAPE     C212     CEL1    -0.150000       12.0110           0
      4005 MEMB     25       SAPE     H12R     HEL1     0.150000       1.00800           0
      4006 MEMB     25       SAPE     C213     CTL2    -0.180000       12.0110           0
      4007 MEMB     25       SAPE     H13R     HAL2     0.900000E-01   1.00800           0
      4008 MEMB     25       SAPE     H13S     HAL2     0.900000E-01   1.00800           0
      4009 MEMB     25       SAPE     C214     CEL1    -0.150000       12.0110           0
      4010 MEMB     25       SAPE     H14R     HEL1     0.150000       1.00800           0
      4011 MEMB     25       SAPE     C215     CEL1    -0.150000       12.0110           0
      4012 MEMB     25       SAPE     H15R     HEL1     0.150000       1.00800           0
      4013 MEMB     25       SAPE     C216     CTL2    -0.180000       12.0110           0
      4014 MEMB     25       SAPE     H16R     HAL2     0.900000E-01   1.00800           0
      4015 MEMB     25       SAPE     H16S     HAL2     0.900000E-01   1.00800           0
      4016 MEMB     25       SAPE     C217     CTL2    -0.180000       12.0110           0
      4017 MEMB     25       SAPE     H17R     HAL2     0.900000E-01   1.00800           0
      4018 MEMB     25       SAPE     H17S     HAL2     0.900000E-01   1.00800           0
      4019 MEMB     25       SAPE     C218     CTL2    -0.180000       12.0110           0
      4020 MEMB     25       SAPE     H18R     HAL2     0.900000E-01   1.00800           0
      4021 MEMB     25       SAPE     H18S     HAL2     0.900000E-01   1.00800           0
      4022 MEMB     25       SAPE     C219     CTL2    -0.180000       12.0110           0
      4023 MEMB     25       SAPE     H19R     HAL2     0.900000E-01   1.00800           0
      4024 MEMB     25       SAPE     H19S     HAL2     0.900000E-01   1.00800           0
      4025 MEMB     25       SAPE     C220     CTL3    -0.270000       12.0110           0
      4026 MEMB     25       SAPE     H20R     HAL3     0.900000E-01   1.00800           0
      4027 MEMB     25       SAPE     H20S     HAL3     0.900000E-01   1.00800           0
      4028 MEMB     25       SAPE     H20T     HAL3     0.900000E-01   1.00800           0
      4029 MEMB     25       SAPE     C33      CTL2    -0.180000       12.0110           0
      4030 MEMB     25       SAPE     H3X      HAL2     0.900000E-01   1.00800           0
      4031 MEMB     25       SAPE     H3Y      HAL2     0.900000E-01   1.00800           0
      4032 MEMB     25       SAPE     C34      CTL2    -0.180000       12.0110           0
      4033 MEMB     25       SAPE     H4X      HAL2     0.900000E-01   1.00800           0
      4034 MEMB     25       SAPE     H4Y      HAL2     0.900000E-01   1.00800           0
      4035 MEMB     25       SAPE     C35      CTL2    -0.180000       12.0110           0
      4036 MEMB     25       SAPE     H5X      HAL2     0.900000E-01   1.00800           0
      4037 MEMB     25       SAPE     H5Y      HAL2     0.900000E-01   1.00800           0
      4038 MEMB     25       SAPE     C36      CTL2    -0.180000       12.0110           0
      4039 MEMB     25       SAPE     H6X      HAL2     0.900000E-01   1.00800           0
      4040 MEMB     25       SAPE     H6Y      HAL2     0.900000E-01   1.00800           0
      4041 MEMB     25       SAPE     C37      CTL2    -0.180000       12.0110           0
      4042 MEMB     25       SAPE     H7X      HAL2     0.900000E-01   1.00800           0
      4043 MEMB     25       SAPE     H7Y      HAL2     0.900000E-01   1.00800           0
      4044 MEMB     25       SAPE     C38      CTL2    -0.180000       12.0110           0
      4045 MEMB     25       SAPE     H8X      HAL2     0.900000E-01   1.00800           0
      4046 MEMB     25       SAPE     H8Y      HAL2     0.900000E-01   1.00800           0
      4047 MEMB     25       SAPE     C39      CTL2    -0.180000       12.0110           0
      4048 MEMB     25       SAPE     H9X      HAL2     0.900000E-01   1.00800           0
      4049 MEMB     25       SAPE     H9Y      HAL2     0.900000E-01   1.00800           0
      4050 MEMB     25       SAPE     C310     CTL2    -0.180000       12.0110           0
      4051 MEMB     25       SAPE     H10X     HAL2     0.900000E-01   1.00800           0
      4052 MEMB     25       SAPE     H10Y     HAL2     0.900000E-01   1.00800           0
      4053 MEMB     25       SAPE     C311     CTL2    -0.180000       12.0110           0
      4054 MEMB     25       SAPE     H11X     HAL2     0.900000E-01   1.00800           0
      4055 MEMB     25       SAPE     H11Y     HAL2     0.900000E-01   1.00800           0
      4056 MEMB     25       SAPE     C312     CTL2    -0.180000       12.0110           0
      4057 MEMB     25       SAPE     H12X     HAL2     0.900000E-01   1.00800           0
      4058 MEMB     25       SAPE     H12Y     HAL2     0.900000E-01   1.00800           0
      4059 MEMB     25       SAPE     C313     CTL2    -0.180000       12.0110           0
      4060 MEMB     25       SAPE     H13X     HAL2     0.900000E-01   1.00800           0
      4061 MEMB     25       SAPE     H13Y     HAL2     0.900000E-01   1.00800           0
      4062 MEMB     25       SAPE     C314     CTL2    -0.180000       12.0110           0
      4063 MEMB     25       SAPE     H14X     HAL2     0.900000E-01   1.00800           0
      4064 MEMB     25       SAPE     H14Y     HAL2     0.900000E-01   1.00800           0
      4065 MEMB     25       SAPE     C315     CTL2    -0.180000       12.0110           0
      4066 MEMB     25       SAPE     H15X     HAL2     0.900000E-01   1.00800           0
      4067 MEMB     25       SAPE     H15Y     HAL2     0.900000E-01   1.00800           0
      4068 MEMB     25       SAPE     C316     CTL2    -0.180000       12.0110           0
      4069 MEMB     25       SAPE     H16X     HAL2     0.900000E-01   1.00800           0
      4070 MEMB     25       SAPE     H16Y     HAL2     0.900000E-01   1.00800           0
      4071 MEMB     25       SAPE     C317     CTL2    -0.180000       12.0110           0
      4072 MEMB     25       SAPE     H17X     HAL2     0.900000E-01   1.00800           0
      4073 MEMB     25       SAPE     H17Y     HAL2     0.900000E-01   1.00800           0
      4074 MEMB     25       SAPE     C318     CTL3    -0.270000       12.0110           0
      4075 MEMB     25       SAPE     H18X     HAL3     0.900000E-01   1.00800           0
      4076 MEMB     25       SAPE     H18Y     HAL3     0.900000E-01   1.00800           0
      4077 MEMB     25       SAPE     H18Z     HAL3     0.900000E-01   1.00800           0
      4078 MEMB     33       SAPE     N        NH3L    -0.300000       14.0070           0
      4079 MEMB     33       SAPE     HN1      HCL      0.330000       1.00800           0
      4080 MEMB     33       SAPE     HN2      HCL      0.330000       1.00800           0
      4081 MEMB     33       SAPE     HN3      HCL      0.330000       1.00800           0
      4082 MEMB     33       SAPE     C12      CTL2     0.130000       12.0110           0
      4083 MEMB     33       SAPE     H12A     HAL2     0.900000E-01   1.00800           0
      4084 MEMB     33       SAPE     H12B     HAL2     0.900000E-01   1.00800           0
      4085 MEMB     33       SAPE     C11      CTL2    -0.800000E-01   12.0110           0
      4086 MEMB     33       SAPE     H11A     HAL2     0.900000E-01   1.00800           0
      4087 MEMB     33       SAPE     H11B     HAL2     0.900000E-01   1.00800           0
      4088 MEMB     33       SAPE     P        PL       1.500000       30.9740           0
      4089 MEMB     33       SAPE     O13      O2L     -0.780000       15.9994           0
      4090 MEMB     33       SAPE     O14      O2L     -0.780000       15.9994           0
      4091 MEMB     33       SAPE     O12      OSLP    -0.570000       15.9994           0
      4092 MEMB     33       SAPE     O11      OSLP    -0.570000       15.9994           0
      4093 MEMB     33       SAPE     C1       CTL2    -0.800000E-01   12.0110           0
      4094 MEMB     33       SAPE     HA       HAL2     0.900000E-01   1.00800           0
      4095 MEMB     33       SAPE     HB       HAL2     0.900000E-01   1.00800           0
      4096 MEMB     33       SAPE     C2       CTL1     0.170000       12.0110           0
      4097 MEMB     33       SAPE     HS       HAL1     0.900000E-01   1.00800           0
      4098 MEMB     33       SAPE     O21      OSL     -0.490000       15.9994           0
      4099 MEMB     33       SAPE     C21      CL       0.900000       12.0110           0
      4100 MEMB     33       SAPE     O22      OBL     -0.630000       15.9994           0
      4101 MEMB     33       SAPE     C22      CTL2    -0.220000       12.0110           0
      4102 MEMB     33       SAPE     H2R      HAL2     0.900000E-01   1.00800           0
      4103 MEMB     33       SAPE     H2S      HAL2     0.900000E-01   1.00800           0
      4104 MEMB     33       SAPE     C3       CTL2     0.800000E-01   12.0110           0
      4105 MEMB     33       SAPE     HX       HAL2     0.900000E-01   1.00800           0
      4106 MEMB     33       SAPE     HY       HAL2     0.900000E-01   1.00800           0
      4107 MEMB     33       SAPE     O31      OSL     -0.490000       15.9994           0
      4108 MEMB     33       SAPE     C31      CL       0.900000       12.0110           0
      4109 MEMB     33       SAPE     O32      OBL     -0.630000       15.9994           0
      4110 MEMB     33       SAPE     C32      CTL2    -0.220000       12.0110           0
      4111 MEMB     33       SAPE     H2X      HAL2     0.900000E-01   1.00800           0
      4112 MEMB     33       SAPE     H2Y      HAL2     0.900000E-01   1.00800           0
      4113 MEMB     33       SAPE     C23      CTL2    -0.180000       12.0110           0
      4114 MEMB     33       SAPE     H3R      HAL2     0.900000E-01   1.00800           0
      4115 MEMB     33       SAPE     H3S      HAL2     0.900000E-01   1.00800           0
      4116 MEMB     33       SAPE     C24      CTL2    -0.180000       12.0110           0
      4117 MEMB     33       SAPE     H4R      HAL2     0.900000E-01   1.00800           0
      4118 MEMB     33       SAPE     H4S      HAL2     0.900000E-01   1.00800           0
      4119 MEMB     33       SAPE     C25      CEL1    -0.150000       12.0110           0
      4120 MEMB     33       SAPE     H5R      HEL1     0.150000       1.00800           0
      4121 MEMB     33       SAPE     C26      CEL1    -0.150000       12.0110           0
      4122 MEMB     33       SAPE     H6R      HEL1     0.150000       1.00800           0
      4123 MEMB     33       SAPE     C27      CTL2    -0.180000       12.0110           0
      4124 MEMB     33       SAPE     H7R      HAL2     0.900000E-01   1.00800           0
      4125 MEMB     33       SAPE     H7S      HAL2     0.900000E-01   1.00800           0
      4126 MEMB     33       SAPE     C28      CEL1    -0.150000       12.0110           0
      4127 MEMB     33       SAPE     H8R      HEL1     0.150000       1.00800           0
      4128 MEMB     33       SAPE     C29      CEL1    -0.150000       12.0110           0
      4129 MEMB     33       SAPE     H9R      HEL1     0.150000       1.00800           0
      4130 MEMB     33       SAPE     C210     CTL2    -0.180000       12.0110           0
      4131 MEMB     33       SAPE     H10R     HAL2     0.900000E-01   1.00800           0
      4132 MEMB     33       SAPE     H10S     HAL2     0.900000E-01   1.00800           0
      4133 MEMB     33       SAPE     C211     CEL1    -0.150000       12.0110           0
      4134 MEMB     33       SAPE     H11R     HEL1     0.150000       1.00800           0
      4135 MEMB     33       SAPE     C212     CEL1    -0.150000       12.0110           0
      4136 MEMB     33       SAPE     H12R     HEL1     0.150000       1.00800           0
      4137 MEMB     33       SAPE     C213     CTL2    -0.180000       12.0110           0
      4138 MEMB     33       SAPE     H13R     HAL2     0.900000E-01   1.00800           0
      4139 MEMB     33       SAPE     H13S     HAL2     0.900000E-01   1.00800           0
      4140 MEMB     33       SAPE     C214     CEL1    -0.150000       12.0110           0
      4141 MEMB     33       SAPE     H14R     HEL1     0.150000       1.00800           0
      4142 MEMB     33       SAPE     C215     CEL1    -0.150000       12.0110           0
      4143 MEMB     33       SAPE     H15R     HEL1     0.150000       1.00800           0
      4144 MEMB     33       SAPE     C216     CTL2    -0.180000       12.0110           0
      4145 MEMB     33       SAPE     H16R     HAL2     0.900000E-01   1.00800           0
      4146 MEMB     33       SAPE     H16S     HAL2     0.900000E-01   1.00800           0
      4147 MEMB     33       SAPE     C217     CTL2    -0.180000       12.0110           0
      4148 MEMB     33       SAPE     H17R     HAL2     0.900000E-01   1.00800           0
      4149 MEMB     33       SAPE     H17S     HAL2     0.900000E-01   1.00800           0
      4150 MEMB     33       SAPE     C218     CTL2    -0.180000       12.0110           0
      4151 MEMB     33       SAPE     H18R     HAL2     0.900000E-01   1.00800           0
      4152 MEMB     33       SAPE     H18S     HAL2     0.900000E-01   1.00800           0
      4153 MEMB     33       SAPE     C219     CTL2    -0.180000       12.0110           0
      4154 MEMB     33       SAPE     H19R     HAL2     0.900000E-01   1.00800           0
      4155 MEMB     33       SAPE     H19S     HAL2     0.900000E-01   1.00800           0
      4156 MEMB     33       SAPE     C220     CTL3    -0.270000       12.0110           0
      4157 MEMB     33       SAPE     H20R     HAL3     0.900000E-01   1.00800           0
      4158 MEMB     33       SAPE     H20S     HAL3     0.900000E-01   1.00800           0
      4159 MEMB     33       SAPE     H20T     HAL3     0.900000E-01   1.00800           0
      4160 MEMB     33       SAPE     C33      CTL2    -0.180000       12.0110           0
      4161 MEMB     33       SAPE     H3X      HAL2     0.900000E-01   1.00800           0
      4162 MEMB     33       SAPE     H3Y      HAL2     0.900000E-01   1.00800           0
      4163 MEMB     33       SAPE     C34      CTL2    -0.180000       12.0110           0
      4164 MEMB     33       SAPE     H4X      HAL2     0.900000E-01   1.00800           0
      4165 MEMB     33       SAPE     H4Y      HAL2     0.900000E-01   1.00800           0
      4166 MEMB     33       SAPE     C35      CTL2    -0.180000       12.0110           0
      4167 MEMB     33       SAPE     H5X      HAL2     0.900000E-01   1.00800           0
      4168 MEMB     33       SAPE     H5Y      HAL2     0.900000E-01   1.00800           0
      4169 MEMB     33       SAPE     C36      CTL2    -0.180000       12.0110           0
      4170 MEMB     33       SAPE     H6X      HAL2     0.900000E-01   1.00800           0
      4171 MEMB     33       SAPE     H6Y      HAL2     0.900000E-01   1.00800           0
      4172 MEMB     33       SAPE     C37      CTL2    -0.180000       12.0110           0
      4173 MEMB     33       SAPE     H7X      HAL2     0.900000E-01   1.00800           0
      4174 MEMB     33       SAPE     H7Y      HAL2     0.900000E-01   1.00800           0
      4175 MEMB     33       SAPE     C38      CTL2    -0.180000       12.0110           0
      4176 MEMB     33       SAPE     H8X      HAL2     0.900000E-01   1.00800           0
      4177 MEMB     33       SAPE     H8Y      HAL2     0.900000E-01   1.00800           0
      4178 MEMB     33       SAPE     C39      CTL2    -0.180000       12.0110           0
      4179 MEMB     33       SAPE     H9X      HAL2     0.900000E-01   1.00800           0
      4180 MEMB     33       SAPE     H9Y      HAL2     0.900000E-01   1.00800           0
      4181 MEMB     33       SAPE     C310     CTL2    -0.180000       12.0110           0
      4182 MEMB     33       SAPE     H10X     HAL2     0.900000E-01   1.00800           0
      4183 MEMB     33       SAPE     H10Y     HAL2     0.900000E-01   1.00800           0
      4184 MEMB     33       SAPE     C311     CTL2    -0.180000       12.0110           0
      4185 MEMB     33       SAPE     H11X     HAL2     0.900000E-01   1.00800           0
      4186 MEMB     33       SAPE     H11Y     HAL2     0.900000E-01   1.00800           0
      4187 MEMB     33       SAPE     C312     CTL2    -0.180000       12.0110           0
      4188 MEMB     33       SAPE     H12X     HAL2     0.900000E-01   1.00800           0
      4189 MEMB     33       SAPE     H12Y     HAL2     0.900000E-01   1.00800           0
      4190 MEMB     33       SAPE     C313     CTL2    -0.180000       12.0110           0
      4191 MEMB     33       SAPE     H13X     HAL2     0.900000E-01   1.00800           0
      4192 MEMB     33       SAPE     H13Y     HAL2     0.900000E-01   1.00800           0
      4193 MEMB     33       SAPE     C314     CTL2    -0.180000       12.0110           0
      4194 MEMB     33       SAPE     H14X     HAL2     0.900000E-01   1.00800           0
      4195 MEMB     33       SAPE     H14Y     HAL2     0.900000E-01   1.00800           0
      4196 MEMB     33       SAPE     C315     CTL2    -0.180000       12.0110           0
      4197 MEMB     33       SAPE     H15X     HAL2     0.900000E-01   1.00800           0
      4198 MEMB     33       SAPE     H15Y     HAL2     0.900000E-01   1.00800           0
      4199 MEMB     33       SAPE     C316     CTL2    -0.180000       12.0110           0
      4200 MEMB     33       SAPE     H16X     HAL2     0.900000E-01   1.00800           0
      4201 MEMB     33       SAPE     H16Y     HAL2     0.900000E-01   1.00800           0
      4202 MEMB     33       SAPE     C317     CTL2    -0.180000       12.0110           0
      4203 MEMB     33       SAPE     H17X     HAL2     0.900000E-01   1.00800           0
      4204 MEMB     33       SAPE     H17Y     HAL2     0.900000E-01   1.00800           0
      4205 MEMB     33       SAPE     C318     CTL3    -0.270000       12.0110           0
      4206 MEMB     33       SAPE     H18X     HAL3     0.900000E-01   1.00800           0
      4207 MEMB     33       SAPE     H18Y     HAL3     0.900000E-01   1.00800           0
      4208 MEMB     33       SAPE     H18Z     HAL3     0.900000E-01   1.00800           0
      4209 MEMB     37       SAPE     N        NH3L    -0.300000       14.0070           0
      4210 MEMB     37       SAPE     HN1      HCL      0.330000       1.00800           0
      4211 MEMB     37       SAPE     HN2      HCL      0.330000       1.00800           0
      4212 MEMB     37       SAPE     HN3      HCL      0.330000       1.00800           0
      4213 MEMB     37       SAPE     C12      CTL2     0.130000       12.0110           0
      4214 MEMB     37       SAPE     H12A     HAL2     0.900000E-01   1.00800           0
      4215 MEMB     37       SAPE     H12B     HAL2     0.900000E-01   1.00800           0
      4216 MEMB     37       SAPE     C11      CTL2    -0.800000E-01   12.0110           0
      4217 MEMB     37       SAPE     H11A     HAL2     0.900000E-01   1.00800           0
      4218 MEMB     37       SAPE     H11B     HAL2     0.900000E-01   1.00800           0
      4219 MEMB     37       SAPE     P        PL       1.500000       30.9740           0
      4220 MEMB     37       SAPE     O13      O2L     -0.780000       15.9994           0
      4221 MEMB     37       SAPE     O14      O2L     -0.780000       15.9994           0
      4222 MEMB     37       SAPE     O12      OSLP    -0.570000       15.9994           0
      4223 MEMB     37       SAPE     O11      OSLP    -0.570000       15.9994           0
      4224 MEMB     37       SAPE     C1       CTL2    -0.800000E-01   12.0110           0
      4225 MEMB     37       SAPE     HA       HAL2     0.900000E-01   1.00800           0
      4226 MEMB     37       SAPE     HB       HAL2     0.900000E-01   1.00800           0
      4227 MEMB     37       SAPE     C2       CTL1     0.170000       12.0110           0
      4228 MEMB     37       SAPE     HS       HAL1     0.900000E-01   1.00800           0
      4229 MEMB     37       SAPE     O21      OSL     -0.490000       15.9994           0
      4230 MEMB     37       SAPE     C21      CL       0.900000       12.0110           0
      4231 MEMB     37       SAPE     O22      OBL     -0.630000       15.9994           0
      4232 MEMB     37       SAPE     C22      CTL2    -0.220000       12.0110           0
      4233 MEMB     37       SAPE     H2R      HAL2     0.900000E-01   1.00800           0
      4234 MEMB     37       SAPE     H2S      HAL2     0.900000E-01   1.00800           0
      4235 MEMB     37       SAPE     C3       CTL2     0.800000E-01   12.0110           0
      4236 MEMB     37       SAPE     HX       HAL2     0.900000E-01   1.00800           0
      4237 MEMB     37       SAPE     HY       HAL2     0.900000E-01   1.00800           0
      4238 MEMB     37       SAPE     O31      OSL     -0.490000       15.9994           0
      4239 MEMB     37       SAPE     C31      CL       0.900000       12.0110           0
      4240 MEMB     37       SAPE     O32      OBL     -0.630000       15.9994           0
      4241 MEMB     37       SAPE     C32      CTL2    -0.220000       12.0110           0
      4242 MEMB     37       SAPE     H2X      HAL2     0.900000E-01   1.00800           0
      4243 MEMB     37       SAPE     H2Y      HAL2     0.900000E-01   1.00800           0
      4244 MEMB     37       SAPE     C23      CTL2    -0.180000       12.0110           0
      4245 MEMB     37       SAPE     H3R      HAL2     0.900000E-01   1.00800           0
      4246 MEMB     37       SAPE     H3S      HAL2     0.900000E-01   1.00800           0
      4247 MEMB     37       SAPE     C24      CTL2    -0.180000       12.0110           0
      4248 MEMB     37       SAPE     H4R      HAL2     0.900000E-01   1.00800           0
      4249 MEMB     37       SAPE     H4S      HAL2     0.900000E-01   1.00800           0
      4250 MEMB     37       SAPE     C25      CEL1    -0.150000       12.0110           0
      4251 MEMB     37       SAPE     H5R      HEL1     0.150000       1.00800           0
      4252 MEMB     37       SAPE     C26      CEL1    -0.150000       12.0110           0
      4253 MEMB     37       SAPE     H6R      HEL1     0.150000       1.00800           0
      4254 MEMB     37       SAPE     C27      CTL2    -0.180000       12.0110           0
      4255 MEMB     37       SAPE     H7R      HAL2     0.900000E-01   1.00800           0
      4256 MEMB     37       SAPE     H7S      HAL2     0.900000E-01   1.00800           0
      4257 MEMB     37       SAPE     C28      CEL1    -0.150000       12.0110           0
      4258 MEMB     37       SAPE     H8R      HEL1     0.150000       1.00800           0
      4259 MEMB     37       SAPE     C29      CEL1    -0.150000       12.0110           0
      4260 MEMB     37       SAPE     H9R      HEL1     0.150000       1.00800           0
      4261 MEMB     37       SAPE     C210     CTL2    -0.180000       12.0110           0
      4262 MEMB     37       SAPE     H10R     HAL2     0.900000E-01   1.00800           0
      4263 MEMB     37       SAPE     H10S     HAL2     0.900000E-01   1.00800           0
      4264 MEMB     37       SAPE     C211     CEL1    -0.150000       12.0110           0
      4265 MEMB     37       SAPE     H11R     HEL1     0.150000       1.00800           0
      4266 MEMB     37       SAPE     C212     CEL1    -0.150000       12.0110           0
      4267 MEMB     37       SAPE     H12R     HEL1     0.150000       1.00800           0
      4268 MEMB     37       SAPE     C213     CTL2    -0.180000       12.0110           0
      4269 MEMB     37       SAPE     H13R     HAL2     0.900000E-01   1.00800           0
      4270 MEMB     37       SAPE     H13S     HAL2     0.900000E-01   1.00800           0
      4271 MEMB     37       SAPE     C214     CEL1    -0.150000       12.0110           0
      4272 MEMB     37       SAPE     H14R     HEL1     0.150000       1.00800           0
      4273 MEMB     37       SAPE     C215     CEL1    -0.150000       12.0110           0
      4274 MEMB     37       SAPE     H15R     HEL1     0.150000       1.00800           0
      4275 MEMB     37       SAPE     C216     CTL2    -0.180000       12.0110           0
      4276 MEMB     37       SAPE     H16R     HAL2     0.900000E-01   1.00800           0
      4277 MEMB     37       SAPE     H16S     HAL2     0.900000E-01   1.00800           0
      4278 MEMB     37       SAPE     C217     CTL2    -0.180000       12.0110           0
      4279 MEMB     37       SAPE     H17R     HAL2     0.900000E-01   1.00800           0
      4280 MEMB     37       SAPE     H17S     HAL2     0.900000E-01   1.00800           0
      4281 MEMB     37       SAPE     C218     CTL2    -0.180000       12.0110           0
      4282 MEMB     37       SAPE     H18R     HAL2     0.900000E-01   1.00800           0
      4283 MEMB     37       SAPE     H18S     HAL2     0.900000E-01   1.00800           0
      4284 MEMB     37       SAPE     C219     CTL2    -0.180000       12.0110           0
      4285 MEMB     37       SAPE     H19R     HAL2     0.900000E-01   1.00800           0
      4286 MEMB     37       SAPE     H19S     HAL2     0.900000E-01   1.00800           0
      4287 MEMB     37       SAPE     C220     CTL3    -0.270000       12.0110           0
      4288 MEMB     37       SAPE     H20R     HAL3     0.900000E-01   1.00800           0
      4289 MEMB     37       SAPE     H20S     HAL3     0.900000E-01   1.00800           0
      4290 MEMB     37       SAPE     H20T     HAL3     0.900000E-01   1.00800           0
      4291 MEMB     37       SAPE     C33      CTL2    -0.180000       12.0110           0
      4292 MEMB     37       SAPE     H3X      HAL2     0.900000E-01   1.00800           0
      4293 MEMB     37       SAPE     H3Y      HAL2     0.900000E-01   1.00800           0
      4294 MEMB     37       SAPE     C34      CTL2    -0.180000       12.0110           0
      4295 MEMB     37       SAPE     H4X      HAL2     0.900000E-01   1.00800           0
      4296 MEMB     37       SAPE     H4Y      HAL2     0.900000E-01   1.00800           0
      4297 MEMB     37       SAPE     C35      CTL2    -0.180000       12.0110           0
      4298 MEMB     37       SAPE     H5X      HAL2     0.900000E-01   1.00800           0
      4299 MEMB     37       SAPE     H5Y      HAL2     0.900000E-01   1.00800           0
      4300 MEMB     37       SAPE     C36      CTL2    -0.180000       12.0110           0
      4301 MEMB     37       SAPE     H6X      HAL2     0.900000E-01   1.00800           0
      4302 MEMB     37       SAPE     H6Y      HAL2     0.900000E-01   1.00800           0
      4303 MEMB     37       SAPE     C37      CTL2    -0.180000       12.0110           0
      4304 MEMB     37       SAPE     H7X      HAL2     0.900000E-01   1.00800           0
      4305 MEMB     37       SAPE     H7Y      HAL2     0.900000E-01   1.00800           0
      4306 MEMB     37       SAPE     C38      CTL2    -0.180000       12.0110           0
      4307 MEMB     37       SAPE     H8X      HAL2     0.900000E-01   1.00800           0
      4308 MEMB     37       SAPE     H8Y      HAL2     0.900000E-01   1.00800           0
      4309 MEMB     37       SAPE     C39      CTL2    -0.180000       12.0110           0
      4310 MEMB     37       SAPE     H9X      HAL2     0.900000E-01   1.00800           0
      4311 MEMB     37       SAPE     H9Y      HAL2     0.900000E-01   1.00800           0
      4312 MEMB     37       SAPE     C310     CTL2    -0.180000       12.0110           0
      4313 MEMB     37       SAPE     H10X     HAL2     0.900000E-01   1.00800           0
      4314 MEMB     37       SAPE     H10Y     HAL2     0.900000E-01   1.00800           0
      4315 MEMB     37       SAPE     C311     CTL2    -0.180000       12.0110           0
      4316 MEMB     37       SAPE     H11X     HAL2     0.900000E-01   1.00800           0
      4317 MEMB     37       SAPE     H11Y     HAL2     0.900000E-01   1.00800           0
      4318 MEMB     37       SAPE     C312     CTL2    -0.180000       12.0110           0
      4319 MEMB     37       SAPE     H12X     HAL2     0.900000E-01   1.00800           0
      4320 MEMB     37       SAPE     H12Y     HAL2     0.900000E-01   1.00800           0
      4321 MEMB     37       SAPE     C313     CTL2    -0.180000       12.0110           0
      4322 MEMB     37       SAPE     H13X     HAL2     0.900000E-01   1.00800           0
      4323 MEMB     37       SAPE     H13Y     HAL2     0.900000E-01   1.00800           0
      4324 MEMB     37       SAPE     C314     CTL2    -0.180000       12.0110           0
      4325 MEMB     37       SAPE     H14X     HAL2     0.900000E-01   1.00800           0
      4326 MEMB     37       SAPE     H14Y     HAL2     0.900000E-01   1.00800           0
      4327 MEMB     37       SAPE     C315     CTL2    -0.180000       12.0110           0
      4328 MEMB     37       SAPE     H15X     HAL2     0.900000E-01   1.00800           0
      4329 MEMB     37       SAPE     H15Y     HAL2     0.900000E-01   1.00800           0
      4330 MEMB     37       SAPE     C316     CTL2    -0.180000       12.0110           0
      4331 MEMB     37       SAPE     H16X     HAL2     0.900000E-01   1.00800           0
      4332 MEMB     37       SAPE     H16Y     HAL2     0.900000E-01   1.00800           0
      4333 MEMB     37       SAPE     C317     CTL2    -0.180000       12.0110           0
      4334 MEMB     37       SAPE     H17X     HAL2     0.900000E-01   1.00800           0
      4335 MEMB     37       SAPE     H17Y     HAL2     0.900000E-01   1.00800           0
      4336 MEMB     37       SAPE     C318     CTL3    -0.270000       12.0110           0
      4337 MEMB     37       SAPE     H18X     HAL3     0.900000E-01   1.00800           0
      4338 MEMB     37       SAPE     H18Y     HAL3     0.900000E-01   1.00800           0
      4339 MEMB     37       SAPE     H18Z     HAL3     0.900000E-01   1.00800           0
      4340 MEMB     58       SAPE     N        NH3L    -0.300000       14.0070           0
      4341 MEMB     58       SAPE     HN1      HCL      0.330000       1.00800           0
      4342 MEMB     58       SAPE     HN2      HCL      0.330000       1.00800           0
      4343 MEMB     58       SAPE     HN3      HCL      0.330000       1.00800           0
      4344 MEMB     58       SAPE     C12      CTL2     0.130000       12.0110           0
      4345 MEMB     58       SAPE     H12A     HAL2     0.900000E-01   1.00800           0
      4346 MEMB     58       SAPE     H12B     HAL2     0.900000E-01   1.00800           0
      4347 MEMB     58       SAPE     C11      CTL2    -0.800000E-01   12.0110           0
      4348 MEMB     58       SAPE     H11A     HAL2     0.900000E-01   1.00800           0
      4349 MEMB     58       SAPE     H11B     HAL2     0.900000E-01   1.00800           0
      4350 MEMB     58       SAPE     P        PL       1.500000       30.9740           0
      4351 MEMB     58       SAPE     O13      O2L     -0.780000       15.9994           0
      4352 MEMB     58       SAPE     O14      O2L     -0.780000       15.9994           0
      4353 MEMB     58       SAPE     O12      OSLP    -0.570000       15.9994           0
      4354 MEMB     58       SAPE     O11      OSLP    -0.570000       15.9994           0
      4355 MEMB     58       SAPE     C1       CTL2    -0.800000E-01   12.0110           0
      4356 MEMB     58       SAPE     HA       HAL2     0.900000E-01   1.00800           0
      4357 MEMB     58       SAPE     HB       HAL2     0.900000E-01   1.00800           0
      4358 MEMB     58       SAPE     C2       CTL1     0.170000       12.0110           0
      4359 MEMB     58       SAPE     HS       HAL1     0.900000E-01   1.00800           0
      4360 MEMB     58       SAPE     O21      OSL     -0.490000       15.9994           0
      4361 MEMB     58       SAPE     C21      CL       0.900000       12.0110           0
      4362 MEMB     58       SAPE     O22      OBL     -0.630000       15.9994           0
      4363 MEMB     58       SAPE     C22      CTL2    -0.220000       12.0110           0
      4364 MEMB     58       SAPE     H2R      HAL2     0.900000E-01   1.00800           0
      4365 MEMB     58       SAPE     H2S      HAL2     0.900000E-01   1.00800           0
      4366 MEMB     58       SAPE     C3       CTL2     0.800000E-01   12.0110           0
      4367 MEMB     58       SAPE     HX       HAL2     0.900000E-01   1.00800           0
      4368 MEMB     58       SAPE     HY       HAL2     0.900000E-01   1.00800           0
      4369 MEMB     58       SAPE     O31      OSL     -0.490000       15.9994           0
      4370 MEMB     58       SAPE     C31      CL       0.900000       12.0110           0
      4371 MEMB     58       SAPE     O32      OBL     -0.630000       15.9994           0
      4372 MEMB     58       SAPE     C32      CTL2    -0.220000       12.0110           0
      4373 MEMB     58       SAPE     H2X      HAL2     0.900000E-01   1.00800           0
      4374 MEMB     58       SAPE     H2Y      HAL2     0.900000E-01   1.00800           0
      4375 MEMB     58       SAPE     C23      CTL2    -0.180000       12.0110           0
      4376 MEMB     58       SAPE     H3R      HAL2     0.900000E-01   1.00800           0
      4377 MEMB     58       SAPE     H3S      HAL2     0.900000E-01   1.00800           0
      4378 MEMB     58       SAPE     C24      CTL2    -0.180000       12.0110           0
      4379 MEMB     58       SAPE     H4R      HAL2     0.900000E-01   1.00800           0
      4380 MEMB     58       SAPE     H4S      HAL2     0.900000E-01   1.00800           0
      4381 MEMB     58       SAPE     C25      CEL1    -0.150000       12.0110           0
      4382 MEMB     58       SAPE     H5R      HEL1     0.150000       1.00800           0
      4383 MEMB     58       SAPE     C26      CEL1    -0.150000       12.0110           0
      4384 MEMB     58       SAPE     H6R      HEL1     0.150000       1.00800           0
      4385 MEMB     58       SAPE     C27      CTL2    -0.180000       12.0110           0
      4386 MEMB     58       SAPE     H7R      HAL2     0.900000E-01   1.00800           0
      4387 MEMB     58       SAPE     H7S      HAL2     0.900000E-01   1.00800           0
      4388 MEMB     58       SAPE     C28      CEL1    -0.150000       12.0110           0
      4389 MEMB     58       SAPE     H8R      HEL1     0.150000       1.00800           0
      4390 MEMB     58       SAPE     C29      CEL1    -0.150000       12.0110           0
      4391 MEMB     58       SAPE     H9R      HEL1     0.150000       1.00800           0
      4392 MEMB     58       SAPE     C210     CTL2    -0.180000       12.0110           0
      4393 MEMB     58       SAPE     H10R     HAL2     0.900000E-01   1.00800           0
      4394 MEMB     58       SAPE     H10S     HAL2     0.900000E-01   1.00800           0
      4395 MEMB     58       SAPE     C211     CEL1    -0.150000       12.0110           0
      4396 MEMB     58       SAPE     H11R     HEL1     0.150000       1.00800           0
      4397 MEMB     58       SAPE     C212     CEL1    -0.150000       12.0110           0
      4398 MEMB     58       SAPE     H12R     HEL1     0.150000       1.00800           0
      4399 MEMB     58       SAPE     C213     CTL2    -0.180000       12.0110           0
      4400 MEMB     58       SAPE     H13R     HAL2     0.900000E-01   1.00800           0
      4401 MEMB     58       SAPE     H13S     HAL2     0.900000E-01   1.00800           0
      4402 MEMB     58       SAPE     C214     CEL1    -0.150000       12.0110           0
      4403 MEMB     58       SAPE     H14R     HEL1     0.150000       1.00800           0
      4404 MEMB     58       SAPE     C215     CEL1    -0.150000       12.0110           0
      4405 MEMB     58       SAPE     H15R     HEL1     0.150000       1.00800           0
      4406 MEMB     58       SAPE     C216     CTL2    -0.180000       12.0110           0
      4407 MEMB     58       SAPE     H16R     HAL2     0.900000E-01   1.00800           0
      4408 MEMB     58       SAPE     H16S     HAL2     0.900000E-01   1.00800           0
      4409 MEMB     58       SAPE     C217     CTL2    -0.180000       12.0110           0
      4410 MEMB     58       SAPE     H17R     HAL2     0.900000E-01   1.00800           0
      4411 MEMB     58       SAPE     H17S     HAL2     0.900000E-01   1.00800           0
      4412 MEMB     58       SAPE     C218     CTL2    -0.180000       12.0110           0
      4413 MEMB     58       SAPE     H18R     HAL2     0.900000E-01   1.00800           0
      4414 MEMB     58       SAPE     H18S     HAL2     0.900000E-01   1.00800           0
      4415 MEMB     58       SAPE     C219     CTL2    -0.180000       12.0110           0
      4416 MEMB     58       SAPE     H19R     HAL2     0.900000E-01   1.00800           0
      4417 MEMB     58       SAPE     H19S     HAL2     0.900000E-01   1.00800           0
      4418 MEMB     58       SAPE     C220     CTL3    -0.270000       12.0110           0
      4419 MEMB     58       SAPE     H20R     HAL3     0.900000E-01   1.00800           0
      4420 MEMB     58       SAPE     H20S     HAL3     0.900000E-01   1.00800           0
      4421 MEMB     58       SAPE     H20T     HAL3     0.900000E-01   1.00800           0
      4422 MEMB     58       SAPE     C33      CTL2    -0.180000       12.0110           0
      4423 MEMB     58       SAPE     H3X      HAL2     0.900000E-01   1.00800           0
      4424 MEMB     58       SAPE     H3Y      HAL2     0.900000E-01   1.00800           0
      4425 MEMB     58       SAPE     C34      CTL2    -0.180000       12.0110           0
      4426 MEMB     58       SAPE     H4X      HAL2     0.900000E-01   1.00800           0
      4427 MEMB     58       SAPE     H4Y      HAL2     0.900000E-01   1.00800           0
      4428 MEMB     58       SAPE     C35      CTL2    -0.180000       12.0110           0
      4429 MEMB     58       SAPE     H5X      HAL2     0.900000E-01   1.00800           0
      4430 MEMB     58       SAPE     H5Y      HAL2     0.900000E-01   1.00800           0
      4431 MEMB     58       SAPE     C36      CTL2    -0.180000       12.0110           0
      4432 MEMB     58       SAPE     H6X      HAL2     0.900000E-01   1.00800           0
      4433 MEMB     58       SAPE     H6Y      HAL2     0.900000E-01   1.00800           0
      4434 MEMB     58       SAPE     C37      CTL2    -0.180000       12.0110           0
      4435 MEMB     58       SAPE     H7X      HAL2     0.900000E-01   1.00800           0
      4436 MEMB     58       SAPE     H7Y      HAL2     0.900000E-01   1.00800           0
      4437 MEMB     58       SAPE     C38      CTL2    -0.180000       12.0110           0
      4438 MEMB     58       SAPE     H8X      HAL2     0.900000E-01   1.00800           0
      4439 MEMB     58       SAPE     H8Y      HAL2     0.900000E-01   1.00800           0
      4440 MEMB     58       SAPE     C39      CTL2    -0.180000       12.0110           0
      4441 MEMB     58       SAPE     H9X      HAL2     0.900000E-01   1.00800           0
      4442 MEMB     58       SAPE     H9Y      HAL2     0.900000E-01   1.00800           0
      4443 MEMB     58       SAPE     C310     CTL2    -0.180000       12.0110           0
      4444 MEMB     58       SAPE     H10X     HAL2     0.900000E-01   1.00800           0
      4445 MEMB     58       SAPE     H10Y     HAL2     0.900000E-01   1.00800           0
      4446 MEMB     58       SAPE     C311     CTL2    -0.180000       12.0110           0
      4447 MEMB     58       SAPE     H11X     HAL2     0.900000E-01   1.00800           0
      4448 MEMB     58       SAPE     H11Y     HAL2     0.900000E-01   1.00800           0
      4449 MEMB     58       SAPE     C312     CTL2    -0.180000       12.0110           0
      4450 MEMB     58       SAPE     H12X     HAL2     0.900000E-01   1.00800           0
      4451 MEMB     58       SAPE     H12Y     HAL2     0.900000E-01   1.00800           0
      4452 MEMB     58       SAPE     C313     CTL2    -0.180000       12.0110           0
      4453 MEMB     58       SAPE     H13X     HAL2     0.900000E-01   1.00800           0
      4454 MEMB     58       SAPE     H13Y     HAL2     0.900000E-01   1.00800           0
      4455 MEMB     58       SAPE     C314     CTL2    -0.180000       12.0110           0
      4456 MEMB     58       SAPE     H14X     HAL2     0.900000E-01   1.00800           0
      4457 MEMB     58       SAPE     H14Y     HAL2     0.900000E-01   1.00800           0
      4458 MEMB     58       SAPE     C315     CTL2    -0.180000       12.0110           0
      4459 MEMB     58       SAPE     H15X     HAL2     0.900000E-01   1.00800           0
      4460 MEMB     58       SAPE     H15Y     HAL2     0.900000E-01   1.00800           0
      4461 MEMB     58       SAPE     C316     CTL2    -0.180000       12.0110           0
      4462 MEMB     58       SAPE     H16X     HAL2     0.900000E-01   1.00800           0
      4463 MEMB     58       SAPE     H16Y     HAL2     0.900000E-01   1.00800           0
      4464 MEMB     58       SAPE     C317     CTL2    -0.180000       12.0110           0
      4465 MEMB     58       SAPE     H17X     HAL2     0.900000E-01   1.00800           0
      4466 MEMB     58       SAPE     H17Y     HAL2     0.900000E-01   1.00800           0
      4467 MEMB     58       SAPE     C318     CTL3    -0.270000       12.0110           0
      4468 MEMB     58       SAPE     H18X     HAL3     0.900000E-01   1.00800           0
      4469 MEMB     58       SAPE     H18Y     HAL3     0.900000E-01   1.00800           0
      4470 MEMB     58       SAPE     H18Z     HAL3     0.900000E-01   1.00800           0
      4471 MEMB     59       SAPE     N        NH3L    -0.300000       14.0070           0
      4472 MEMB     59       SAPE     HN1      HCL      0.330000       1.00800           0
      4473 MEMB     59       SAPE     HN2      HCL      0.330000       1.00800           0
      4474 MEMB     59       SAPE     HN3      HCL      0.330000       1.00800           0
      4475 MEMB     59       SAPE     C12      CTL2     0.130000       12.0110           0
      4476 MEMB     59       SAPE     H12A     HAL2     0.900000E-01   1.00800           0
      4477 MEMB     59       SAPE     H12B     HAL2     0.900000E-01   1.00800           0
      4478 MEMB     59       SAPE     C11      CTL2    -0.800000E-01   12.0110           0
      4479 MEMB     59       SAPE     H11A     HAL2     0.900000E-01   1.00800           0
      4480 MEMB     59       SAPE     H11B     HAL2     0.900000E-01   1.00800           0
      4481 MEMB     59       SAPE     P        PL       1.500000       30.9740           0
      4482 MEMB     59       SAPE     O13      O2L     -0.780000       15.9994           0
      4483 MEMB     59       SAPE     O14      O2L     -0.780000       15.9994           0
      4484 MEMB     59       SAPE     O12      OSLP    -0.570000       15.9994           0
      4485 MEMB     59       SAPE     O11      OSLP    -0.570000       15.9994           0
      4486 MEMB     59       SAPE     C1       CTL2    -0.800000E-01   12.0110           0
      4487 MEMB     59       SAPE     HA       HAL2     0.900000E-01   1.00800           0
      4488 MEMB     59       SAPE     HB       HAL2     0.900000E-01   1.00800           0
      4489 MEMB     59       SAPE     C2       CTL1     0.170000       12.0110           0
      4490 MEMB     59       SAPE     HS       HAL1     0.900000E-01   1.00800           0
      4491 MEMB     59       SAPE     O21      OSL     -0.490000       15.9994           0
      4492 MEMB     59       SAPE     C21      CL       0.900000       12.0110           0
      4493 MEMB     59       SAPE     O22      OBL     -0.630000       15.9994           0
      4494 MEMB     59       SAPE     C22      CTL2    -0.220000       12.0110           0
      4495 MEMB     59       SAPE     H2R      HAL2     0.900000E-01   1.00800           0
      4496 MEMB     59       SAPE     H2S      HAL2     0.900000E-01   1.00800           0
      4497 MEMB     59       SAPE     C3       CTL2     0.800000E-01   12.0110           0
      4498 MEMB     59       SAPE     HX       HAL2     0.900000E-01   1.00800           0
      4499 MEMB     59       SAPE     HY       HAL2     0.900000E-01   1.00800           0
      4500 MEMB     59       SAPE     O31      OSL     -0.490000       15.9994           0
      4501 MEMB     59       SAPE     C31      CL       0.900000       12.0110           0
      4502 MEMB     59       SAPE     O32      OBL     -0.630000       15.9994           0
      4503 MEMB     59       SAPE     C32      CTL2    -0.220000       12.0110           0
      4504 MEMB     59       SAPE     H2X      HAL2     0.900000E-01   1.00800           0
      4505 MEMB     59       SAPE     H2Y      HAL2     0.900000E-01   1.00800           0
      4506 MEMB     59       SAPE     C23      CTL2    -0.180000       12.0110           0
      4507 MEMB     59       SAPE     H3R      HAL2     0.900000E-01   1.00800           0
      4508 MEMB     59       SAPE     H3S      HAL2     0.900000E-01   1.00800           0
      4509 MEMB     59       SAPE     C24      CTL2    -0.180000       12.0110           0
      4510 MEMB     59       SAPE     H4R      HAL2     0.900000E-01   1.00800           0
      4511 MEMB     59       SAPE     H4S      HAL2     0.900000E-01   1.00800           0
      4512 MEMB     59       SAPE     C25      CEL1    -0.150000       12.0110           0
      4513 MEMB     59       SAPE     H5R      HEL1     0.150000       1.00800           0
      4514 MEMB     59       SAPE     C26      CEL1    -0.150000       12.0110           0
      4515 MEMB     59       SAPE     H6R      HEL1     0.150000       1.00800           0
      4516 MEMB     59       SAPE     C27      CTL2    -0.180000       12.0110           0
      4517 MEMB     59       SAPE     H7R      HAL2     0.900000E-01   1.00800           0
      4518 MEMB     59       SAPE     H7S      HAL2     0.900000E-01   1.00800           0
      4519 MEMB     59       SAPE     C28      CEL1    -0.150000       12.0110           0
      4520 MEMB     59       SAPE     H8R      HEL1     0.150000       1.00800           0
      4521 MEMB     59       SAPE     C29      CEL1    -0.150000       12.0110           0
      4522 MEMB     59       SAPE     H9R      HEL1     0.150000       1.00800           0
      4523 MEMB     59       SAPE     C210     CTL2    -0.180000       12.0110           0
      4524 MEMB     59       SAPE     H10R     HAL2     0.900000E-01   1.00800           0
      4525 MEMB     59       SAPE     H10S     HAL2     0.900000E-01   1.00800           0
      4526 MEMB     59       SAPE     C211     CEL1    -0.150000       12.0110           0
      4527 MEMB     59       SAPE     H11R     HEL1     0.150000       1.00800           0
      4528 MEMB     59       SAPE     C212     CEL1    -0.150000       12.0110           0
      4529 MEMB     59       SAPE     H12R     HEL1     0.150000       1.00800           0
      4530 MEMB     59       SAPE     C213     CTL2    -0.180000       12.0110           0
      4531 MEMB     59       SAPE     H13R     HAL2     0.900000E-01   1.00800           0
      4532 MEMB     59       SAPE     H13S     HAL2     0.900000E-01   1.00800           0
      4533 MEMB     59       SAPE     C214     CEL1    -0.150000       12.0110           0
      4534 MEMB     59       SAPE     H14R     HEL1     0.150000       1.00800           0
      4535 MEMB     59       SAPE     C215     CEL1    -0.150000       12.0110           0
      4536 MEMB     59       SAPE     H15R     HEL1     0.150000       1.00800           0
      4537 MEMB     59       SAPE     C216     CTL2    -0.180000       12.0110           0
      4538 MEMB     59       SAPE     H16R     HAL2     0.900000E-01   1.00800           0
      4539 MEMB     59       SAPE     H16S     HAL2     0.900000E-01   1.00800           0
      4540 MEMB     59       SAPE     C217     CTL2    -0.180000       12.0110           0
      4541 MEMB     59       SAPE     H17R     HAL2     0.900000E-01   1.00800           0
      4542 MEMB     59       SAPE     H17S     HAL2     0.900000E-01   1.00800           0
      4543 MEMB     59       SAPE     C218     CTL2    -0.180000       12.0110           0
      4544 MEMB     59       SAPE     H18R     HAL2     0.900000E-01   1.00800           0
      4545 MEMB     59       SAPE     H18S     HAL2     0.900000E-01   1.00800           0
      4546 MEMB     59       SAPE     C219     CTL2    -0.180000       12.0110           0
      4547 MEMB     59       SAPE     H19R     HAL2     0.900000E-01   1.00800           0
      4548 MEMB     59       SAPE     H19S     HAL2     0.900000E-01   1.00800           0
      4549 MEMB     59       SAPE     C220     CTL3    -0.270000       12.0110           0
      4550 MEMB     59       SAPE     H20R     HAL3     0.900000E-01   1.00800           0
      4551 MEMB     59       SAPE     H20S     HAL3     0.900000E-01   1.00800           0
      4552 MEMB     59       SAPE     H20T     HAL3     0.900000E-01   1.00800           0
      4553 MEMB     59       SAPE     C33      CTL2    -0.180000       12.0110           0
      4554 MEMB     59       SAPE     H3X      HAL2     0.900000E-01   1.00800           0
      4555 MEMB     59       SAPE     H3Y      HAL2     0.900000E-01   1.00800           0
      4556 MEMB     59       SAPE     C34      CTL2    -0.180000       12.0110           0
      4557 MEMB     59       SAPE     H4X      HAL2     0.900000E-01   1.00800           0
      4558 MEMB     59       SAPE     H4Y      HAL2     0.900000E-01   1.00800           0
      4559 MEMB     59       SAPE     C35      CTL2    -0.180000       12.0110           0
      4560 MEMB     59       SAPE     H5X      HAL2     0.900000E-01   1.00800           0
      4561 MEMB     59       SAPE     H5Y      HAL2     0.900000E-01   1.00800           0
      4562 MEMB     59       SAPE     C36      CTL2    -0.180000       12.0110           0
      4563 MEMB     59       SAPE     H6X      HAL2     0.900000E-01   1.00800           0
      4564 MEMB     59       SAPE     H6Y      HAL2     0.900000E-01   1.00800           0
      4565 MEMB     59       SAPE     C37      CTL2    -0.180000       12.0110           0
      4566 MEMB     59       SAPE     H7X      HAL2     0.900000E-01   1.00800           0
      4567 MEMB     59       SAPE     H7Y      HAL2     0.900000E-01   1.00800           0
      4568 MEMB     59       SAPE     C38      CTL2    -0.180000       12.0110           0
      4569 MEMB     59       SAPE     H8X      HAL2     0.900000E-01   1.00800           0
      4570 MEMB     59       SAPE     H8Y      HAL2     0.900000E-01   1.00800           0
      4571 MEMB     59       SAPE     C39      CTL2    -0.180000       12.0110           0
      4572 MEMB     59       SAPE     H9X      HAL2     0.900000E-01   1.00800           0
      4573 MEMB     59       SAPE     H9Y      HAL2     0.900000E-01   1.00800           0
      4574 MEMB     59       SAPE     C310     CTL2    -0.180000       12.0110           0
      4575 MEMB     59       SAPE     H10X     HAL2     0.900000E-01   1.00800           0
      4576 MEMB     59       SAPE     H10Y     HAL2     0.900000E-01   1.00800           0
      4577 MEMB     59       SAPE     C311     CTL2    -0.180000       12.0110           0
      4578 MEMB     59       SAPE     H11X     HAL2     0.900000E-01   1.00800           0
      4579 MEMB     59       SAPE     H11Y     HAL2     0.900000E-01   1.00800           0
      4580 MEMB     59       SAPE     C312     CTL2    -0.180000       12.0110           0
      4581 MEMB     59       SAPE     H12X     HAL2     0.900000E-01   1.00800           0
      4582 MEMB     59       SAPE     H12Y     HAL2     0.900000E-01   1.00800           0
      4583 MEMB     59       SAPE     C313     CTL2    -0.180000       12.0110           0
      4584 MEMB     59       SAPE     H13X     HAL2     0.900000E-01   1.00800           0
      4585 MEMB     59       SAPE     H13Y     HAL2     0.900000E-01   1.00800           0
      4586 MEMB     59       SAPE     C314     CTL2    -0.180000       12.0110           0
      4587 MEMB     59       SAPE     H14X     HAL2     0.900000E-01   1.00800           0
      4588 MEMB     59       SAPE     H14Y     HAL2     0.900000E-01   1.00800           0
      4589 MEMB     59       SAPE     C315     CTL2    -0.180000       12.0110           0
      4590 MEMB     59       SAPE     H15X     HAL2     0.900000E-01   1.00800           0
      4591 MEMB     59       SAPE     H15Y     HAL2     0.900000E-01   1.00800           0
      4592 MEMB     59       SAPE     C316     CTL2    -0.180000       12.0110           0
      4593 MEMB     59       SAPE     H16X     HAL2     0.900000E-01   1.00800           0
      4594 MEMB     59       SAPE     H16Y     HAL2     0.900000E-01   1.00800           0
      4595 MEMB     59       SAPE     C317     CTL2    -0.180000       12.0110           0
      4596 MEMB     59       SAPE     H17X     HAL2     0.900000E-01   1.00800           0
      4597 MEMB     59       SAPE     H17Y     HAL2     0.900000E-01   1.00800           0
      4598 MEMB     59       SAPE     C318     CTL3    -0.270000       12.0110           0
      4599 MEMB     59       SAPE     H18X     HAL3     0.900000E-01   1.00800           0
      4600 MEMB     59       SAPE     H18Y     HAL3     0.900000E-01   1.00800           0
      4601 MEMB     59       SAPE     H18Z     HAL3     0.900000E-01   1.00800           0
      4602 MEMB     61       SAPE     N        NH3L    -0.300000       14.0070           0
      4603 MEMB     61       SAPE     HN1      HCL      0.330000       1.00800           0
      4604 MEMB     61       SAPE     HN2      HCL      0.330000       1.00800           0
      4605 MEMB     61       SAPE     HN3      HCL      0.330000       1.00800           0
      4606 MEMB     61       SAPE     C12      CTL2     0.130000       12.0110           0
      4607 MEMB     61       SAPE     H12A     HAL2     0.900000E-01   1.00800           0
      4608 MEMB     61       SAPE     H12B     HAL2     0.900000E-01   1.00800           0
      4609 MEMB     61       SAPE     C11      CTL2    -0.800000E-01   12.0110           0
      4610 MEMB     61       SAPE     H11A     HAL2     0.900000E-01   1.00800           0
      4611 MEMB     61       SAPE     H11B     HAL2     0.900000E-01   1.00800           0
      4612 MEMB     61       SAPE     P        PL       1.500000       30.9740           0
      4613 MEMB     61       SAPE     O13      O2L     -0.780000       15.9994           0
      4614 MEMB     61       SAPE     O14      O2L     -0.780000       15.9994           0
      4615 MEMB     61       SAPE     O12      OSLP    -0.570000       15.9994           0
      4616 MEMB     61       SAPE     O11      OSLP    -0.570000       15.9994           0
      4617 MEMB     61       SAPE     C1       CTL2    -0.800000E-01   12.0110           0
      4618 MEMB     61       SAPE     HA       HAL2     0.900000E-01   1.00800           0
      4619 MEMB     61       SAPE     HB       HAL2     0.900000E-01   1.00800           0
      4620 MEMB     61       SAPE     C2       CTL1     0.170000       12.0110           0
      4621 MEMB     61       SAPE     HS       HAL1     0.900000E-01   1.00800           0
      4622 MEMB     61       SAPE     O21      OSL     -0.490000       15.9994           0
      4623 MEMB     61       SAPE     C21      CL       0.900000       12.0110           0
      4624 MEMB     61       SAPE     O22      OBL     -0.630000       15.9994           0
      4625 MEMB     61       SAPE     C22      CTL2    -0.220000       12.0110           0
      4626 MEMB     61       SAPE     H2R      HAL2     0.900000E-01   1.00800           0
      4627 MEMB     61       SAPE     H2S      HAL2     0.900000E-01   1.00800           0
      4628 MEMB     61       SAPE     C3       CTL2     0.800000E-01   12.0110           0
      4629 MEMB     61       SAPE     HX       HAL2     0.900000E-01   1.00800           0
      4630 MEMB     61       SAPE     HY       HAL2     0.900000E-01   1.00800           0
      4631 MEMB     61       SAPE     O31      OSL     -0.490000       15.9994           0
      4632 MEMB     61       SAPE     C31      CL       0.900000       12.0110           0
      4633 MEMB     61       SAPE     O32      OBL     -0.630000       15.9994           0
      4634 MEMB     61       SAPE     C32      CTL2    -0.220000       12.0110           0
      4635 MEMB     61       SAPE     H2X      HAL2     0.900000E-01   1.00800           0
      4636 MEMB     61       SAPE     H2Y      HAL2     0.900000E-01   1.00800           0
      4637 MEMB     61       SAPE     C23      CTL2    -0.180000       12.0110           0
      4638 MEMB     61       SAPE     H3R      HAL2     0.900000E-01   1.00800           0
      4639 MEMB     61       SAPE     H3S      HAL2     0.900000E-01   1.00800           0
      4640 MEMB     61       SAPE     C24      CTL2    -0.180000       12.0110           0
      4641 MEMB     61       SAPE     H4R      HAL2     0.900000E-01   1.00800           0
      4642 MEMB     61       SAPE     H4S      HAL2     0.900000E-01   1.00800           0
      4643 MEMB     61       SAPE     C25      CEL1    -0.150000       12.0110           0
      4644 MEMB     61       SAPE     H5R      HEL1     0.150000       1.00800           0
      4645 MEMB     61       SAPE     C26      CEL1    -0.150000       12.0110           0
      4646 MEMB     61       SAPE     H6R      HEL1     0.150000       1.00800           0
      4647 MEMB     61       SAPE     C27      CTL2    -0.180000       12.0110           0
      4648 MEMB     61       SAPE     H7R      HAL2     0.900000E-01   1.00800           0
      4649 MEMB     61       SAPE     H7S      HAL2     0.900000E-01   1.00800           0
      4650 MEMB     61       SAPE     C28      CEL1    -0.150000       12.0110           0
      4651 MEMB     61       SAPE     H8R      HEL1     0.150000       1.00800           0
      4652 MEMB     61       SAPE     C29      CEL1    -0.150000       12.0110           0
      4653 MEMB     61       SAPE     H9R      HEL1     0.150000       1.00800           0
      4654 MEMB     61       SAPE     C210     CTL2    -0.180000       12.0110           0
      4655 MEMB     61       SAPE     H10R     HAL2     0.900000E-01   1.00800           0
      4656 MEMB     61       SAPE     H10S     HAL2     0.900000E-01   1.00800           0
      4657 MEMB     61       SAPE     C211     CEL1    -0.150000       12.0110           0
      4658 MEMB     61       SAPE     H11R     HEL1     0.150000       1.00800           0
      4659 MEMB     61       SAPE     C212     CEL1    -0.150000       12.0110           0
      4660 MEMB     61       SAPE     H12R     HEL1     0.150000       1.00800           0
      4661 MEMB     61       SAPE     C213     CTL2    -0.180000       12.0110           0
      4662 MEMB     61       SAPE     H13R     HAL2     0.900000E-01   1.00800           0
      4663 MEMB     61       SAPE     H13S     HAL2     0.900000E-01   1.00800           0
      4664 MEMB     61       SAPE     C214     CEL1    -0.150000       12.0110           0
      4665 MEMB     61       SAPE     H14R     HEL1     0.150000       1.00800           0
      4666 MEMB     61       SAPE     C215     CEL1    -0.150000       12.0110           0
      4667 MEMB     61       SAPE     H15R     HEL1     0.150000       1.00800           0
      4668 MEMB     61       SAPE     C216     CTL2    -0.180000       12.0110           0
      4669 MEMB     61       SAPE     H16R     HAL2     0.900000E-01   1.00800           0
      4670 MEMB     61       SAPE     H16S     HAL2     0.900000E-01   1.00800           0
      4671 MEMB     61       SAPE     C217     CTL2    -0.180000       12.0110           0
      4672 MEMB     61       SAPE     H17R     HAL2     0.900000E-01   1.00800           0
      4673 MEMB     61       SAPE     H17S     HAL2     0.900000E-01   1.00800           0
      4674 MEMB     61       SAPE     C218     CTL2    -0.180000       12.0110           0
      4675 MEMB     61       SAPE     H18R     HAL2     0.900000E-01   1.00800           0
      4676 MEMB     61       SAPE     H18S     HAL2     0.900000E-01   1.00800           0
      4677 MEMB     61       SAPE     C219     CTL2    -0.180000       12.0110           0
      4678 MEMB     61       SAPE     H19R     HAL2     0.900000E-01   1.00800           0
      4679 MEMB     61       SAPE     H19S     HAL2     0.900000E-01   1.00800           0
      4680 MEMB     61       SAPE     C220     CTL3    -0.270000       12.0110           0
      4681 MEMB     61       SAPE     H20R     HAL3     0.900000E-01   1.00800           0
      4682 MEMB     61       SAPE     H20S     HAL3     0.900000E-01   1.00800           0
      4683 MEMB     61       SAPE     H20T     HAL3     0.900000E-01   1.00800           0
      4684 MEMB     61       SAPE     C33      CTL2    -0.180000       12.0110           0
      4685 MEMB     61       SAPE     H3X      HAL2     0.900000E-01   1.00800           0
      4686 MEMB     61       SAPE     H3Y      HAL2     0.900000E-01   1.00800           0
      4687 MEMB     61       SAPE     C34      CTL2    -0.180000       12.0110           0
      4688 MEMB     61       SAPE     H4X      HAL2     0.900000E-01   1.00800           0
      4689 MEMB     61       SAPE     H4Y      HAL2     0.900000E-01   1.00800           0
      4690 MEMB     61       SAPE     C35      CTL2    -0.180000       12.0110           0
      4691 MEMB     61       SAPE     H5X      HAL2     0.900000E-01   1.00800           0
      4692 MEMB     61       SAPE     H5Y      HAL2     0.900000E-01   1.00800           0
      4693 MEMB     61       SAPE     C36      CTL2    -0.180000       12.0110           0
      4694 MEMB     61       SAPE     H6X      HAL2     0.900000E-01   1.00800           0
      4695 MEMB     61       SAPE     H6Y      HAL2     0.900000E-01   1.00800           0
      4696 MEMB     61       SAPE     C37      CTL2    -0.180000       12.0110           0
      4697 MEMB     61       SAPE     H7X      HAL2     0.900000E-01   1.00800           0
      4698 MEMB     61       SAPE     H7Y      HAL2     0.900000E-01   1.00800           0
      4699 MEMB     61       SAPE     C38      CTL2    -0.180000       12.0110           0
      4700 MEMB     61       SAPE     H8X      HAL2     0.900000E-01   1.00800           0
      4701 MEMB     61       SAPE     H8Y      HAL2     0.900000E-01   1.00800           0
      4702 MEMB     61       SAPE     C39      CTL2    -0.180000       12.0110           0
      4703 MEMB     61       SAPE     H9X      HAL2     0.900000E-01   1.00800           0
      4704 MEMB     61       SAPE     H9Y      HAL2     0.900000E-01   1.00800           0
      4705 MEMB     61       SAPE     C310     CTL2    -0.180000       12.0110           0
      4706 MEMB     61       SAPE     H10X     HAL2     0.900000E-01   1.00800           0
      4707 MEMB     61       SAPE     H10Y     HAL2     0.900000E-01   1.00800           0
      4708 MEMB     61       SAPE     C311     CTL2    -0.180000       12.0110           0
      4709 MEMB     61       SAPE     H11X     HAL2     0.900000E-01   1.00800           0
      4710 MEMB     61       SAPE     H11Y     HAL2     0.900000E-01   1.00800           0
      4711 MEMB     61       SAPE     C312     CTL2    -0.180000       12.0110           0
      4712 MEMB     61       SAPE     H12X     HAL2     0.900000E-01   1.00800           0
      4713 MEMB     61       SAPE     H12Y     HAL2     0.900000E-01   1.00800           0
      4714 MEMB     61       SAPE     C313     CTL2    -0.180000       12.0110           0
      4715 MEMB     61       SAPE     H13X     HAL2     0.900000E-01   1.00800           0
      4716 MEMB     61       SAPE     H13Y     HAL2     0.900000E-01   1.00800           0
      4717 MEMB     61       SAPE     C314     CTL2    -0.180000       12.0110           0
      4718 MEMB     61       SAPE     H14X     HAL2     0.900000E-01   1.00800           0
      4719 MEMB     61       SAPE     H14Y     HAL2     0.900000E-01   1.00800           0
      4720 MEMB     61       SAPE     C315     CTL2    -0.180000       12.0110           0
      4721 MEMB     61       SAPE     H15X     HAL2     0.900000E-01   1.00800           0
      4722 MEMB     61       SAPE     H15Y     HAL2     0.900000E-01   1.00800           0
      4723 MEMB     61       SAPE     C316     CTL2    -0.180000       12.0110           0
      4724 MEMB     61       SAPE     H16X     HAL2     0.900000E-01   1.00800           0
      4725 MEMB     61       SAPE     H16Y     HAL2     0.900000E-01   1.00800           0
      4726 MEMB     61       SAPE     C317     CTL2    -0.180000       12.0110           0
      4727 MEMB     61       SAPE     H17X     HAL2     0.900000E-01   1.00800           0
      4728 MEMB     61       SAPE     H17Y     HAL2     0.900000E-01   1.00800           0
      4729 MEMB     61       SAPE     C318     CTL3    -0.270000       12.0110           0
      4730 MEMB     61       SAPE     H18X     HAL3     0.900000E-01   1.00800           0
      4731 MEMB     61       SAPE     H18Y     HAL3     0.900000E-01   1.00800           0
      4732 MEMB     61       SAPE     H18Z     HAL3     0.900000E-01   1.00800           0
      4733 MEMB     67       SAPE     N        NH3L    -0.300000       14.0070           0
      4734 MEMB     67       SAPE     HN1      HCL      0.330000       1.00800           0
      4735 MEMB     67       SAPE     HN2      HCL      0.330000       1.00800           0
      4736 MEMB     67       SAPE     HN3      HCL      0.330000       1.00800           0
      4737 MEMB     67       SAPE     C12      CTL2     0.130000       12.0110           0
      4738 MEMB     67       SAPE     H12A     HAL2     0.900000E-01   1.00800           0
      4739 MEMB     67       SAPE     H12B     HAL2     0.900000E-01   1.00800           0
      4740 MEMB     67       SAPE     C11      CTL2    -0.800000E-01   12.0110           0
      4741 MEMB     67       SAPE     H11A     HAL2     0.900000E-01   1.00800           0
      4742 MEMB     67       SAPE     H11B     HAL2     0.900000E-01   1.00800           0
      4743 MEMB     67       SAPE     P        PL       1.500000       30.9740           0
      4744 MEMB     67       SAPE     O13      O2L     -0.780000       15.9994           0
      4745 MEMB     67       SAPE     O14      O2L     -0.780000       15.9994           0
      4746 MEMB     67       SAPE     O12      OSLP    -0.570000       15.9994           0
      4747 MEMB     67       SAPE     O11      OSLP    -0.570000       15.9994           0
      4748 MEMB     67       SAPE     C1       CTL2    -0.800000E-01   12.0110           0
      4749 MEMB     67       SAPE     HA       HAL2     0.900000E-01   1.00800           0
      4750 MEMB     67       SAPE     HB       HAL2     0.900000E-01   1.00800           0
      4751 MEMB     67       SAPE     C2       CTL1     0.170000       12.0110           0
      4752 MEMB     67       SAPE     HS       HAL1     0.900000E-01   1.00800           0
      4753 MEMB     67       SAPE     O21      OSL     -0.490000       15.9994           0
      4754 MEMB     67       SAPE     C21      CL       0.900000       12.0110           0
      4755 MEMB     67       SAPE     O22      OBL     -0.630000       15.9994           0
      4756 MEMB     67       SAPE     C22      CTL2    -0.220000       12.0110           0
      4757 MEMB     67       SAPE     H2R      HAL2     0.900000E-01   1.00800           0
      4758 MEMB     67       SAPE     H2S      HAL2     0.900000E-01   1.00800           0
      4759 MEMB     67       SAPE     C3       CTL2     0.800000E-01   12.0110           0
      4760 MEMB     67       SAPE     HX       HAL2     0.900000E-01   1.00800           0
      4761 MEMB     67       SAPE     HY       HAL2     0.900000E-01   1.00800           0
      4762 MEMB     67       SAPE     O31      OSL     -0.490000       15.9994           0
      4763 MEMB     67       SAPE     C31      CL       0.900000       12.0110           0
      4764 MEMB     67       SAPE     O32      OBL     -0.630000       15.9994           0
      4765 MEMB     67       SAPE     C32      CTL2    -0.220000       12.0110           0
      4766 MEMB     67       SAPE     H2X      HAL2     0.900000E-01   1.00800           0
      4767 MEMB     67       SAPE     H2Y      HAL2     0.900000E-01   1.00800           0
      4768 MEMB     67       SAPE     C23      CTL2    -0.180000       12.0110           0
      4769 MEMB     67       SAPE     H3R      HAL2     0.900000E-01   1.00800           0
      4770 MEMB     67       SAPE     H3S      HAL2     0.900000E-01   1.00800           0
      4771 MEMB     67       SAPE     C24      CTL2    -0.180000       12.0110           0
      4772 MEMB     67       SAPE     H4R      HAL2     0.900000E-01   1.00800           0
      4773 MEMB     67       SAPE     H4S      HAL2     0.900000E-01   1.00800           0
      4774 MEMB     67       SAPE     C25      CEL1    -0.150000       12.0110           0
      4775 MEMB     67       SAPE     H5R      HEL1     0.150000       1.00800           0
      4776 MEMB     67       SAPE     C26      CEL1    -0.150000       12.0110           0
      4777 MEMB     67       SAPE     H6R      HEL1     0.150000       1.00800           0
      4778 MEMB     67       SAPE     C27      CTL2    -0.180000       12.0110           0
      4779 MEMB     67       SAPE     H7R      HAL2     0.900000E-01   1.00800           0
      4780 MEMB     67       SAPE     H7S      HAL2     0.900000E-01   1.00800           0
      4781 MEMB     67       SAPE     C28      CEL1    -0.150000       12.0110           0
      4782 MEMB     67       SAPE     H8R      HEL1     0.150000       1.00800           0
      4783 MEMB     67       SAPE     C29      CEL1    -0.150000       12.0110           0
      4784 MEMB     67       SAPE     H9R      HEL1     0.150000       1.00800           0
      4785 MEMB     67       SAPE     C210     CTL2    -0.180000       12.0110           0
      4786 MEMB     67       SAPE     H10R     HAL2     0.900000E-01   1.00800           0
      4787 MEMB     67       SAPE     H10S     HAL2     0.900000E-01   1.00800           0
      4788 MEMB     67       SAPE     C211     CEL1    -0.150000       12.0110           0
      4789 MEMB     67       SAPE     H11R     HEL1     0.150000       1.00800           0
      4790 MEMB     67       SAPE     C212     CEL1    -0.150000       12.0110           0
      4791 MEMB     67       SAPE     H12R     HEL1     0.150000       1.00800           0
      4792 MEMB     67       SAPE     C213     CTL2    -0.180000       12.0110           0
      4793 MEMB     67       SAPE     H13R     HAL2     0.900000E-01   1.00800           0
      4794 MEMB     67       SAPE     H13S     HAL2     0.900000E-01   1.00800           0
      4795 MEMB     67       SAPE     C214     CEL1    -0.150000       12.0110           0
      4796 MEMB     67       SAPE     H14R     HEL1     0.150000       1.00800           0
      4797 MEMB     67       SAPE     C215     CEL1    -0.150000       12.0110           0
      4798 MEMB     67       SAPE     H15R     HEL1     0.150000       1.00800           0
      4799 MEMB     67       SAPE     C216     CTL2    -0.180000       12.0110           0
      4800 MEMB     67       SAPE     H16R     HAL2     0.900000E-01   1.00800           0
      4801 MEMB     67       SAPE     H16S     HAL2     0.900000E-01   1.00800           0
      4802 MEMB     67       SAPE     C217     CTL2    -0.180000       12.0110           0
      4803 MEMB     67       SAPE     H17R     HAL2     0.900000E-01   1.00800           0
      4804 MEMB     67       SAPE     H17S     HAL2     0.900000E-01   1.00800           0
      4805 MEMB     67       SAPE     C218     CTL2    -0.180000       12.0110           0
      4806 MEMB     67       SAPE     H18R     HAL2     0.900000E-01   1.00800           0
      4807 MEMB     67       SAPE     H18S     HAL2     0.900000E-01   1.00800           0
      4808 MEMB     67       SAPE     C219     CTL2    -0.180000       12.0110           0
      4809 MEMB     67       SAPE     H19R     HAL2     0.900000E-01   1.00800           0
      4810 MEMB     67       SAPE     H19S     HAL2     0.900000E-01   1.00800           0
      4811 MEMB     67       SAPE     C220     CTL3    -0.270000       12.0110           0
      4812 MEMB     67       SAPE     H20R     HAL3     0.900000E-01   1.00800           0
      4813 MEMB     67       SAPE     H20S     HAL3     0.900000E-01   1.00800           0
      4814 MEMB     67       SAPE     H20T     HAL3     0.900000E-01   1.00800           0
      4815 MEMB     67       SAPE     C33      CTL2    -0.180000       12.0110           0
      4816 MEMB     67       SAPE     H3X      HAL2     0.900000E-01   1.00800           0
      4817 MEMB     67       SAPE     H3Y      HAL2     0.900000E-01   1.00800           0
      4818 MEMB     67       SAPE     C34      CTL2    -0.180000       12.0110           0
      4819 MEMB     67       SAPE     H4X      HAL2     0.900000E-01   1.00800           0
      4820 MEMB     67       SAPE     H4Y      HAL2     0.900000E-01   1.00800           0
      4821 MEMB     67       SAPE     C35      CTL2    -0.180000       12.0110           0
      4822 MEMB     67       SAPE     H5X      HAL2     0.900000E-01   1.00800           0
      4823 MEMB     67       SAPE     H5Y      HAL2     0.900000E-01   1.00800           0
      4824 MEMB     67       SAPE     C36      CTL2    -0.180000       12.0110           0
      4825 MEMB     67       SAPE     H6X      HAL2     0.900000E-01   1.00800           0
      4826 MEMB     67       SAPE     H6Y      HAL2     0.900000E-01   1.00800           0
      4827 MEMB     67       SAPE     C37      CTL2    -0.180000       12.0110           0
      4828 MEMB     67       SAPE     H7X      HAL2     0.900000E-01   1.00800           0
      4829 MEMB     67       SAPE     H7Y      HAL2     0.900000E-01   1.00800           0
      4830 MEMB     67       SAPE     C38      CTL2    -0.180000       12.0110           0
      4831 MEMB     67       SAPE     H8X      HAL2     0.900000E-01   1.00800           0
      4832 MEMB     67       SAPE     H8Y      HAL2     0.900000E-01   1.00800           0
      4833 MEMB     67       SAPE     C39      CTL2    -0.180000       12.0110           0
      4834 MEMB     67       SAPE     H9X      HAL2     0.900000E-01   1.00800           0
      4835 MEMB     67       SAPE     H9Y      HAL2     0.900000E-01   1.00800           0
      4836 MEMB     67       SAPE     C310     CTL2    -0.180000       12.0110           0
      4837 MEMB     67       SAPE     H10X     HAL2     0.900000E-01   1.00800           0
      4838 MEMB     67       SAPE     H10Y     HAL2     0.900000E-01   1.00800           0
      4839 MEMB     67       SAPE     C311     CTL2    -0.180000       12.0110           0
      4840 MEMB     67       SAPE     H11X     HAL2     0.900000E-01   1.00800           0
      4841 MEMB     67       SAPE     H11Y     HAL2     0.900000E-01   1.00800           0
      4842 MEMB     67       SAPE     C312     CTL2    -0.180000       12.0110           0
      4843 MEMB     67       SAPE     H12X     HAL2     0.900000E-01   1.00800           0
      4844 MEMB     67       SAPE     H12Y     HAL2     0.900000E-01   1.00800           0
      4845 MEMB     67       SAPE     C313     CTL2    -0.180000       12.0110           0
      4846 MEMB     67       SAPE     H13X     HAL2     0.900000E-01   1.00800           0
      4847 MEMB     67       SAPE     H13Y     HAL2     0.900000E-01   1.00800           0
      4848 MEMB     67       SAPE     C314     CTL2    -0.180000       12.0110           0
      4849 MEMB     67       SAPE     H14X     HAL2     0.900000E-01   1.00800           0
      4850 MEMB     67       SAPE     H14Y     HAL2     0.900000E-01   1.00800           0
      4851 MEMB     67       SAPE     C315     CTL2    -0.180000       12.0110           0
      4852 MEMB     67       SAPE     H15X     HAL2     0.900000E-01   1.00800           0
      4853 MEMB     67       SAPE     H15Y     HAL2     0.900000E-01   1.00800           0
      4854 MEMB     67       SAPE     C316     CTL2    -0.180000       12.0110           0
      4855 MEMB     67       SAPE     H16X     HAL2     0.900000E-01   1.00800           0
      4856 MEMB     67       SAPE     H16Y     HAL2     0.900000E-01   1.00800           0
      4857 MEMB     67       SAPE     C317     CTL2    -0.180000       12.0110           0
      4858 MEMB     67       SAPE     H17X     HAL2     0.900000E-01   1.00800           0
      4859 MEMB     67       SAPE     H17Y     HAL2     0.900000E-01   1.00800           0
      4860 MEMB     67       SAPE     C318     CTL3    -0.270000       12.0110           0
      4861 MEMB     67       SAPE     H18X     HAL3     0.900000E-01   1.00800           0
      4862 MEMB     67       SAPE     H18Y     HAL3     0.900000E-01   1.00800           0
      4863 MEMB     67       SAPE     H18Z     HAL3     0.900000E-01   1.00800           0
      4864 MEMB     78       SAPE     N        NH3L    -0.300000       14.0070           0
      4865 MEMB     78       SAPE     HN1      HCL      0.330000       1.00800           0
      4866 MEMB     78       SAPE     HN2      HCL      0.330000       1.00800           0
      4867 MEMB     78       SAPE     HN3      HCL      0.330000       1.00800           0
      4868 MEMB     78       SAPE     C12      CTL2     0.130000       12.0110           0
      4869 MEMB     78       SAPE     H12A     HAL2     0.900000E-01   1.00800           0
      4870 MEMB     78       SAPE     H12B     HAL2     0.900000E-01   1.00800           0
      4871 MEMB     78       SAPE     C11      CTL2    -0.800000E-01   12.0110           0
      4872 MEMB     78       SAPE     H11A     HAL2     0.900000E-01   1.00800           0
      4873 MEMB     78       SAPE     H11B     HAL2     0.900000E-01   1.00800           0
      4874 MEMB     78       SAPE     P        PL       1.500000       30.9740           0
      4875 MEMB     78       SAPE     O13      O2L     -0.780000       15.9994           0
      4876 MEMB     78       SAPE     O14      O2L     -0.780000       15.9994           0
      4877 MEMB     78       SAPE     O12      OSLP    -0.570000       15.9994           0
      4878 MEMB     78       SAPE     O11      OSLP    -0.570000       15.9994           0
      4879 MEMB     78       SAPE     C1       CTL2    -0.800000E-01   12.0110           0
      4880 MEMB     78       SAPE     HA       HAL2     0.900000E-01   1.00800           0
      4881 MEMB     78       SAPE     HB       HAL2     0.900000E-01   1.00800           0
      4882 MEMB     78       SAPE     C2       CTL1     0.170000       12.0110           0
      4883 MEMB     78       SAPE     HS       HAL1     0.900000E-01   1.00800           0
      4884 MEMB     78       SAPE     O21      OSL     -0.490000       15.9994           0
      4885 MEMB     78       SAPE     C21      CL       0.900000       12.0110           0
      4886 MEMB     78       SAPE     O22      OBL     -0.630000       15.9994           0
      4887 MEMB     78       SAPE     C22      CTL2    -0.220000       12.0110           0
      4888 MEMB     78       SAPE     H2R      HAL2     0.900000E-01   1.00800           0
      4889 MEMB     78       SAPE     H2S      HAL2     0.900000E-01   1.00800           0
      4890 MEMB     78       SAPE     C3       CTL2     0.800000E-01   12.0110           0
      4891 MEMB     78       SAPE     HX       HAL2     0.900000E-01   1.00800           0
      4892 MEMB     78       SAPE     HY       HAL2     0.900000E-01   1.00800           0
      4893 MEMB     78       SAPE     O31      OSL     -0.490000       15.9994           0
      4894 MEMB     78       SAPE     C31      CL       0.900000       12.0110           0
      4895 MEMB     78       SAPE     O32      OBL     -0.630000       15.9994           0
      4896 MEMB     78       SAPE     C32      CTL2    -0.220000       12.0110           0
      4897 MEMB     78       SAPE     H2X      HAL2     0.900000E-01   1.00800           0
      4898 MEMB     78       SAPE     H2Y      HAL2     0.900000E-01   1.00800           0
      4899 MEMB     78       SAPE     C23      CTL2    -0.180000       12.0110           0
      4900 MEMB     78       SAPE     H3R      HAL2     0.900000E-01   1.00800           0
      4901 MEMB     78       SAPE     H3S      HAL2     0.900000E-01   1.00800           0
      4902 MEMB     78       SAPE     C24      CTL2    -0.180000       12.0110           0
      4903 MEMB     78       SAPE     H4R      HAL2     0.900000E-01   1.00800           0
      4904 MEMB     78       SAPE     H4S      HAL2     0.900000E-01   1.00800           0
      4905 MEMB     78       SAPE     C25      CEL1    -0.150000       12.0110           0
      4906 MEMB     78       SAPE     H5R      HEL1     0.150000       1.00800           0
      4907 MEMB     78       SAPE     C26      CEL1    -0.150000       12.0110           0
      4908 MEMB     78       SAPE     H6R      HEL1     0.150000       1.00800           0
      4909 MEMB     78       SAPE     C27      CTL2    -0.180000       12.0110           0
      4910 MEMB     78       SAPE     H7R      HAL2     0.900000E-01   1.00800           0
      4911 MEMB     78       SAPE     H7S      HAL2     0.900000E-01   1.00800           0
      4912 MEMB     78       SAPE     C28      CEL1    -0.150000       12.0110           0
      4913 MEMB     78       SAPE     H8R      HEL1     0.150000       1.00800           0
      4914 MEMB     78       SAPE     C29      CEL1    -0.150000       12.0110           0
      4915 MEMB     78       SAPE     H9R      HEL1     0.150000       1.00800           0
      4916 MEMB     78       SAPE     C210     CTL2    -0.180000       12.0110           0
      4917 MEMB     78       SAPE     H10R     HAL2     0.900000E-01   1.00800           0
      4918 MEMB     78       SAPE     H10S     HAL2     0.900000E-01   1.00800           0
      4919 MEMB     78       SAPE     C211     CEL1    -0.150000       12.0110           0
      4920 MEMB     78       SAPE     H11R     HEL1     0.150000       1.00800           0
      4921 MEMB     78       SAPE     C212     CEL1    -0.150000       12.0110           0
      4922 MEMB     78       SAPE     H12R     HEL1     0.150000       1.00800           0
      4923 MEMB     78       SAPE     C213     CTL2    -0.180000       12.0110           0
      4924 MEMB     78       SAPE     H13R     HAL2     0.900000E-01   1.00800           0
      4925 MEMB     78       SAPE     H13S     HAL2     0.900000E-01   1.00800           0
      4926 MEMB     78       SAPE     C214     CEL1    -0.150000       12.0110           0
      4927 MEMB     78       SAPE     H14R     HEL1     0.150000       1.00800           0
      4928 MEMB     78       SAPE     C215     CEL1    -0.150000       12.0110           0
      4929 MEMB     78       SAPE     H15R     HEL1     0.150000       1.00800           0
      4930 MEMB     78       SAPE     C216     CTL2    -0.180000       12.0110           0
      4931 MEMB     78       SAPE     H16R     HAL2     0.900000E-01   1.00800           0
      4932 MEMB     78       SAPE     H16S     HAL2     0.900000E-01   1.00800           0
      4933 MEMB     78       SAPE     C217     CTL2    -0.180000       12.0110           0
      4934 MEMB     78       SAPE     H17R     HAL2     0.900000E-01   1.00800           0
      4935 MEMB     78       SAPE     H17S     HAL2     0.900000E-01   1.00800           0
      4936 MEMB     78       SAPE     C218     CTL2    -0.180000       12.0110           0
      4937 MEMB     78       SAPE     H18R     HAL2     0.900000E-01   1.00800           0
      4938 MEMB     78       SAPE     H18S     HAL2     0.900000E-01   1.00800           0
      4939 MEMB     78       SAPE     C219     CTL2    -0.180000       12.0110           0
      4940 MEMB     78       SAPE     H19R     HAL2     0.900000E-01   1.00800           0
      4941 MEMB     78       SAPE     H19S     HAL2     0.900000E-01   1.00800           0
      4942 MEMB     78       SAPE     C220     CTL3    -0.270000       12.0110           0
      4943 MEMB     78       SAPE     H20R     HAL3     0.900000E-01   1.00800           0
      4944 MEMB     78       SAPE     H20S     HAL3     0.900000E-01   1.00800           0
      4945 MEMB     78       SAPE     H20T     HAL3     0.900000E-01   1.00800           0
      4946 MEMB     78       SAPE     C33      CTL2    -0.180000       12.0110           0
      4947 MEMB     78       SAPE     H3X      HAL2     0.900000E-01   1.00800           0
      4948 MEMB     78       SAPE     H3Y      HAL2     0.900000E-01   1.00800           0
      4949 MEMB     78       SAPE     C34      CTL2    -0.180000       12.0110           0
      4950 MEMB     78       SAPE     H4X      HAL2     0.900000E-01   1.00800           0
      4951 MEMB     78       SAPE     H4Y      HAL2     0.900000E-01   1.00800           0
      4952 MEMB     78       SAPE     C35      CTL2    -0.180000       12.0110           0
      4953 MEMB     78       SAPE     H5X      HAL2     0.900000E-01   1.00800           0
      4954 MEMB     78       SAPE     H5Y      HAL2     0.900000E-01   1.00800           0
      4955 MEMB     78       SAPE     C36      CTL2    -0.180000       12.0110           0
      4956 MEMB     78       SAPE     H6X      HAL2     0.900000E-01   1.00800           0
      4957 MEMB     78       SAPE     H6Y      HAL2     0.900000E-01   1.00800           0
      4958 MEMB     78       SAPE     C37      CTL2    -0.180000       12.0110           0
      4959 MEMB     78       SAPE     H7X      HAL2     0.900000E-01   1.00800           0
      4960 MEMB     78       SAPE     H7Y      HAL2     0.900000E-01   1.00800           0
      4961 MEMB     78       SAPE     C38      CTL2    -0.180000       12.0110           0
      4962 MEMB     78       SAPE     H8X      HAL2     0.900000E-01   1.00800           0
      4963 MEMB     78       SAPE     H8Y      HAL2     0.900000E-01   1.00800           0
      4964 MEMB     78       SAPE     C39      CTL2    -0.180000       12.0110           0
      4965 MEMB     78       SAPE     H9X      HAL2     0.900000E-01   1.00800           0
      4966 MEMB     78       SAPE     H9Y      HAL2     0.900000E-01   1.00800           0
      4967 MEMB     78       SAPE     C310     CTL2    -0.180000       12.0110           0
      4968 MEMB     78       SAPE     H10X     HAL2     0.900000E-01   1.00800           0
      4969 MEMB     78       SAPE     H10Y     HAL2     0.900000E-01   1.00800           0
      4970 MEMB     78       SAPE     C311     CTL2    -0.180000       12.0110           0
      4971 MEMB     78       SAPE     H11X     HAL2     0.900000E-01   1.00800           0
      4972 MEMB     78       SAPE     H11Y     HAL2     0.900000E-01   1.00800           0
      4973 MEMB     78       SAPE     C312     CTL2    -0.180000       12.0110           0
      4974 MEMB     78       SAPE     H12X     HAL2     0.900000E-01   1.00800           0
      4975 MEMB     78       SAPE     H12Y     HAL2     0.900000E-01   1.00800           0
      4976 MEMB     78       SAPE     C313     CTL2    -0.180000       12.0110           0
      4977 MEMB     78       SAPE     H13X     HAL2     0.900000E-01   1.00800           0
      4978 MEMB     78       SAPE     H13Y     HAL2     0.900000E-01   1.00800           0
      4979 MEMB     78       SAPE     C314     CTL2    -0.180000       12.0110           0
      4980 MEMB     78       SAPE     H14X     HAL2     0.900000E-01   1.00800           0
      4981 MEMB     78       SAPE     H14Y     HAL2     0.900000E-01   1.00800           0
      4982 MEMB     78       SAPE     C315     CTL2    -0.180000       12.0110           0
      4983 MEMB     78       SAPE     H15X     HAL2     0.900000E-01   1.00800           0
      4984 MEMB     78       SAPE     H15Y     HAL2     0.900000E-01   1.00800           0
      4985 MEMB     78       SAPE     C316     CTL2    -0.180000       12.0110           0
      4986 MEMB     78       SAPE     H16X     HAL2     0.900000E-01   1.00800           0
      4987 MEMB     78       SAPE     H16Y     HAL2     0.900000E-01   1.00800           0
      4988 MEMB     78       SAPE     C317     CTL2    -0.180000       12.0110           0
      4989 MEMB     78       SAPE     H17X     HAL2     0.900000E-01   1.00800           0
      4990 MEMB     78       SAPE     H17Y     HAL2     0.900000E-01   1.00800           0
      4991 MEMB     78       SAPE     C318     CTL3    -0.270000       12.0110           0
      4992 MEMB     78       SAPE     H18X     HAL3     0.900000E-01   1.00800           0
      4993 MEMB     78       SAPE     H18Y     HAL3     0.900000E-01   1.00800           0
      4994 MEMB     78       SAPE     H18Z     HAL3     0.900000E-01   1.00800           0
      4995 MEMB     87       SAPE     N        NH3L    -0.300000       14.0070           0
      4996 MEMB     87       SAPE     HN1      HCL      0.330000       1.00800           0
      4997 MEMB     87       SAPE     HN2      HCL      0.330000       1.00800           0
      4998 MEMB     87       SAPE     HN3      HCL      0.330000       1.00800           0
      4999 MEMB     87       SAPE     C12      CTL2     0.130000       12.0110           0
      5000 MEMB     87       SAPE     H12A     HAL2     0.900000E-01   1.00800           0
      5001 MEMB     87       SAPE     H12B     HAL2     0.900000E-01   1.00800           0
      5002 MEMB     87       SAPE     C11      CTL2    -0.800000E-01   12.0110           0
      5003 MEMB     87       SAPE     H11A     HAL2     0.900000E-01   1.00800           0
      5004 MEMB     87       SAPE     H11B     HAL2     0.900000E-01   1.00800           0
      5005 MEMB     87       SAPE     P        PL       1.500000       30.9740           0
      5006 MEMB     87       SAPE     O13      O2L     -0.780000       15.9994           0
      5007 MEMB     87       SAPE     O14      O2L     -0.780000       15.9994           0
      5008 MEMB     87       SAPE     O12      OSLP    -0.570000       15.9994           0
      5009 MEMB     87       SAPE     O11      OSLP    -0.570000       15.9994           0
      5010 MEMB     87       SAPE     C1       CTL2    -0.800000E-01   12.0110           0
      5011 MEMB     87       SAPE     HA       HAL2     0.900000E-01   1.00800           0
      5012 MEMB     87       SAPE     HB       HAL2     0.900000E-01   1.00800           0
      5013 MEMB     87       SAPE     C2       CTL1     0.170000       12.0110           0
      5014 MEMB     87       SAPE     HS       HAL1     0.900000E-01   1.00800           0
      5015 MEMB     87       SAPE     O21      OSL     -0.490000       15.9994           0
      5016 MEMB     87       SAPE     C21      CL       0.900000       12.0110           0
      5017 MEMB     87       SAPE     O22      OBL     -0.630000       15.9994           0
      5018 MEMB     87       SAPE     C22      CTL2    -0.220000       12.0110           0
      5019 MEMB     87       SAPE     H2R      HAL2     0.900000E-01   1.00800           0
      5020 MEMB     87       SAPE     H2S      HAL2     0.900000E-01   1.00800           0
      5021 MEMB     87       SAPE     C3       CTL2     0.800000E-01   12.0110           0
      5022 MEMB     87       SAPE     HX       HAL2     0.900000E-01   1.00800           0
      5023 MEMB     87       SAPE     HY       HAL2     0.900000E-01   1.00800           0
      5024 MEMB     87       SAPE     O31      OSL     -0.490000       15.9994           0
      5025 MEMB     87       SAPE     C31      CL       0.900000       12.0110           0
      5026 MEMB     87       SAPE     O32      OBL     -0.630000       15.9994           0
      5027 MEMB     87       SAPE     C32      CTL2    -0.220000       12.0110           0
      5028 MEMB     87       SAPE     H2X      HAL2     0.900000E-01   1.00800           0
      5029 MEMB     87       SAPE     H2Y      HAL2     0.900000E-01   1.00800           0
      5030 MEMB     87       SAPE     C23      CTL2    -0.180000       12.0110           0
      5031 MEMB     87       SAPE     H3R      HAL2     0.900000E-01   1.00800           0
      5032 MEMB     87       SAPE     H3S      HAL2     0.900000E-01   1.00800           0
      5033 MEMB     87       SAPE     C24      CTL2    -0.180000       12.0110           0
      5034 MEMB     87       SAPE     H4R      HAL2     0.900000E-01   1.00800           0
      5035 MEMB     87       SAPE     H4S      HAL2     0.900000E-01   1.00800           0
      5036 MEMB     87       SAPE     C25      CEL1    -0.150000       12.0110           0
      5037 MEMB     87       SAPE     H5R      HEL1     0.150000       1.00800           0
      5038 MEMB     87       SAPE     C26      CEL1    -0.150000       12.0110           0
      5039 MEMB     87       SAPE     H6R      HEL1     0.150000       1.00800           0
      5040 MEMB     87       SAPE     C27      CTL2    -0.180000       12.0110           0
      5041 MEMB     87       SAPE     H7R      HAL2     0.900000E-01   1.00800           0
      5042 MEMB     87       SAPE     H7S      HAL2     0.900000E-01   1.00800           0
      5043 MEMB     87       SAPE     C28      CEL1    -0.150000       12.0110           0
      5044 MEMB     87       SAPE     H8R      HEL1     0.150000       1.00800           0
      5045 MEMB     87       SAPE     C29      CEL1    -0.150000       12.0110           0
      5046 MEMB     87       SAPE     H9R      HEL1     0.150000       1.00800           0
      5047 MEMB     87       SAPE     C210     CTL2    -0.180000       12.0110           0
      5048 MEMB     87       SAPE     H10R     HAL2     0.900000E-01   1.00800           0
      5049 MEMB     87       SAPE     H10S     HAL2     0.900000E-01   1.00800           0
      5050 MEMB     87       SAPE     C211     CEL1    -0.150000       12.0110           0
      5051 MEMB     87       SAPE     H11R     HEL1     0.150000       1.00800           0
      5052 MEMB     87       SAPE     C212     CEL1    -0.150000       12.0110           0
      5053 MEMB     87       SAPE     H12R     HEL1     0.150000       1.00800           0
      5054 MEMB     87       SAPE     C213     CTL2    -0.180000       12.0110           0
      5055 MEMB     87       SAPE     H13R     HAL2     0.900000E-01   1.00800           0
      5056 MEMB     87       SAPE     H13S     HAL2     0.900000E-01   1.00800           0
      5057 MEMB     87       SAPE     C214     CEL1    -0.150000       12.0110           0
      5058 MEMB     87       SAPE     H14R     HEL1     0.150000       1.00800           0
      5059 MEMB     87       SAPE     C215     CEL1    -0.150000       12.0110           0
      5060 MEMB     87       SAPE     H15R     HEL1     0.150000       1.00800           0
      5061 MEMB     87       SAPE     C216     CTL2    -0.180000       12.0110           0
      5062 MEMB     87       SAPE     H16R     HAL2     0.900000E-01   1.00800           0
      5063 MEMB     87       SAPE     H16S     HAL2     0.900000E-01   1.00800           0
      5064 MEMB     87       SAPE     C217     CTL2    -0.180000       12.0110           0
      5065 MEMB     87       SAPE     H17R     HAL2     0.900000E-01   1.00800           0
      5066 MEMB     87       SAPE     H17S     HAL2     0.900000E-01   1.00800           0
      5067 MEMB     87       SAPE     C218     CTL2    -0.180000       12.0110           0
      5068 MEMB     87       SAPE     H18R     HAL2     0.900000E-01   1.00800           0
      5069 MEMB     87       SAPE     H18S     HAL2     0.900000E-01   1.00800           0
      5070 MEMB     87       SAPE     C219     CTL2    -0.180000       12.0110           0
      5071 MEMB     87       SAPE     H19R     HAL2     0.900000E-01   1.00800           0
      5072 MEMB     87       SAPE     H19S     HAL2     0.900000E-01   1.00800           0
      5073 MEMB     87       SAPE     C220     CTL3    -0.270000       12.0110           0
      5074 MEMB     87       SAPE     H20R     HAL3     0.900000E-01   1.00800           0
      5075 MEMB     87       SAPE     H20S     HAL3     0.900000E-01   1.00800           0
      5076 MEMB     87       SAPE     H20T     HAL3     0.900000E-01   1.00800           0
      5077 MEMB     87       SAPE     C33      CTL2    -0.180000       12.0110           0
      5078 MEMB     87       SAPE     H3X      HAL2     0.900000E-01   1.00800           0
      5079 MEMB     87       SAPE     H3Y      HAL2     0.900000E-01   1.00800           0
      5080 MEMB     87       SAPE     C34      CTL2    -0.180000       12.0110           0
      5081 MEMB     87       SAPE     H4X      HAL2     0.900000E-01   1.00800           0
      5082 MEMB     87       SAPE     H4Y      HAL2     0.900000E-01   1.00800           0
      5083 MEMB     87       SAPE     C35      CTL2    -0.180000       12.0110           0
      5084 MEMB     87       SAPE     H5X      HAL2     0.900000E-01   1.00800           0
      5085 MEMB     87       SAPE     H5Y      HAL2     0.900000E-01   1.00800           0
      5086 MEMB     87       SAPE     C36      CTL2    -0.180000       12.0110           0
      5087 MEMB     87       SAPE     H6X      HAL2     0.900000E-01   1.00800           0
      5088 MEMB     87       SAPE     H6Y      HAL2     0.900000E-01   1.00800           0
      5089 MEMB     87       SAPE     C37      CTL2    -0.180000       12.0110           0
      5090 MEMB     87       SAPE     H7X      HAL2     0.900000E-01   1.00800           0
      5091 MEMB     87       SAPE     H7Y      HAL2     0.900000E-01   1.00800           0
      5092 MEMB     87       SAPE     C38      CTL2    -0.180000       12.0110           0
      5093 MEMB     87       SAPE     H8X      HAL2     0.900000E-01   1.00800           0
      5094 MEMB     87       SAPE     H8Y      HAL2     0.900000E-01   1.00800           0
      5095 MEMB     87       SAPE     C39      CTL2    -0.180000       12.0110           0
      5096 MEMB     87       SAPE     H9X      HAL2     0.900000E-01   1.00800           0
      5097 MEMB     87       SAPE     H9Y      HAL2     0.900000E-01   1.00800           0
      5098 MEMB     87       SAPE     C310     CTL2    -0.180000       12.0110           0
      5099 MEMB     87       SAPE     H10X     HAL2     0.900000E-01   1.00800           0
      5100 MEMB     87       SAPE     H10Y     HAL2     0.900000E-01   1.00800           0
      5101 MEMB     87       SAPE     C311     CTL2    -0.180000       12.0110           0
      5102 MEMB     87       SAPE     H11X     HAL2     0.900000E-01   1.00800           0
      5103 MEMB     87       SAPE     H11Y     HAL2     0.900000E-01   1.00800           0
      5104 MEMB     87       SAPE     C312     CTL2    -0.180000       12.0110           0
      5105 MEMB     87       SAPE     H12X     HAL2     0.900000E-01   1.00800           0
      5106 MEMB     87       SAPE     H12Y     HAL2     0.900000E-01   1.00800           0
      5107 MEMB     87       SAPE     C313     CTL2    -0.180000       12.0110           0
      5108 MEMB     87       SAPE     H13X     HAL2     0.900000E-01   1.00800           0
      5109 MEMB     87       SAPE     H13Y     HAL2     0.900000E-01   1.00800           0
      5110 MEMB     87       SAPE     C314     CTL2    -0.180000       12.0110           0
      5111 MEMB     87       SAPE     H14X     HAL2     0.900000E-01   1.00800           0
      5112 MEMB     87       SAPE     H14Y     HAL2     0.900000E-01   1.00800           0
      5113 MEMB     87       SAPE     C315     CTL2    -0.180000       12.0110           0
      5114 MEMB     87       SAPE     H15X     HAL2     0.900000E-01   1.00800           0
      5115 MEMB     87       SAPE     H15Y     HAL2     0.900000E-01   1.00800           0
      5116 MEMB     87       SAPE     C316     CTL2    -0.180000       12.0110           0
      5117 MEMB     87       SAPE     H16X     HAL2     0.900000E-01   1.00800           0
      5118 MEMB     87       SAPE     H16Y     HAL2     0.900000E-01   1.00800           0
      5119 MEMB     87       SAPE     C317     CTL2    -0.180000       12.0110           0
      5120 MEMB     87       SAPE     H17X     HAL2     0.900000E-01   1.00800           0
      5121 MEMB     87       SAPE     H17Y     HAL2     0.900000E-01   1.00800           0
      5122 MEMB     87       SAPE     C318     CTL3    -0.270000       12.0110           0
      5123 MEMB     87       SAPE     H18X     HAL3     0.900000E-01   1.00800           0
      5124 MEMB     87       SAPE     H18Y     HAL3     0.900000E-01   1.00800           0
      5125 MEMB     87       SAPE     H18Z     HAL3     0.900000E-01   1.00800           0
      5126 MEMB     92       SAPE     N        NH3L    -0.300000       14.0070           0
      5127 MEMB     92       SAPE     HN1      HCL      0.330000       1.00800           0
      5128 MEMB     92       SAPE     HN2      HCL      0.330000       1.00800           0
      5129 MEMB     92       SAPE     HN3      HCL      0.330000       1.00800           0
      5130 MEMB     92       SAPE     C12      CTL2     0.130000       12.0110           0
      5131 MEMB     92       SAPE     H12A     HAL2     0.900000E-01   1.00800           0
      5132 MEMB     92       SAPE     H12B     HAL2     0.900000E-01   1.00800           0
      5133 MEMB     92       SAPE     C11      CTL2    -0.800000E-01   12.0110           0
      5134 MEMB     92       SAPE     H11A     HAL2     0.900000E-01   1.00800           0
      5135 MEMB     92       SAPE     H11B     HAL2     0.900000E-01   1.00800           0
      5136 MEMB     92       SAPE     P        PL       1.500000       30.9740           0
      5137 MEMB     92       SAPE     O13      O2L     -0.780000       15.9994           0
      5138 MEMB     92       SAPE     O14      O2L     -0.780000       15.9994           0
      5139 MEMB     92       SAPE     O12      OSLP    -0.570000       15.9994           0
      5140 MEMB     92       SAPE     O11      OSLP    -0.570000       15.9994           0
      5141 MEMB     92       SAPE     C1       CTL2    -0.800000E-01   12.0110           0
      5142 MEMB     92       SAPE     HA       HAL2     0.900000E-01   1.00800           0
      5143 MEMB     92       SAPE     HB       HAL2     0.900000E-01   1.00800           0
      5144 MEMB     92       SAPE     C2       CTL1     0.170000       12.0110           0
      5145 MEMB     92       SAPE     HS       HAL1     0.900000E-01   1.00800           0
      5146 MEMB     92       SAPE     O21      OSL     -0.490000       15.9994           0
      5147 MEMB     92       SAPE     C21      CL       0.900000       12.0110           0
      5148 MEMB     92       SAPE     O22      OBL     -0.630000       15.9994           0
      5149 MEMB     92       SAPE     C22      CTL2    -0.220000       12.0110           0
      5150 MEMB     92       SAPE     H2R      HAL2     0.900000E-01   1.00800           0
      5151 MEMB     92       SAPE     H2S      HAL2     0.900000E-01   1.00800           0
      5152 MEMB     92       SAPE     C3       CTL2     0.800000E-01   12.0110           0
      5153 MEMB     92       SAPE     HX       HAL2     0.900000E-01   1.00800           0
      5154 MEMB     92       SAPE     HY       HAL2     0.900000E-01   1.00800           0
      5155 MEMB     92       SAPE     O31      OSL     -0.490000       15.9994           0
      5156 MEMB     92       SAPE     C31      CL       0.900000       12.0110           0
      5157 MEMB     92       SAPE     O32      OBL     -0.630000       15.9994           0
      5158 MEMB     92       SAPE     C32      CTL2    -0.220000       12.0110           0
      5159 MEMB     92       SAPE     H2X      HAL2     0.900000E-01   1.00800           0
      5160 MEMB     92       SAPE     H2Y      HAL2     0.900000E-01   1.00800           0
      5161 MEMB     92       SAPE     C23      CTL2    -0.180000       12.0110           0
      5162 MEMB     92       SAPE     H3R      HAL2     0.900000E-01   1.00800           0
      5163 MEMB     92       SAPE     H3S      HAL2     0.900000E-01   1.00800           0
      5164 MEMB     92       SAPE     C24      CTL2    -0.180000       12.0110           0
      5165 MEMB     92       SAPE     H4R      HAL2     0.900000E-01   1.00800           0
      5166 MEMB     92       SAPE     H4S      HAL2     0.900000E-01   1.00800           0
      5167 MEMB     92       SAPE     C25      CEL1    -0.150000       12.0110           0
      5168 MEMB     92       SAPE     H5R      HEL1     0.150000       1.00800           0
      5169 MEMB     92       SAPE     C26      CEL1    -0.150000       12.0110           0
      5170 MEMB     92       SAPE     H6R      HEL1     0.150000       1.00800           0
      5171 MEMB     92       SAPE     C27      CTL2    -0.180000       12.0110           0
      5172 MEMB     92       SAPE     H7R      HAL2     0.900000E-01   1.00800           0
      5173 MEMB     92       SAPE     H7S      HAL2     0.900000E-01   1.00800           0
      5174 MEMB     92       SAPE     C28      CEL1    -0.150000       12.0110           0
      5175 MEMB     92       SAPE     H8R      HEL1     0.150000       1.00800           0
      5176 MEMB     92       SAPE     C29      CEL1    -0.150000       12.0110           0
      5177 MEMB     92       SAPE     H9R      HEL1     0.150000       1.00800           0
      5178 MEMB     92       SAPE     C210     CTL2    -0.180000       12.0110           0
      5179 MEMB     92       SAPE     H10R     HAL2     0.900000E-01   1.00800           0
      5180 MEMB     92       SAPE     H10S     HAL2     0.900000E-01   1.00800           0
      5181 MEMB     92       SAPE     C211     CEL1    -0.150000       12.0110           0
      5182 MEMB     92       SAPE     H11R     HEL1     0.150000       1.00800           0
      5183 MEMB     92       SAPE     C212     CEL1    -0.150000       12.0110           0
      5184 MEMB     92       SAPE     H12R     HEL1     0.150000       1.00800           0
      5185 MEMB     92       SAPE     C213     CTL2    -0.180000       12.0110           0
      5186 MEMB     92       SAPE     H13R     HAL2     0.900000E-01   1.00800           0
      5187 MEMB     92       SAPE     H13S     HAL2     0.900000E-01   1.00800           0
      5188 MEMB     92       SAPE     C214     CEL1    -0.150000       12.0110           0
      5189 MEMB     92       SAPE     H14R     HEL1     0.150000       1.00800           0
      5190 MEMB     92       SAPE     C215     CEL1    -0.150000       12.0110           0
      5191 MEMB     92       SAPE     H15R     HEL1     0.150000       1.00800           0
      5192 MEMB     92       SAPE     C216     CTL2    -0.180000       12.0110           0
      5193 MEMB     92       SAPE     H16R     HAL2     0.900000E-01   1.00800           0
      5194 MEMB     92       SAPE     H16S     HAL2     0.900000E-01   1.00800           0
      5195 MEMB     92       SAPE     C217     CTL2    -0.180000       12.0110           0
      5196 MEMB     92       SAPE     H17R     HAL2     0.900000E-01   1.00800           0
      5197 MEMB     92       SAPE     H17S     HAL2     0.900000E-01   1.00800           0
      5198 MEMB     92       SAPE     C218     CTL2    -0.180000       12.0110           0
      5199 MEMB     92       SAPE     H18R     HAL2     0.900000E-01   1.00800           0
      5200 MEMB     92       SAPE     H18S     HAL2     0.900000E-01   1.00800           0
      5201 MEMB     92       SAPE     C219     CTL2    -0.180000       12.0110           0
      5202 MEMB     92       SAPE     H19R     HAL2     0.900000E-01   1.00800           0
      5203 MEMB     92       SAPE     H19S     HAL2     0.900000E-01   1.00800           0
      5204 MEMB     92       SAPE     C220     CTL3    -0.270000       12.0110           0
      5205 MEMB     92       SAPE     H20R     HAL3     0.900000E-01   1.00800           0
      5206 MEMB     92       SAPE     H20S     HAL3     0.900000E-01   1.00800           0
      5207 MEMB     92       SAPE     H20T     HAL3     0.900000E-01   1.00800           0
      5208 MEMB     92       SAPE     C33      CTL2    -0.180000       12.0110           0
      5209 MEMB     92       SAPE     H3X      HAL2     0.900000E-01   1.00800           0
      5210 MEMB     92       SAPE     H3Y      HAL2     0.900000E-01   1.00800           0
      5211 MEMB     92       SAPE     C34      CTL2    -0.180000       12.0110           0
      5212 MEMB     92       SAPE     H4X      HAL2     0.900000E-01   1.00800           0
      5213 MEMB     92       SAPE     H4Y      HAL2     0.900000E-01   1.00800           0
      5214 MEMB     92       SAPE     C35      CTL2    -0.180000       12.0110           0
      5215 MEMB     92       SAPE     H5X      HAL2     0.900000E-01   1.00800           0
      5216 MEMB     92       SAPE     H5Y      HAL2     0.900000E-01   1.00800           0
      5217 MEMB     92       SAPE     C36      CTL2    -0.180000       12.0110           0
      5218 MEMB     92       SAPE     H6X      HAL2     0.900000E-01   1.00800           0
      5219 MEMB     92       SAPE     H6Y      HAL2     0.900000E-01   1.00800           0
      5220 MEMB     92       SAPE     C37      CTL2    -0.180000       12.0110           0
      5221 MEMB     92       SAPE     H7X      HAL2     0.900000E-01   1.00800           0
      5222 MEMB     92       SAPE     H7Y      HAL2     0.900000E-01   1.00800           0
      5223 MEMB     92       SAPE     C38      CTL2    -0.180000       12.0110           0
      5224 MEMB     92       SAPE     H8X      HAL2     0.900000E-01   1.00800           0
      5225 MEMB     92       SAPE     H8Y      HAL2     0.900000E-01   1.00800           0
      5226 MEMB     92       SAPE     C39      CTL2    -0.180000       12.0110           0
      5227 MEMB     92       SAPE     H9X      HAL2     0.900000E-01   1.00800           0
      5228 MEMB     92       SAPE     H9Y      HAL2     0.900000E-01   1.00800           0
      5229 MEMB     92       SAPE     C310     CTL2    -0.180000       12.0110           0
      5230 MEMB     92       SAPE     H10X     HAL2     0.900000E-01   1.00800           0
      5231 MEMB     92       SAPE     H10Y     HAL2     0.900000E-01   1.00800           0
      5232 MEMB     92       SAPE     C311     CTL2    -0.180000       12.0110           0
      5233 MEMB     92       SAPE     H11X     HAL2     0.900000E-01   1.00800           0
      5234 MEMB     92       SAPE     H11Y     HAL2     0.900000E-01   1.00800           0
      5235 MEMB     92       SAPE     C312     CTL2    -0.180000       12.0110           0
      5236 MEMB     92       SAPE     H12X     HAL2     0.900000E-01   1.00800           0
      5237 MEMB     92       SAPE     H12Y     HAL2     0.900000E-01   1.00800           0
      5238 MEMB     92       SAPE     C313     CTL2    -0.180000       12.0110           0
      5239 MEMB     92       SAPE     H13X     HAL2     0.900000E-01   1.00800           0
      5240 MEMB     92       SAPE     H13Y     HAL2     0.900000E-01   1.00800           0
      5241 MEMB     92       SAPE     C314     CTL2    -0.180000       12.0110           0
      5242 MEMB     92       SAPE     H14X     HAL2     0.900000E-01   1.00800           0
      5243 MEMB     92       SAPE     H14Y     HAL2     0.900000E-01   1.00800           0
      5244 MEMB     92       SAPE     C315     CTL2    -0.180000       12.0110           0
      5245 MEMB     92       SAPE     H15X     HAL2     0.900000E-01   1.00800           0
      5246 MEMB     92       SAPE     H15Y     HAL2     0.900000E-01   1.00800           0
      5247 MEMB     92       SAPE     C316     CTL2    -0.180000       12.0110           0
      5248 MEMB     92       SAPE     H16X     HAL2     0.900000E-01   1.00800           0
      5249 MEMB     92       SAPE     H16Y     HAL2     0.900000E-01   1.00800           0
      5250 MEMB     92       SAPE     C317     CTL2    -0.180000       12.0110           0
      5251 MEMB     92       SAPE     H17X     HAL2     0.900000E-01   1.00800           0
      5252 MEMB     92       SAPE     H17Y     HAL2     0.900000E-01   1.00800           0
      5253 MEMB     92       SAPE     C318     CTL3    -0.270000       12.0110           0
      5254 MEMB     92       SAPE     H18X     HAL3     0.900000E-01   1.00800           0
      5255 MEMB     92       SAPE     H18Y     HAL3     0.900000E-01   1.00800           0
      5256 MEMB     92       SAPE     H18Z     HAL3     0.900000E-01   1.00800           0
      5257 MEMB     4        CHL1     C3       CRL1     0.140000       12.0110           0
      5258 MEMB     4        CHL1     H3       HGA1     0.900000E-01   1.00800           0
      5259 MEMB     4        CHL1     O3       OHL     -0.660000       15.9994           0
      5260 MEMB     4        CHL1     H3'      HOL      0.430000       1.00800           0
      5261 MEMB     4        CHL1     C4       CRL2    -0.180000       12.0110           0
      5262 MEMB     4        CHL1     H4A      HGA2     0.900000E-01   1.00800           0
      5263 MEMB     4        CHL1     H4B      HGA2     0.900000E-01   1.00800           0
      5264 MEMB     4        CHL1     C5       CEL1     0.000000       12.0110           0
      5265 MEMB     4        CHL1     C6       CEL1    -0.150000       12.0110           0
      5266 MEMB     4        CHL1     H6       HEL1     0.150000       1.00800           0
      5267 MEMB     4        CHL1     C7       CRL2    -0.180000       12.0110           0
      5268 MEMB     4        CHL1     H7A      HGA2     0.900000E-01   1.00800           0
      5269 MEMB     4        CHL1     H7B      HGA2     0.900000E-01   1.00800           0
      5270 MEMB     4        CHL1     C8       CRL1    -0.900000E-01   12.0110           0
      5271 MEMB     4        CHL1     H8       HGA1     0.900000E-01   1.00800           0
      5272 MEMB     4        CHL1     C14      CRL1    -0.900000E-01   12.0110           0
      5273 MEMB     4        CHL1     H14      HGA1     0.900000E-01   1.00800           0
      5274 MEMB     4        CHL1     C15      CRL2    -0.180000       12.0110           0
      5275 MEMB     4        CHL1     H15A     HGA2     0.900000E-01   1.00800           0
      5276 MEMB     4        CHL1     H15B     HGA2     0.900000E-01   1.00800           0
      5277 MEMB     4        CHL1     C16      CRL2    -0.180000       12.0110           0
      5278 MEMB     4        CHL1     H16A     HGA2     0.900000E-01   1.00800           0
      5279 MEMB     4        CHL1     H16B     HGA2     0.900000E-01   1.00800           0
      5280 MEMB     4        CHL1     C17      CRL1    -0.900000E-01   12.0110           0
      5281 MEMB     4        CHL1     H17      HGA1     0.900000E-01   1.00800           0
      5282 MEMB     4        CHL1     C13      CRL1     0.000000       12.0110           0
      5283 MEMB     4        CHL1     C18      CTL3    -0.270000       12.0110           0
      5284 MEMB     4        CHL1     H18A     HAL3     0.900000E-01   1.00800           0
      5285 MEMB     4        CHL1     H18B     HAL3     0.900000E-01   1.00800           0
      5286 MEMB     4        CHL1     H18C     HAL3     0.900000E-01   1.00800           0
      5287 MEMB     4        CHL1     C12      CRL2    -0.180000       12.0110           0
      5288 MEMB     4        CHL1     H12A     HGA2     0.900000E-01   1.00800           0
      5289 MEMB     4        CHL1     H12B     HGA2     0.900000E-01   1.00800           0
      5290 MEMB     4        CHL1     C11      CRL2    -0.180000       12.0110           0
      5291 MEMB     4        CHL1     H11A     HGA2     0.900000E-01   1.00800           0
      5292 MEMB     4        CHL1     H11B     HGA2     0.900000E-01   1.00800           0
      5293 MEMB     4        CHL1     C9       CRL1    -0.900000E-01   12.0110           0
      5294 MEMB     4        CHL1     H9       HGA1     0.900000E-01   1.00800           0
      5295 MEMB     4        CHL1     C10      CRL1     0.000000       12.0110           0
      5296 MEMB     4        CHL1     C19      CTL3    -0.270000       12.0110           0
      5297 MEMB     4        CHL1     H19A     HAL3     0.900000E-01   1.00800           0
      5298 MEMB     4        CHL1     H19B     HAL3     0.900000E-01   1.00800           0
      5299 MEMB     4        CHL1     H19C     HAL3     0.900000E-01   1.00800           0
      5300 MEMB     4        CHL1     C1       CRL2    -0.180000       12.0110           0
      5301 MEMB     4        CHL1     H1A      HGA2     0.900000E-01   1.00800           0
      5302 MEMB     4        CHL1     H1B      HGA2     0.900000E-01   1.00800           0
      5303 MEMB     4        CHL1     C2       CRL2    -0.180000       12.0110           0
      5304 MEMB     4        CHL1     H2A      HGA2     0.900000E-01   1.00800           0
      5305 MEMB     4        CHL1     H2B      HGA2     0.900000E-01   1.00800           0
      5306 MEMB     4        CHL1     C20      CTL1    -0.900000E-01   12.0110           0
      5307 MEMB     4        CHL1     H20      HAL1     0.900000E-01   1.00800           0
      5308 MEMB     4        CHL1     C21      CTL3    -0.270000       12.0110           0
      5309 MEMB     4        CHL1     H21A     HAL3     0.900000E-01   1.00800           0
      5310 MEMB     4        CHL1     H21B     HAL3     0.900000E-01   1.00800           0
      5311 MEMB     4        CHL1     H21C     HAL3     0.900000E-01   1.00800           0
      5312 MEMB     4        CHL1     C22      CTL2    -0.180000       12.0110           0
      5313 MEMB     4        CHL1     H22A     HAL2     0.900000E-01   1.00800           0
      5314 MEMB     4        CHL1     H22B     HAL2     0.900000E-01   1.00800           0
      5315 MEMB     4        CHL1     C23      CTL2    -0.180000       12.0110           0
      5316 MEMB     4        CHL1     H23A     HAL2     0.900000E-01   1.00800           0
      5317 MEMB     4        CHL1     H23B     HAL2     0.900000E-01   1.00800           0
      5318 MEMB     4        CHL1     C24      CTL2    -0.180000       12.0110           0
      5319 MEMB     4        CHL1     H24A     HAL2     0.900000E-01   1.00800           0
      5320 MEMB     4        CHL1     H24B     HAL2     0.900000E-01   1.00800           0
      5321 MEMB     4        CHL1     C25      CTL1    -0.900000E-01   12.0110           0
      5322 MEMB     4        CHL1     H25      HAL1     0.900000E-01   1.00800           0
      5323 MEMB     4        CHL1     C26      CTL3    -0.270000       12.0110           0
      5324 MEMB     4        CHL1     H26A     HAL3     0.900000E-01   1.00800           0
      5325 MEMB     4        CHL1     H26B     HAL3     0.900000E-01   1.00800           0
      5326 MEMB     4        CHL1     H26C     HAL3     0.900000E-01   1.00800           0
      5327 MEMB     4        CHL1     C27      CTL3    -0.270000       12.0110           0
      5328 MEMB     4        CHL1     H27A     HAL3     0.900000E-01   1.00800           0
      5329 MEMB     4        CHL1     H27B     HAL3     0.900000E-01   1.00800           0
      5330 MEMB     4        CHL1     H27C     HAL3     0.900000E-01   1.00800           0
      5331 MEMB     6        CHL1     C3       CRL1     0.140000       12.0110           0
      5332 MEMB     6        CHL1     H3       HGA1     0.900000E-01   1.00800           0
      5333 MEMB     6        CHL1     O3       OHL     -0.660000       15.9994           0
      5334 MEMB     6        CHL1     H3'      HOL      0.430000       1.00800           0
      5335 MEMB     6        CHL1     C4       CRL2    -0.180000       12.0110           0
      5336 MEMB     6        CHL1     H4A      HGA2     0.900000E-01   1.00800           0
      5337 MEMB     6        CHL1     H4B      HGA2     0.900000E-01   1.00800           0
      5338 MEMB     6        CHL1     C5       CEL1     0.000000       12.0110           0
      5339 MEMB     6        CHL1     C6       CEL1    -0.150000       12.0110           0
      5340 MEMB     6        CHL1     H6       HEL1     0.150000       1.00800           0
      5341 MEMB     6        CHL1     C7       CRL2    -0.180000       12.0110           0
      5342 MEMB     6        CHL1     H7A      HGA2     0.900000E-01   1.00800           0
      5343 MEMB     6        CHL1     H7B      HGA2     0.900000E-01   1.00800           0
      5344 MEMB     6        CHL1     C8       CRL1    -0.900000E-01   12.0110           0
      5345 MEMB     6        CHL1     H8       HGA1     0.900000E-01   1.00800           0
      5346 MEMB     6        CHL1     C14      CRL1    -0.900000E-01   12.0110           0
      5347 MEMB     6        CHL1     H14      HGA1     0.900000E-01   1.00800           0
      5348 MEMB     6        CHL1     C15      CRL2    -0.180000       12.0110           0
      5349 MEMB     6        CHL1     H15A     HGA2     0.900000E-01   1.00800           0
      5350 MEMB     6        CHL1     H15B     HGA2     0.900000E-01   1.00800           0
      5351 MEMB     6        CHL1     C16      CRL2    -0.180000       12.0110           0
      5352 MEMB     6        CHL1     H16A     HGA2     0.900000E-01   1.00800           0
      5353 MEMB     6        CHL1     H16B     HGA2     0.900000E-01   1.00800           0
      5354 MEMB     6        CHL1     C17      CRL1    -0.900000E-01   12.0110           0
      5355 MEMB     6        CHL1     H17      HGA1     0.900000E-01   1.00800           0
      5356 MEMB     6        CHL1     C13      CRL1     0.000000       12.0110           0
      5357 MEMB     6        CHL1     C18      CTL3    -0.270000       12.0110           0
      5358 MEMB     6        CHL1     H18A     HAL3     0.900000E-01   1.00800           0
      5359 MEMB     6        CHL1     H18B     HAL3     0.900000E-01   1.00800           0
      5360 MEMB     6        CHL1     H18C     HAL3     0.900000E-01   1.00800           0
      5361 MEMB     6        CHL1     C12      CRL2    -0.180000       12.0110           0
      5362 MEMB     6        CHL1     H12A     HGA2     0.900000E-01   1.00800           0
      5363 MEMB     6        CHL1     H12B     HGA2     0.900000E-01   1.00800           0
      5364 MEMB     6        CHL1     C11      CRL2    -0.180000       12.0110           0
      5365 MEMB     6        CHL1     H11A     HGA2     0.900000E-01   1.00800           0
      5366 MEMB     6        CHL1     H11B     HGA2     0.900000E-01   1.00800           0
      5367 MEMB     6        CHL1     C9       CRL1    -0.900000E-01   12.0110           0
      5368 MEMB     6        CHL1     H9       HGA1     0.900000E-01   1.00800           0
      5369 MEMB     6        CHL1     C10      CRL1     0.000000       12.0110           0
      5370 MEMB     6        CHL1     C19      CTL3    -0.270000       12.0110           0
      5371 MEMB     6        CHL1     H19A     HAL3     0.900000E-01   1.00800           0
      5372 MEMB     6        CHL1     H19B     HAL3     0.900000E-01   1.00800           0
      5373 MEMB     6        CHL1     H19C     HAL3     0.900000E-01   1.00800           0
      5374 MEMB     6        CHL1     C1       CRL2    -0.180000       12.0110           0
      5375 MEMB     6        CHL1     H1A      HGA2     0.900000E-01   1.00800           0
      5376 MEMB     6        CHL1     H1B      HGA2     0.900000E-01   1.00800           0
      5377 MEMB     6        CHL1     C2       CRL2    -0.180000       12.0110           0
      5378 MEMB     6        CHL1     H2A      HGA2     0.900000E-01   1.00800           0
      5379 MEMB     6        CHL1     H2B      HGA2     0.900000E-01   1.00800           0
      5380 MEMB     6        CHL1     C20      CTL1    -0.900000E-01   12.0110           0
      5381 MEMB     6        CHL1     H20      HAL1     0.900000E-01   1.00800           0
      5382 MEMB     6        CHL1     C21      CTL3    -0.270000       12.0110           0
      5383 MEMB     6        CHL1     H21A     HAL3     0.900000E-01   1.00800           0
      5384 MEMB     6        CHL1     H21B     HAL3     0.900000E-01   1.00800           0
      5385 MEMB     6        CHL1     H21C     HAL3     0.900000E-01   1.00800           0
      5386 MEMB     6        CHL1     C22      CTL2    -0.180000       12.0110           0
      5387 MEMB     6        CHL1     H22A     HAL2     0.900000E-01   1.00800           0
      5388 MEMB     6        CHL1     H22B     HAL2     0.900000E-01   1.00800           0
      5389 MEMB     6        CHL1     C23      CTL2    -0.180000       12.0110           0
      5390 MEMB     6        CHL1     H23A     HAL2     0.900000E-01   1.00800           0
      5391 MEMB     6        CHL1     H23B     HAL2     0.900000E-01   1.00800           0
      5392 MEMB     6        CHL1     C24      CTL2    -0.180000       12.0110           0
      5393 MEMB     6        CHL1     H24A     HAL2     0.900000E-01   1.00800           0
      5394 MEMB     6        CHL1     H24B     HAL2     0.900000E-01   1.00800           0
      5395 MEMB     6        CHL1     C25      CTL1    -0.900000E-01   12.0110           0
      5396 MEMB     6        CHL1     H25      HAL1     0.900000E-01   1.00800           0
      5397 MEMB     6        CHL1     C26      CTL3    -0.270000       12.0110           0
      5398 MEMB     6        CHL1     H26A     HAL3     0.900000E-01   1.00800           0
      5399 MEMB     6        CHL1     H26B     HAL3     0.900000E-01   1.00800           0
      5400 MEMB     6        CHL1     H26C     HAL3     0.900000E-01   1.00800           0
      5401 MEMB     6        CHL1     C27      CTL3    -0.270000       12.0110           0
      5402 MEMB     6        CHL1     H27A     HAL3     0.900000E-01   1.00800           0
      5403 MEMB     6        CHL1     H27B     HAL3     0.900000E-01   1.00800           0
      5404 MEMB     6        CHL1     H27C     HAL3     0.900000E-01   1.00800           0
      5405 MEMB     8        CHL1     C3       CRL1     0.140000       12.0110           0
      5406 MEMB     8        CHL1     H3       HGA1     0.900000E-01   1.00800           0
      5407 MEMB     8        CHL1     O3       OHL     -0.660000       15.9994           0
      5408 MEMB     8        CHL1     H3'      HOL      0.430000       1.00800           0
      5409 MEMB     8        CHL1     C4       CRL2    -0.180000       12.0110           0
      5410 MEMB     8        CHL1     H4A      HGA2     0.900000E-01   1.00800           0
      5411 MEMB     8        CHL1     H4B      HGA2     0.900000E-01   1.00800           0
      5412 MEMB     8        CHL1     C5       CEL1     0.000000       12.0110           0
      5413 MEMB     8        CHL1     C6       CEL1    -0.150000       12.0110           0
      5414 MEMB     8        CHL1     H6       HEL1     0.150000       1.00800           0
      5415 MEMB     8        CHL1     C7       CRL2    -0.180000       12.0110           0
      5416 MEMB     8        CHL1     H7A      HGA2     0.900000E-01   1.00800           0
      5417 MEMB     8        CHL1     H7B      HGA2     0.900000E-01   1.00800           0
      5418 MEMB     8        CHL1     C8       CRL1    -0.900000E-01   12.0110           0
      5419 MEMB     8        CHL1     H8       HGA1     0.900000E-01   1.00800           0
      5420 MEMB     8        CHL1     C14      CRL1    -0.900000E-01   12.0110           0
      5421 MEMB     8        CHL1     H14      HGA1     0.900000E-01   1.00800           0
      5422 MEMB     8        CHL1     C15      CRL2    -0.180000       12.0110           0
      5423 MEMB     8        CHL1     H15A     HGA2     0.900000E-01   1.00800           0
      5424 MEMB     8        CHL1     H15B     HGA2     0.900000E-01   1.00800           0
      5425 MEMB     8        CHL1     C16      CRL2    -0.180000       12.0110           0
      5426 MEMB     8        CHL1     H16A     HGA2     0.900000E-01   1.00800           0
      5427 MEMB     8        CHL1     H16B     HGA2     0.900000E-01   1.00800           0
      5428 MEMB     8        CHL1     C17      CRL1    -0.900000E-01   12.0110           0
      5429 MEMB     8        CHL1     H17      HGA1     0.900000E-01   1.00800           0
      5430 MEMB     8        CHL1     C13      CRL1     0.000000       12.0110           0
      5431 MEMB     8        CHL1     C18      CTL3    -0.270000       12.0110           0
      5432 MEMB     8        CHL1     H18A     HAL3     0.900000E-01   1.00800           0
      5433 MEMB     8        CHL1     H18B     HAL3     0.900000E-01   1.00800           0
      5434 MEMB     8        CHL1     H18C     HAL3     0.900000E-01   1.00800           0
      5435 MEMB     8        CHL1     C12      CRL2    -0.180000       12.0110           0
      5436 MEMB     8        CHL1     H12A     HGA2     0.900000E-01   1.00800           0
      5437 MEMB     8        CHL1     H12B     HGA2     0.900000E-01   1.00800           0
      5438 MEMB     8        CHL1     C11      CRL2    -0.180000       12.0110           0
      5439 MEMB     8        CHL1     H11A     HGA2     0.900000E-01   1.00800           0
      5440 MEMB     8        CHL1     H11B     HGA2     0.900000E-01   1.00800           0
      5441 MEMB     8        CHL1     C9       CRL1    -0.900000E-01   12.0110           0
      5442 MEMB     8        CHL1     H9       HGA1     0.900000E-01   1.00800           0
      5443 MEMB     8        CHL1     C10      CRL1     0.000000       12.0110           0
      5444 MEMB     8        CHL1     C19      CTL3    -0.270000       12.0110           0
      5445 MEMB     8        CHL1     H19A     HAL3     0.900000E-01   1.00800           0
      5446 MEMB     8        CHL1     H19B     HAL3     0.900000E-01   1.00800           0
      5447 MEMB     8        CHL1     H19C     HAL3     0.900000E-01   1.00800           0
      5448 MEMB     8        CHL1     C1       CRL2    -0.180000       12.0110           0
      5449 MEMB     8        CHL1     H1A      HGA2     0.900000E-01   1.00800           0
      5450 MEMB     8        CHL1     H1B      HGA2     0.900000E-01   1.00800           0
      5451 MEMB     8        CHL1     C2       CRL2    -0.180000       12.0110           0
      5452 MEMB     8        CHL1     H2A      HGA2     0.900000E-01   1.00800           0
      5453 MEMB     8        CHL1     H2B      HGA2     0.900000E-01   1.00800           0
      5454 MEMB     8        CHL1     C20      CTL1    -0.900000E-01   12.0110           0
      5455 MEMB     8        CHL1     H20      HAL1     0.900000E-01   1.00800           0
      5456 MEMB     8        CHL1     C21      CTL3    -0.270000       12.0110           0
      5457 MEMB     8        CHL1     H21A     HAL3     0.900000E-01   1.00800           0
      5458 MEMB     8        CHL1     H21B     HAL3     0.900000E-01   1.00800           0
      5459 MEMB     8        CHL1     H21C     HAL3     0.900000E-01   1.00800           0
      5460 MEMB     8        CHL1     C22      CTL2    -0.180000       12.0110           0
      5461 MEMB     8        CHL1     H22A     HAL2     0.900000E-01   1.00800           0
      5462 MEMB     8        CHL1     H22B     HAL2     0.900000E-01   1.00800           0
      5463 MEMB     8        CHL1     C23      CTL2    -0.180000       12.0110           0
      5464 MEMB     8        CHL1     H23A     HAL2     0.900000E-01   1.00800           0
      5465 MEMB     8        CHL1     H23B     HAL2     0.900000E-01   1.00800           0
      5466 MEMB     8        CHL1     C24      CTL2    -0.180000       12.0110           0
      5467 MEMB     8        CHL1     H24A     HAL2     0.900000E-01   1.00800           0
      5468 MEMB     8        CHL1     H24B     HAL2     0.900000E-01   1.00800           0
      5469 MEMB     8        CHL1     C25      CTL1    -0.900000E-01   12.0110           0
      5470 MEMB     8        CHL1     H25      HAL1     0.900000E-01   1.00800           0
      5471 MEMB     8        CHL1     C26      CTL3    -0.270000       12.0110           0
      5472 MEMB     8        CHL1     H26A     HAL3     0.900000E-01   1.00800           0
      5473 MEMB     8        CHL1     H26B     HAL3     0.900000E-01   1.00800           0
      5474 MEMB     8        CHL1     H26C     HAL3     0.900000E-01   1.00800           0
      5475 MEMB     8        CHL1     C27      CTL3    -0.270000       12.0110           0
      5476 MEMB     8        CHL1     H27A     HAL3     0.900000E-01   1.00800           0
      5477 MEMB     8        CHL1     H27B     HAL3     0.900000E-01   1.00800           0
      5478 MEMB     8        CHL1     H27C     HAL3     0.900000E-01   1.00800           0
      5479 MEMB     10       CHL1     C3       CRL1     0.140000       12.0110           0
      5480 MEMB     10       CHL1     H3       HGA1     0.900000E-01   1.00800           0
      5481 MEMB     10       CHL1     O3       OHL     -0.660000       15.9994           0
      5482 MEMB     10       CHL1     H3'      HOL      0.430000       1.00800           0
      5483 MEMB     10       CHL1     C4       CRL2    -0.180000       12.0110           0
      5484 MEMB     10       CHL1     H4A      HGA2     0.900000E-01   1.00800           0
      5485 MEMB     10       CHL1     H4B      HGA2     0.900000E-01   1.00800           0
      5486 MEMB     10       CHL1     C5       CEL1     0.000000       12.0110           0
      5487 MEMB     10       CHL1     C6       CEL1    -0.150000       12.0110           0
      5488 MEMB     10       CHL1     H6       HEL1     0.150000       1.00800           0
      5489 MEMB     10       CHL1     C7       CRL2    -0.180000       12.0110           0
      5490 MEMB     10       CHL1     H7A      HGA2     0.900000E-01   1.00800           0
      5491 MEMB     10       CHL1     H7B      HGA2     0.900000E-01   1.00800           0
      5492 MEMB     10       CHL1     C8       CRL1    -0.900000E-01   12.0110           0
      5493 MEMB     10       CHL1     H8       HGA1     0.900000E-01   1.00800           0
      5494 MEMB     10       CHL1     C14      CRL1    -0.900000E-01   12.0110           0
      5495 MEMB     10       CHL1     H14      HGA1     0.900000E-01   1.00800           0
      5496 MEMB     10       CHL1     C15      CRL2    -0.180000       12.0110           0
      5497 MEMB     10       CHL1     H15A     HGA2     0.900000E-01   1.00800           0
      5498 MEMB     10       CHL1     H15B     HGA2     0.900000E-01   1.00800           0
      5499 MEMB     10       CHL1     C16      CRL2    -0.180000       12.0110           0
      5500 MEMB     10       CHL1     H16A     HGA2     0.900000E-01   1.00800           0
      5501 MEMB     10       CHL1     H16B     HGA2     0.900000E-01   1.00800           0
      5502 MEMB     10       CHL1     C17      CRL1    -0.900000E-01   12.0110           0
      5503 MEMB     10       CHL1     H17      HGA1     0.900000E-01   1.00800           0
      5504 MEMB     10       CHL1     C13      CRL1     0.000000       12.0110           0
      5505 MEMB     10       CHL1     C18      CTL3    -0.270000       12.0110           0
      5506 MEMB     10       CHL1     H18A     HAL3     0.900000E-01   1.00800           0
      5507 MEMB     10       CHL1     H18B     HAL3     0.900000E-01   1.00800           0
      5508 MEMB     10       CHL1     H18C     HAL3     0.900000E-01   1.00800           0
      5509 MEMB     10       CHL1     C12      CRL2    -0.180000       12.0110           0
      5510 MEMB     10       CHL1     H12A     HGA2     0.900000E-01   1.00800           0
      5511 MEMB     10       CHL1     H12B     HGA2     0.900000E-01   1.00800           0
      5512 MEMB     10       CHL1     C11      CRL2    -0.180000       12.0110           0
      5513 MEMB     10       CHL1     H11A     HGA2     0.900000E-01   1.00800           0
      5514 MEMB     10       CHL1     H11B     HGA2     0.900000E-01   1.00800           0
      5515 MEMB     10       CHL1     C9       CRL1    -0.900000E-01   12.0110           0
      5516 MEMB     10       CHL1     H9       HGA1     0.900000E-01   1.00800           0
      5517 MEMB     10       CHL1     C10      CRL1     0.000000       12.0110           0
      5518 MEMB     10       CHL1     C19      CTL3    -0.270000       12.0110           0
      5519 MEMB     10       CHL1     H19A     HAL3     0.900000E-01   1.00800           0
      5520 MEMB     10       CHL1     H19B     HAL3     0.900000E-01   1.00800           0
      5521 MEMB     10       CHL1     H19C     HAL3     0.900000E-01   1.00800           0
      5522 MEMB     10       CHL1     C1       CRL2    -0.180000       12.0110           0
      5523 MEMB     10       CHL1     H1A      HGA2     0.900000E-01   1.00800           0
      5524 MEMB     10       CHL1     H1B      HGA2     0.900000E-01   1.00800           0
      5525 MEMB     10       CHL1     C2       CRL2    -0.180000       12.0110           0
      5526 MEMB     10       CHL1     H2A      HGA2     0.900000E-01   1.00800           0
      5527 MEMB     10       CHL1     H2B      HGA2     0.900000E-01   1.00800           0
      5528 MEMB     10       CHL1     C20      CTL1    -0.900000E-01   12.0110           0
      5529 MEMB     10       CHL1     H20      HAL1     0.900000E-01   1.00800           0
      5530 MEMB     10       CHL1     C21      CTL3    -0.270000       12.0110           0
      5531 MEMB     10       CHL1     H21A     HAL3     0.900000E-01   1.00800           0
      5532 MEMB     10       CHL1     H21B     HAL3     0.900000E-01   1.00800           0
      5533 MEMB     10       CHL1     H21C     HAL3     0.900000E-01   1.00800           0
      5534 MEMB     10       CHL1     C22      CTL2    -0.180000       12.0110           0
      5535 MEMB     10       CHL1     H22A     HAL2     0.900000E-01   1.00800           0
      5536 MEMB     10       CHL1     H22B     HAL2     0.900000E-01   1.00800           0
      5537 MEMB     10       CHL1     C23      CTL2    -0.180000       12.0110           0
      5538 MEMB     10       CHL1     H23A     HAL2     0.900000E-01   1.00800           0
      5539 MEMB     10       CHL1     H23B     HAL2     0.900000E-01   1.00800           0
      5540 MEMB     10       CHL1     C24      CTL2    -0.180000       12.0110           0
      5541 MEMB     10       CHL1     H24A     HAL2     0.900000E-01   1.00800           0
      5542 MEMB     10       CHL1     H24B     HAL2     0.900000E-01   1.00800           0
      5543 MEMB     10       CHL1     C25      CTL1    -0.900000E-01   12.0110           0
      5544 MEMB     10       CHL1     H25      HAL1     0.900000E-01   1.00800           0
      5545 MEMB     10       CHL1     C26      CTL3    -0.270000       12.0110           0
      5546 MEMB     10       CHL1     H26A     HAL3     0.900000E-01   1.00800           0
      5547 MEMB     10       CHL1     H26B     HAL3     0.900000E-01   1.00800           0
      5548 MEMB     10       CHL1     H26C     HAL3     0.900000E-01   1.00800           0
      5549 MEMB     10       CHL1     C27      CTL3    -0.270000       12.0110           0
      5550 MEMB     10       CHL1     H27A     HAL3     0.900000E-01   1.00800           0
      5551 MEMB     10       CHL1     H27B     HAL3     0.900000E-01   1.00800           0
      5552 MEMB     10       CHL1     H27C     HAL3     0.900000E-01   1.00800           0
      5553 MEMB     11       CHL1     C3       CRL1     0.140000       12.0110           0
      5554 MEMB     11       CHL1     H3       HGA1     0.900000E-01   1.00800           0
      5555 MEMB     11       CHL1     O3       OHL     -0.660000       15.9994           0
      5556 MEMB     11       CHL1     H3'      HOL      0.430000       1.00800           0
      5557 MEMB     11       CHL1     C4       CRL2    -0.180000       12.0110           0
      5558 MEMB     11       CHL1     H4A      HGA2     0.900000E-01   1.00800           0
      5559 MEMB     11       CHL1     H4B      HGA2     0.900000E-01   1.00800           0
      5560 MEMB     11       CHL1     C5       CEL1     0.000000       12.0110           0
      5561 MEMB     11       CHL1     C6       CEL1    -0.150000       12.0110           0
      5562 MEMB     11       CHL1     H6       HEL1     0.150000       1.00800           0
      5563 MEMB     11       CHL1     C7       CRL2    -0.180000       12.0110           0
      5564 MEMB     11       CHL1     H7A      HGA2     0.900000E-01   1.00800           0
      5565 MEMB     11       CHL1     H7B      HGA2     0.900000E-01   1.00800           0
      5566 MEMB     11       CHL1     C8       CRL1    -0.900000E-01   12.0110           0
      5567 MEMB     11       CHL1     H8       HGA1     0.900000E-01   1.00800           0
      5568 MEMB     11       CHL1     C14      CRL1    -0.900000E-01   12.0110           0
      5569 MEMB     11       CHL1     H14      HGA1     0.900000E-01   1.00800           0
      5570 MEMB     11       CHL1     C15      CRL2    -0.180000       12.0110           0
      5571 MEMB     11       CHL1     H15A     HGA2     0.900000E-01   1.00800           0
      5572 MEMB     11       CHL1     H15B     HGA2     0.900000E-01   1.00800           0
      5573 MEMB     11       CHL1     C16      CRL2    -0.180000       12.0110           0
      5574 MEMB     11       CHL1     H16A     HGA2     0.900000E-01   1.00800           0
      5575 MEMB     11       CHL1     H16B     HGA2     0.900000E-01   1.00800           0
      5576 MEMB     11       CHL1     C17      CRL1    -0.900000E-01   12.0110           0
      5577 MEMB     11       CHL1     H17      HGA1     0.900000E-01   1.00800           0
      5578 MEMB     11       CHL1     C13      CRL1     0.000000       12.0110           0
      5579 MEMB     11       CHL1     C18      CTL3    -0.270000       12.0110           0
      5580 MEMB     11       CHL1     H18A     HAL3     0.900000E-01   1.00800           0
      5581 MEMB     11       CHL1     H18B     HAL3     0.900000E-01   1.00800           0
      5582 MEMB     11       CHL1     H18C     HAL3     0.900000E-01   1.00800           0
      5583 MEMB     11       CHL1     C12      CRL2    -0.180000       12.0110           0
      5584 MEMB     11       CHL1     H12A     HGA2     0.900000E-01   1.00800           0
      5585 MEMB     11       CHL1     H12B     HGA2     0.900000E-01   1.00800           0
      5586 MEMB     11       CHL1     C11      CRL2    -0.180000       12.0110           0
      5587 MEMB     11       CHL1     H11A     HGA2     0.900000E-01   1.00800           0
      5588 MEMB     11       CHL1     H11B     HGA2     0.900000E-01   1.00800           0
      5589 MEMB     11       CHL1     C9       CRL1    -0.900000E-01   12.0110           0
      5590 MEMB     11       CHL1     H9       HGA1     0.900000E-01   1.00800           0
      5591 MEMB     11       CHL1     C10      CRL1     0.000000       12.0110           0
      5592 MEMB     11       CHL1     C19      CTL3    -0.270000       12.0110           0
      5593 MEMB     11       CHL1     H19A     HAL3     0.900000E-01   1.00800           0
      5594 MEMB     11       CHL1     H19B     HAL3     0.900000E-01   1.00800           0
      5595 MEMB     11       CHL1     H19C     HAL3     0.900000E-01   1.00800           0
      5596 MEMB     11       CHL1     C1       CRL2    -0.180000       12.0110           0
      5597 MEMB     11       CHL1     H1A      HGA2     0.900000E-01   1.00800           0
      5598 MEMB     11       CHL1     H1B      HGA2     0.900000E-01   1.00800           0
      5599 MEMB     11       CHL1     C2       CRL2    -0.180000       12.0110           0
      5600 MEMB     11       CHL1     H2A      HGA2     0.900000E-01   1.00800           0
      5601 MEMB     11       CHL1     H2B      HGA2     0.900000E-01   1.00800           0
      5602 MEMB     11       CHL1     C20      CTL1    -0.900000E-01   12.0110           0
      5603 MEMB     11       CHL1     H20      HAL1     0.900000E-01   1.00800           0
      5604 MEMB     11       CHL1     C21      CTL3    -0.270000       12.0110           0
      5605 MEMB     11       CHL1     H21A     HAL3     0.900000E-01   1.00800           0
      5606 MEMB     11       CHL1     H21B     HAL3     0.900000E-01   1.00800           0
      5607 MEMB     11       CHL1     H21C     HAL3     0.900000E-01   1.00800           0
      5608 MEMB     11       CHL1     C22      CTL2    -0.180000       12.0110           0
      5609 MEMB     11       CHL1     H22A     HAL2     0.900000E-01   1.00800           0
      5610 MEMB     11       CHL1     H22B     HAL2     0.900000E-01   1.00800           0
      5611 MEMB     11       CHL1     C23      CTL2    -0.180000       12.0110           0
      5612 MEMB     11       CHL1     H23A     HAL2     0.900000E-01   1.00800           0
      5613 MEMB     11       CHL1     H23B     HAL2     0.900000E-01   1.00800           0
      5614 MEMB     11       CHL1     C24      CTL2    -0.180000       12.0110           0
      5615 MEMB     11       CHL1     H24A     HAL2     0.900000E-01   1.00800           0
      5616 MEMB     11       CHL1     H24B     HAL2     0.900000E-01   1.00800           0
      5617 MEMB     11       CHL1     C25      CTL1    -0.900000E-01   12.0110           0
      5618 MEMB     11       CHL1     H25      HAL1     0.900000E-01   1.00800           0
      5619 MEMB     11       CHL1     C26      CTL3    -0.270000       12.0110           0
      5620 MEMB     11       CHL1     H26A     HAL3     0.900000E-01   1.00800           0
      5621 MEMB     11       CHL1     H26B     HAL3     0.900000E-01   1.00800           0
      5622 MEMB     11       CHL1     H26C     HAL3     0.900000E-01   1.00800           0
      5623 MEMB     11       CHL1     C27      CTL3    -0.270000       12.0110           0
      5624 MEMB     11       CHL1     H27A     HAL3     0.900000E-01   1.00800           0
      5625 MEMB     11       CHL1     H27B     HAL3     0.900000E-01   1.00800           0
      5626 MEMB     11       CHL1     H27C     HAL3     0.900000E-01   1.00800           0
      5627 MEMB     13       CHL1     C3       CRL1     0.140000       12.0110           0
      5628 MEMB     13       CHL1     H3       HGA1     0.900000E-01   1.00800           0
      5629 MEMB     13       CHL1     O3       OHL     -0.660000       15.9994           0
      5630 MEMB     13       CHL1     H3'      HOL      0.430000       1.00800           0
      5631 MEMB     13       CHL1     C4       CRL2    -0.180000       12.0110           0
      5632 MEMB     13       CHL1     H4A      HGA2     0.900000E-01   1.00800           0
      5633 MEMB     13       CHL1     H4B      HGA2     0.900000E-01   1.00800           0
      5634 MEMB     13       CHL1     C5       CEL1     0.000000       12.0110           0
      5635 MEMB     13       CHL1     C6       CEL1    -0.150000       12.0110           0
      5636 MEMB     13       CHL1     H6       HEL1     0.150000       1.00800           0
      5637 MEMB     13       CHL1     C7       CRL2    -0.180000       12.0110           0
      5638 MEMB     13       CHL1     H7A      HGA2     0.900000E-01   1.00800           0
      5639 MEMB     13       CHL1     H7B      HGA2     0.900000E-01   1.00800           0
      5640 MEMB     13       CHL1     C8       CRL1    -0.900000E-01   12.0110           0
      5641 MEMB     13       CHL1     H8       HGA1     0.900000E-01   1.00800           0
      5642 MEMB     13       CHL1     C14      CRL1    -0.900000E-01   12.0110           0
      5643 MEMB     13       CHL1     H14      HGA1     0.900000E-01   1.00800           0
      5644 MEMB     13       CHL1     C15      CRL2    -0.180000       12.0110           0
      5645 MEMB     13       CHL1     H15A     HGA2     0.900000E-01   1.00800           0
      5646 MEMB     13       CHL1     H15B     HGA2     0.900000E-01   1.00800           0
      5647 MEMB     13       CHL1     C16      CRL2    -0.180000       12.0110           0
      5648 MEMB     13       CHL1     H16A     HGA2     0.900000E-01   1.00800           0
      5649 MEMB     13       CHL1     H16B     HGA2     0.900000E-01   1.00800           0
      5650 MEMB     13       CHL1     C17      CRL1    -0.900000E-01   12.0110           0
      5651 MEMB     13       CHL1     H17      HGA1     0.900000E-01   1.00800           0
      5652 MEMB     13       CHL1     C13      CRL1     0.000000       12.0110           0
      5653 MEMB     13       CHL1     C18      CTL3    -0.270000       12.0110           0
      5654 MEMB     13       CHL1     H18A     HAL3     0.900000E-01   1.00800           0
      5655 MEMB     13       CHL1     H18B     HAL3     0.900000E-01   1.00800           0
      5656 MEMB     13       CHL1     H18C     HAL3     0.900000E-01   1.00800           0
      5657 MEMB     13       CHL1     C12      CRL2    -0.180000       12.0110           0
      5658 MEMB     13       CHL1     H12A     HGA2     0.900000E-01   1.00800           0
      5659 MEMB     13       CHL1     H12B     HGA2     0.900000E-01   1.00800           0
      5660 MEMB     13       CHL1     C11      CRL2    -0.180000       12.0110           0
      5661 MEMB     13       CHL1     H11A     HGA2     0.900000E-01   1.00800           0
      5662 MEMB     13       CHL1     H11B     HGA2     0.900000E-01   1.00800           0
      5663 MEMB     13       CHL1     C9       CRL1    -0.900000E-01   12.0110           0
      5664 MEMB     13       CHL1     H9       HGA1     0.900000E-01   1.00800           0
      5665 MEMB     13       CHL1     C10      CRL1     0.000000       12.0110           0
      5666 MEMB     13       CHL1     C19      CTL3    -0.270000       12.0110           0
      5667 MEMB     13       CHL1     H19A     HAL3     0.900000E-01   1.00800           0
      5668 MEMB     13       CHL1     H19B     HAL3     0.900000E-01   1.00800           0
      5669 MEMB     13       CHL1     H19C     HAL3     0.900000E-01   1.00800           0
      5670 MEMB     13       CHL1     C1       CRL2    -0.180000       12.0110           0
      5671 MEMB     13       CHL1     H1A      HGA2     0.900000E-01   1.00800           0
      5672 MEMB     13       CHL1     H1B      HGA2     0.900000E-01   1.00800           0
      5673 MEMB     13       CHL1     C2       CRL2    -0.180000       12.0110           0
      5674 MEMB     13       CHL1     H2A      HGA2     0.900000E-01   1.00800           0
      5675 MEMB     13       CHL1     H2B      HGA2     0.900000E-01   1.00800           0
      5676 MEMB     13       CHL1     C20      CTL1    -0.900000E-01   12.0110           0
      5677 MEMB     13       CHL1     H20      HAL1     0.900000E-01   1.00800           0
      5678 MEMB     13       CHL1     C21      CTL3    -0.270000       12.0110           0
      5679 MEMB     13       CHL1     H21A     HAL3     0.900000E-01   1.00800           0
      5680 MEMB     13       CHL1     H21B     HAL3     0.900000E-01   1.00800           0
      5681 MEMB     13       CHL1     H21C     HAL3     0.900000E-01   1.00800           0
      5682 MEMB     13       CHL1     C22      CTL2    -0.180000       12.0110           0
      5683 MEMB     13       CHL1     H22A     HAL2     0.900000E-01   1.00800           0
      5684 MEMB     13       CHL1     H22B     HAL2     0.900000E-01   1.00800           0
      5685 MEMB     13       CHL1     C23      CTL2    -0.180000       12.0110           0
      5686 MEMB     13       CHL1     H23A     HAL2     0.900000E-01   1.00800           0
      5687 MEMB     13       CHL1     H23B     HAL2     0.900000E-01   1.00800           0
      5688 MEMB     13       CHL1     C24      CTL2    -0.180000       12.0110           0
      5689 MEMB     13       CHL1     H24A     HAL2     0.900000E-01   1.00800           0
      5690 MEMB     13       CHL1     H24B     HAL2     0.900000E-01   1.00800           0
      5691 MEMB     13       CHL1     C25      CTL1    -0.900000E-01   12.0110           0
      5692 MEMB     13       CHL1     H25      HAL1     0.900000E-01   1.00800           0
      5693 MEMB     13       CHL1     C26      CTL3    -0.270000       12.0110           0
      5694 MEMB     13       CHL1     H26A     HAL3     0.900000E-01   1.00800           0
      5695 MEMB     13       CHL1     H26B     HAL3     0.900000E-01   1.00800           0
      5696 MEMB     13       CHL1     H26C     HAL3     0.900000E-01   1.00800           0
      5697 MEMB     13       CHL1     C27      CTL3    -0.270000       12.0110           0
      5698 MEMB     13       CHL1     H27A     HAL3     0.900000E-01   1.00800           0
      5699 MEMB     13       CHL1     H27B     HAL3     0.900000E-01   1.00800           0
      5700 MEMB     13       CHL1     H27C     HAL3     0.900000E-01   1.00800           0
      5701 MEMB     19       CHL1     C3       CRL1     0.140000       12.0110           0
      5702 MEMB     19       CHL1     H3       HGA1     0.900000E-01   1.00800           0
      5703 MEMB     19       CHL1     O3       OHL     -0.660000       15.9994           0
      5704 MEMB     19       CHL1     H3'      HOL      0.430000       1.00800           0
      5705 MEMB     19       CHL1     C4       CRL2    -0.180000       12.0110           0
      5706 MEMB     19       CHL1     H4A      HGA2     0.900000E-01   1.00800           0
      5707 MEMB     19       CHL1     H4B      HGA2     0.900000E-01   1.00800           0
      5708 MEMB     19       CHL1     C5       CEL1     0.000000       12.0110           0
      5709 MEMB     19       CHL1     C6       CEL1    -0.150000       12.0110           0
      5710 MEMB     19       CHL1     H6       HEL1     0.150000       1.00800           0
      5711 MEMB     19       CHL1     C7       CRL2    -0.180000       12.0110           0
      5712 MEMB     19       CHL1     H7A      HGA2     0.900000E-01   1.00800           0
      5713 MEMB     19       CHL1     H7B      HGA2     0.900000E-01   1.00800           0
      5714 MEMB     19       CHL1     C8       CRL1    -0.900000E-01   12.0110           0
      5715 MEMB     19       CHL1     H8       HGA1     0.900000E-01   1.00800           0
      5716 MEMB     19       CHL1     C14      CRL1    -0.900000E-01   12.0110           0
      5717 MEMB     19       CHL1     H14      HGA1     0.900000E-01   1.00800           0
      5718 MEMB     19       CHL1     C15      CRL2    -0.180000       12.0110           0
      5719 MEMB     19       CHL1     H15A     HGA2     0.900000E-01   1.00800           0
      5720 MEMB     19       CHL1     H15B     HGA2     0.900000E-01   1.00800           0
      5721 MEMB     19       CHL1     C16      CRL2    -0.180000       12.0110           0
      5722 MEMB     19       CHL1     H16A     HGA2     0.900000E-01   1.00800           0
      5723 MEMB     19       CHL1     H16B     HGA2     0.900000E-01   1.00800           0
      5724 MEMB     19       CHL1     C17      CRL1    -0.900000E-01   12.0110           0
      5725 MEMB     19       CHL1     H17      HGA1     0.900000E-01   1.00800           0
      5726 MEMB     19       CHL1     C13      CRL1     0.000000       12.0110           0
      5727 MEMB     19       CHL1     C18      CTL3    -0.270000       12.0110           0
      5728 MEMB     19       CHL1     H18A     HAL3     0.900000E-01   1.00800           0
      5729 MEMB     19       CHL1     H18B     HAL3     0.900000E-01   1.00800           0
      5730 MEMB     19       CHL1     H18C     HAL3     0.900000E-01   1.00800           0
      5731 MEMB     19       CHL1     C12      CRL2    -0.180000       12.0110           0
      5732 MEMB     19       CHL1     H12A     HGA2     0.900000E-01   1.00800           0
      5733 MEMB     19       CHL1     H12B     HGA2     0.900000E-01   1.00800           0
      5734 MEMB     19       CHL1     C11      CRL2    -0.180000       12.0110           0
      5735 MEMB     19       CHL1     H11A     HGA2     0.900000E-01   1.00800           0
      5736 MEMB     19       CHL1     H11B     HGA2     0.900000E-01   1.00800           0
      5737 MEMB     19       CHL1     C9       CRL1    -0.900000E-01   12.0110           0
      5738 MEMB     19       CHL1     H9       HGA1     0.900000E-01   1.00800           0
      5739 MEMB     19       CHL1     C10      CRL1     0.000000       12.0110           0
      5740 MEMB     19       CHL1     C19      CTL3    -0.270000       12.0110           0
      5741 MEMB     19       CHL1     H19A     HAL3     0.900000E-01   1.00800           0
      5742 MEMB     19       CHL1     H19B     HAL3     0.900000E-01   1.00800           0
      5743 MEMB     19       CHL1     H19C     HAL3     0.900000E-01   1.00800           0
      5744 MEMB     19       CHL1     C1       CRL2    -0.180000       12.0110           0
      5745 MEMB     19       CHL1     H1A      HGA2     0.900000E-01   1.00800           0
      5746 MEMB     19       CHL1     H1B      HGA2     0.900000E-01   1.00800           0
      5747 MEMB     19       CHL1     C2       CRL2    -0.180000       12.0110           0
      5748 MEMB     19       CHL1     H2A      HGA2     0.900000E-01   1.00800           0
      5749 MEMB     19       CHL1     H2B      HGA2     0.900000E-01   1.00800           0
      5750 MEMB     19       CHL1     C20      CTL1    -0.900000E-01   12.0110           0
      5751 MEMB     19       CHL1     H20      HAL1     0.900000E-01   1.00800           0
      5752 MEMB     19       CHL1     C21      CTL3    -0.270000       12.0110           0
      5753 MEMB     19       CHL1     H21A     HAL3     0.900000E-01   1.00800           0
      5754 MEMB     19       CHL1     H21B     HAL3     0.900000E-01   1.00800           0
      5755 MEMB     19       CHL1     H21C     HAL3     0.900000E-01   1.00800           0
      5756 MEMB     19       CHL1     C22      CTL2    -0.180000       12.0110           0
      5757 MEMB     19       CHL1     H22A     HAL2     0.900000E-01   1.00800           0
      5758 MEMB     19       CHL1     H22B     HAL2     0.900000E-01   1.00800           0
      5759 MEMB     19       CHL1     C23      CTL2    -0.180000       12.0110           0
      5760 MEMB     19       CHL1     H23A     HAL2     0.900000E-01   1.00800           0
      5761 MEMB     19       CHL1     H23B     HAL2     0.900000E-01   1.00800           0
      5762 MEMB     19       CHL1     C24      CTL2    -0.180000       12.0110           0
      5763 MEMB     19       CHL1     H24A     HAL2     0.900000E-01   1.00800           0
      5764 MEMB     19       CHL1     H24B     HAL2     0.900000E-01   1.00800           0
      5765 MEMB     19       CHL1     C25      CTL1    -0.900000E-01   12.0110           0
      5766 MEMB     19       CHL1     H25      HAL1     0.900000E-01   1.00800           0
      5767 MEMB     19       CHL1     C26      CTL3    -0.270000       12.0110           0
      5768 MEMB     19       CHL1     H26A     HAL3     0.900000E-01   1.00800           0
      5769 MEMB     19       CHL1     H26B     HAL3     0.900000E-01   1.00800           0
      5770 MEMB     19       CHL1     H26C     HAL3     0.900000E-01   1.00800           0
      5771 MEMB     19       CHL1     C27      CTL3    -0.270000       12.0110           0
      5772 MEMB     19       CHL1     H27A     HAL3     0.900000E-01   1.00800           0
      5773 MEMB     19       CHL1     H27B     HAL3     0.900000E-01   1.00800           0
      5774 MEMB     19       CHL1     H27C     HAL3     0.900000E-01   1.00800           0
      5775 MEMB     20       CHL1     C3       CRL1     0.140000       12.0110           0
      5776 MEMB     20       CHL1     H3       HGA1     0.900000E-01   1.00800           0
      5777 MEMB     20       CHL1     O3       OHL     -0.660000       15.9994           0
      5778 MEMB     20       CHL1     H3'      HOL      0.430000       1.00800           0
      5779 MEMB     20       CHL1     C4       CRL2    -0.180000       12.0110           0
      5780 MEMB     20       CHL1     H4A      HGA2     0.900000E-01   1.00800           0
      5781 MEMB     20       CHL1     H4B      HGA2     0.900000E-01   1.00800           0
      5782 MEMB     20       CHL1     C5       CEL1     0.000000       12.0110           0
      5783 MEMB     20       CHL1     C6       CEL1    -0.150000       12.0110           0
      5784 MEMB     20       CHL1     H6       HEL1     0.150000       1.00800           0
      5785 MEMB     20       CHL1     C7       CRL2    -0.180000       12.0110           0
      5786 MEMB     20       CHL1     H7A      HGA2     0.900000E-01   1.00800           0
      5787 MEMB     20       CHL1     H7B      HGA2     0.900000E-01   1.00800           0
      5788 MEMB     20       CHL1     C8       CRL1    -0.900000E-01   12.0110           0
      5789 MEMB     20       CHL1     H8       HGA1     0.900000E-01   1.00800           0
      5790 MEMB     20       CHL1     C14      CRL1    -0.900000E-01   12.0110           0
      5791 MEMB     20       CHL1     H14      HGA1     0.900000E-01   1.00800           0
      5792 MEMB     20       CHL1     C15      CRL2    -0.180000       12.0110           0
      5793 MEMB     20       CHL1     H15A     HGA2     0.900000E-01   1.00800           0
      5794 MEMB     20       CHL1     H15B     HGA2     0.900000E-01   1.00800           0
      5795 MEMB     20       CHL1     C16      CRL2    -0.180000       12.0110           0
      5796 MEMB     20       CHL1     H16A     HGA2     0.900000E-01   1.00800           0
      5797 MEMB     20       CHL1     H16B     HGA2     0.900000E-01   1.00800           0
      5798 MEMB     20       CHL1     C17      CRL1    -0.900000E-01   12.0110           0
      5799 MEMB     20       CHL1     H17      HGA1     0.900000E-01   1.00800           0
      5800 MEMB     20       CHL1     C13      CRL1     0.000000       12.0110           0
      5801 MEMB     20       CHL1     C18      CTL3    -0.270000       12.0110           0
      5802 MEMB     20       CHL1     H18A     HAL3     0.900000E-01   1.00800           0
      5803 MEMB     20       CHL1     H18B     HAL3     0.900000E-01   1.00800           0
      5804 MEMB     20       CHL1     H18C     HAL3     0.900000E-01   1.00800           0
      5805 MEMB     20       CHL1     C12      CRL2    -0.180000       12.0110           0
      5806 MEMB     20       CHL1     H12A     HGA2     0.900000E-01   1.00800           0
      5807 MEMB     20       CHL1     H12B     HGA2     0.900000E-01   1.00800           0
      5808 MEMB     20       CHL1     C11      CRL2    -0.180000       12.0110           0
      5809 MEMB     20       CHL1     H11A     HGA2     0.900000E-01   1.00800           0
      5810 MEMB     20       CHL1     H11B     HGA2     0.900000E-01   1.00800           0
      5811 MEMB     20       CHL1     C9       CRL1    -0.900000E-01   12.0110           0
      5812 MEMB     20       CHL1     H9       HGA1     0.900000E-01   1.00800           0
      5813 MEMB     20       CHL1     C10      CRL1     0.000000       12.0110           0
      5814 MEMB     20       CHL1     C19      CTL3    -0.270000       12.0110           0
      5815 MEMB     20       CHL1     H19A     HAL3     0.900000E-01   1.00800           0
      5816 MEMB     20       CHL1     H19B     HAL3     0.900000E-01   1.00800           0
      5817 MEMB     20       CHL1     H19C     HAL3     0.900000E-01   1.00800           0
      5818 MEMB     20       CHL1     C1       CRL2    -0.180000       12.0110           0
      5819 MEMB     20       CHL1     H1A      HGA2     0.900000E-01   1.00800           0
      5820 MEMB     20       CHL1     H1B      HGA2     0.900000E-01   1.00800           0
      5821 MEMB     20       CHL1     C2       CRL2    -0.180000       12.0110           0
      5822 MEMB     20       CHL1     H2A      HGA2     0.900000E-01   1.00800           0
      5823 MEMB     20       CHL1     H2B      HGA2     0.900000E-01   1.00800           0
      5824 MEMB     20       CHL1     C20      CTL1    -0.900000E-01   12.0110           0
      5825 MEMB     20       CHL1     H20      HAL1     0.900000E-01   1.00800           0
      5826 MEMB     20       CHL1     C21      CTL3    -0.270000       12.0110           0
      5827 MEMB     20       CHL1     H21A     HAL3     0.900000E-01   1.00800           0
      5828 MEMB     20       CHL1     H21B     HAL3     0.900000E-01   1.00800           0
      5829 MEMB     20       CHL1     H21C     HAL3     0.900000E-01   1.00800           0
      5830 MEMB     20       CHL1     C22      CTL2    -0.180000       12.0110           0
      5831 MEMB     20       CHL1     H22A     HAL2     0.900000E-01   1.00800           0
      5832 MEMB     20       CHL1     H22B     HAL2     0.900000E-01   1.00800           0
      5833 MEMB     20       CHL1     C23      CTL2    -0.180000       12.0110           0
      5834 MEMB     20       CHL1     H23A     HAL2     0.900000E-01   1.00800           0
      5835 MEMB     20       CHL1     H23B     HAL2     0.900000E-01   1.00800           0
      5836 MEMB     20       CHL1     C24      CTL2    -0.180000       12.0110           0
      5837 MEMB     20       CHL1     H24A     HAL2     0.900000E-01   1.00800           0
      5838 MEMB     20       CHL1     H24B     HAL2     0.900000E-01   1.00800           0
      5839 MEMB     20       CHL1     C25      CTL1    -0.900000E-01   12.0110           0
      5840 MEMB     20       CHL1     H25      HAL1     0.900000E-01   1.00800           0
      5841 MEMB     20       CHL1     C26      CTL3    -0.270000       12.0110           0
      5842 MEMB     20       CHL1     H26A     HAL3     0.900000E-01   1.00800           0
      5843 MEMB     20       CHL1     H26B     HAL3     0.900000E-01   1.00800           0
      5844 MEMB     20       CHL1     H26C     HAL3     0.900000E-01   1.00800           0
      5845 MEMB     20       CHL1     C27      CTL3    -0.270000       12.0110           0
      5846 MEMB     20       CHL1     H27A     HAL3     0.900000E-01   1.00800           0
      5847 MEMB     20       CHL1     H27B     HAL3     0.900000E-01   1.00800           0
      5848 MEMB     20       CHL1     H27C     HAL3     0.900000E-01   1.00800           0
      5849 MEMB     32       CHL1     C3       CRL1     0.140000       12.0110           0
      5850 MEMB     32       CHL1     H3       HGA1     0.900000E-01   1.00800           0
      5851 MEMB     32       CHL1     O3       OHL     -0.660000       15.9994           0
      5852 MEMB     32       CHL1     H3'      HOL      0.430000       1.00800           0
      5853 MEMB     32       CHL1     C4       CRL2    -0.180000       12.0110           0
      5854 MEMB     32       CHL1     H4A      HGA2     0.900000E-01   1.00800           0
      5855 MEMB     32       CHL1     H4B      HGA2     0.900000E-01   1.00800           0
      5856 MEMB     32       CHL1     C5       CEL1     0.000000       12.0110           0
      5857 MEMB     32       CHL1     C6       CEL1    -0.150000       12.0110           0
      5858 MEMB     32       CHL1     H6       HEL1     0.150000       1.00800           0
      5859 MEMB     32       CHL1     C7       CRL2    -0.180000       12.0110           0
      5860 MEMB     32       CHL1     H7A      HGA2     0.900000E-01   1.00800           0
      5861 MEMB     32       CHL1     H7B      HGA2     0.900000E-01   1.00800           0
      5862 MEMB     32       CHL1     C8       CRL1    -0.900000E-01   12.0110           0
      5863 MEMB     32       CHL1     H8       HGA1     0.900000E-01   1.00800           0
      5864 MEMB     32       CHL1     C14      CRL1    -0.900000E-01   12.0110           0
      5865 MEMB     32       CHL1     H14      HGA1     0.900000E-01   1.00800           0
      5866 MEMB     32       CHL1     C15      CRL2    -0.180000       12.0110           0
      5867 MEMB     32       CHL1     H15A     HGA2     0.900000E-01   1.00800           0
      5868 MEMB     32       CHL1     H15B     HGA2     0.900000E-01   1.00800           0
      5869 MEMB     32       CHL1     C16      CRL2    -0.180000       12.0110           0
      5870 MEMB     32       CHL1     H16A     HGA2     0.900000E-01   1.00800           0
      5871 MEMB     32       CHL1     H16B     HGA2     0.900000E-01   1.00800           0
      5872 MEMB     32       CHL1     C17      CRL1    -0.900000E-01   12.0110           0
      5873 MEMB     32       CHL1     H17      HGA1     0.900000E-01   1.00800           0
      5874 MEMB     32       CHL1     C13      CRL1     0.000000       12.0110           0
      5875 MEMB     32       CHL1     C18      CTL3    -0.270000       12.0110           0
      5876 MEMB     32       CHL1     H18A     HAL3     0.900000E-01   1.00800           0
      5877 MEMB     32       CHL1     H18B     HAL3     0.900000E-01   1.00800           0
      5878 MEMB     32       CHL1     H18C     HAL3     0.900000E-01   1.00800           0
      5879 MEMB     32       CHL1     C12      CRL2    -0.180000       12.0110           0
      5880 MEMB     32       CHL1     H12A     HGA2     0.900000E-01   1.00800           0
      5881 MEMB     32       CHL1     H12B     HGA2     0.900000E-01   1.00800           0
      5882 MEMB     32       CHL1     C11      CRL2    -0.180000       12.0110           0
      5883 MEMB     32       CHL1     H11A     HGA2     0.900000E-01   1.00800           0
      5884 MEMB     32       CHL1     H11B     HGA2     0.900000E-01   1.00800           0
      5885 MEMB     32       CHL1     C9       CRL1    -0.900000E-01   12.0110           0
      5886 MEMB     32       CHL1     H9       HGA1     0.900000E-01   1.00800           0
      5887 MEMB     32       CHL1     C10      CRL1     0.000000       12.0110           0
      5888 MEMB     32       CHL1     C19      CTL3    -0.270000       12.0110           0
      5889 MEMB     32       CHL1     H19A     HAL3     0.900000E-01   1.00800           0
      5890 MEMB     32       CHL1     H19B     HAL3     0.900000E-01   1.00800           0
      5891 MEMB     32       CHL1     H19C     HAL3     0.900000E-01   1.00800           0
      5892 MEMB     32       CHL1     C1       CRL2    -0.180000       12.0110           0
      5893 MEMB     32       CHL1     H1A      HGA2     0.900000E-01   1.00800           0
      5894 MEMB     32       CHL1     H1B      HGA2     0.900000E-01   1.00800           0
      5895 MEMB     32       CHL1     C2       CRL2    -0.180000       12.0110           0
      5896 MEMB     32       CHL1     H2A      HGA2     0.900000E-01   1.00800           0
      5897 MEMB     32       CHL1     H2B      HGA2     0.900000E-01   1.00800           0
      5898 MEMB     32       CHL1     C20      CTL1    -0.900000E-01   12.0110           0
      5899 MEMB     32       CHL1     H20      HAL1     0.900000E-01   1.00800           0
      5900 MEMB     32       CHL1     C21      CTL3    -0.270000       12.0110           0
      5901 MEMB     32       CHL1     H21A     HAL3     0.900000E-01   1.00800           0
      5902 MEMB     32       CHL1     H21B     HAL3     0.900000E-01   1.00800           0
      5903 MEMB     32       CHL1     H21C     HAL3     0.900000E-01   1.00800           0
      5904 MEMB     32       CHL1     C22      CTL2    -0.180000       12.0110           0
      5905 MEMB     32       CHL1     H22A     HAL2     0.900000E-01   1.00800           0
      5906 MEMB     32       CHL1     H22B     HAL2     0.900000E-01   1.00800           0
      5907 MEMB     32       CHL1     C23      CTL2    -0.180000       12.0110           0
      5908 MEMB     32       CHL1     H23A     HAL2     0.900000E-01   1.00800           0
      5909 MEMB     32       CHL1     H23B     HAL2     0.900000E-01   1.00800           0
      5910 MEMB     32       CHL1     C24      CTL2    -0.180000       12.0110           0
      5911 MEMB     32       CHL1     H24A     HAL2     0.900000E-01   1.00800           0
      5912 MEMB     32       CHL1     H24B     HAL2     0.900000E-01   1.00800           0
      5913 MEMB     32       CHL1     C25      CTL1    -0.900000E-01   12.0110           0
      5914 MEMB     32       CHL1     H25      HAL1     0.900000E-01   1.00800           0
      5915 MEMB     32       CHL1     C26      CTL3    -0.270000       12.0110           0
      5916 MEMB     32       CHL1     H26A     HAL3     0.900000E-01   1.00800           0
      5917 MEMB     32       CHL1     H26B     HAL3     0.900000E-01   1.00800           0
      5918 MEMB     32       CHL1     H26C     HAL3     0.900000E-01   1.00800           0
      5919 MEMB     32       CHL1     C27      CTL3    -0.270000       12.0110           0
      5920 MEMB     32       CHL1     H27A     HAL3     0.900000E-01   1.00800           0
      5921 MEMB     32       CHL1     H27B     HAL3     0.900000E-01   1.00800           0
      5922 MEMB     32       CHL1     H27C     HAL3     0.900000E-01   1.00800           0
      5923 MEMB     41       CHL1     C3       CRL1     0.140000       12.0110           0
      5924 MEMB     41       CHL1     H3       HGA1     0.900000E-01   1.00800           0
      5925 MEMB     41       CHL1     O3       OHL     -0.660000       15.9994           0
      5926 MEMB     41       CHL1     H3'      HOL      0.430000       1.00800           0
      5927 MEMB     41       CHL1     C4       CRL2    -0.180000       12.0110           0
      5928 MEMB     41       CHL1     H4A      HGA2     0.900000E-01   1.00800           0
      5929 MEMB     41       CHL1     H4B      HGA2     0.900000E-01   1.00800           0
      5930 MEMB     41       CHL1     C5       CEL1     0.000000       12.0110           0
      5931 MEMB     41       CHL1     C6       CEL1    -0.150000       12.0110           0
      5932 MEMB     41       CHL1     H6       HEL1     0.150000       1.00800           0
      5933 MEMB     41       CHL1     C7       CRL2    -0.180000       12.0110           0
      5934 MEMB     41       CHL1     H7A      HGA2     0.900000E-01   1.00800           0
      5935 MEMB     41       CHL1     H7B      HGA2     0.900000E-01   1.00800           0
      5936 MEMB     41       CHL1     C8       CRL1    -0.900000E-01   12.0110           0
      5937 MEMB     41       CHL1     H8       HGA1     0.900000E-01   1.00800           0
      5938 MEMB     41       CHL1     C14      CRL1    -0.900000E-01   12.0110           0
      5939 MEMB     41       CHL1     H14      HGA1     0.900000E-01   1.00800           0
      5940 MEMB     41       CHL1     C15      CRL2    -0.180000       12.0110           0
      5941 MEMB     41       CHL1     H15A     HGA2     0.900000E-01   1.00800           0
      5942 MEMB     41       CHL1     H15B     HGA2     0.900000E-01   1.00800           0
      5943 MEMB     41       CHL1     C16      CRL2    -0.180000       12.0110           0
      5944 MEMB     41       CHL1     H16A     HGA2     0.900000E-01   1.00800           0
      5945 MEMB     41       CHL1     H16B     HGA2     0.900000E-01   1.00800           0
      5946 MEMB     41       CHL1     C17      CRL1    -0.900000E-01   12.0110           0
      5947 MEMB     41       CHL1     H17      HGA1     0.900000E-01   1.00800           0
      5948 MEMB     41       CHL1     C13      CRL1     0.000000       12.0110           0
      5949 MEMB     41       CHL1     C18      CTL3    -0.270000       12.0110           0
      5950 MEMB     41       CHL1     H18A     HAL3     0.900000E-01   1.00800           0
      5951 MEMB     41       CHL1     H18B     HAL3     0.900000E-01   1.00800           0
      5952 MEMB     41       CHL1     H18C     HAL3     0.900000E-01   1.00800           0
      5953 MEMB     41       CHL1     C12      CRL2    -0.180000       12.0110           0
      5954 MEMB     41       CHL1     H12A     HGA2     0.900000E-01   1.00800           0
      5955 MEMB     41       CHL1     H12B     HGA2     0.900000E-01   1.00800           0
      5956 MEMB     41       CHL1     C11      CRL2    -0.180000       12.0110           0
      5957 MEMB     41       CHL1     H11A     HGA2     0.900000E-01   1.00800           0
      5958 MEMB     41       CHL1     H11B     HGA2     0.900000E-01   1.00800           0
      5959 MEMB     41       CHL1     C9       CRL1    -0.900000E-01   12.0110           0
      5960 MEMB     41       CHL1     H9       HGA1     0.900000E-01   1.00800           0
      5961 MEMB     41       CHL1     C10      CRL1     0.000000       12.0110           0
      5962 MEMB     41       CHL1     C19      CTL3    -0.270000       12.0110           0
      5963 MEMB     41       CHL1     H19A     HAL3     0.900000E-01   1.00800           0
      5964 MEMB     41       CHL1     H19B     HAL3     0.900000E-01   1.00800           0
      5965 MEMB     41       CHL1     H19C     HAL3     0.900000E-01   1.00800           0
      5966 MEMB     41       CHL1     C1       CRL2    -0.180000       12.0110           0
      5967 MEMB     41       CHL1     H1A      HGA2     0.900000E-01   1.00800           0
      5968 MEMB     41       CHL1     H1B      HGA2     0.900000E-01   1.00800           0
      5969 MEMB     41       CHL1     C2       CRL2    -0.180000       12.0110           0
      5970 MEMB     41       CHL1     H2A      HGA2     0.900000E-01   1.00800           0
      5971 MEMB     41       CHL1     H2B      HGA2     0.900000E-01   1.00800           0
      5972 MEMB     41       CHL1     C20      CTL1    -0.900000E-01   12.0110           0
      5973 MEMB     41       CHL1     H20      HAL1     0.900000E-01   1.00800           0
      5974 MEMB     41       CHL1     C21      CTL3    -0.270000       12.0110           0
      5975 MEMB     41       CHL1     H21A     HAL3     0.900000E-01   1.00800           0
      5976 MEMB     41       CHL1     H21B     HAL3     0.900000E-01   1.00800           0
      5977 MEMB     41       CHL1     H21C     HAL3     0.900000E-01   1.00800           0
      5978 MEMB     41       CHL1     C22      CTL2    -0.180000       12.0110           0
      5979 MEMB     41       CHL1     H22A     HAL2     0.900000E-01   1.00800           0
      5980 MEMB     41       CHL1     H22B     HAL2     0.900000E-01   1.00800           0
      5981 MEMB     41       CHL1     C23      CTL2    -0.180000       12.0110           0
      5982 MEMB     41       CHL1     H23A     HAL2     0.900000E-01   1.00800           0
      5983 MEMB     41       CHL1     H23B     HAL2     0.900000E-01   1.00800           0
      5984 MEMB     41       CHL1     C24      CTL2    -0.180000       12.0110           0
      5985 MEMB     41       CHL1     H24A     HAL2     0.900000E-01   1.00800           0
      5986 MEMB     41       CHL1     H24B     HAL2     0.900000E-01   1.00800           0
      5987 MEMB     41       CHL1     C25      CTL1    -0.900000E-01   12.0110           0
      5988 MEMB     41       CHL1     H25      HAL1     0.900000E-01   1.00800           0
      5989 MEMB     41       CHL1     C26      CTL3    -0.270000       12.0110           0
      5990 MEMB     41       CHL1     H26A     HAL3     0.900000E-01   1.00800           0
      5991 MEMB     41       CHL1     H26B     HAL3     0.900000E-01   1.00800           0
      5992 MEMB     41       CHL1     H26C     HAL3     0.900000E-01   1.00800           0
      5993 MEMB     41       CHL1     C27      CTL3    -0.270000       12.0110           0
      5994 MEMB     41       CHL1     H27A     HAL3     0.900000E-01   1.00800           0
      5995 MEMB     41       CHL1     H27B     HAL3     0.900000E-01   1.00800           0
      5996 MEMB     41       CHL1     H27C     HAL3     0.900000E-01   1.00800           0
      5997 MEMB     42       CHL1     C3       CRL1     0.140000       12.0110           0
      5998 MEMB     42       CHL1     H3       HGA1     0.900000E-01   1.00800           0
      5999 MEMB     42       CHL1     O3       OHL     -0.660000       15.9994           0
      6000 MEMB     42       CHL1     H3'      HOL      0.430000       1.00800           0
      6001 MEMB     42       CHL1     C4       CRL2    -0.180000       12.0110           0
      6002 MEMB     42       CHL1     H4A      HGA2     0.900000E-01   1.00800           0
      6003 MEMB     42       CHL1     H4B      HGA2     0.900000E-01   1.00800           0
      6004 MEMB     42       CHL1     C5       CEL1     0.000000       12.0110           0
      6005 MEMB     42       CHL1     C6       CEL1    -0.150000       12.0110           0
      6006 MEMB     42       CHL1     H6       HEL1     0.150000       1.00800           0
      6007 MEMB     42       CHL1     C7       CRL2    -0.180000       12.0110           0
      6008 MEMB     42       CHL1     H7A      HGA2     0.900000E-01   1.00800           0
      6009 MEMB     42       CHL1     H7B      HGA2     0.900000E-01   1.00800           0
      6010 MEMB     42       CHL1     C8       CRL1    -0.900000E-01   12.0110           0
      6011 MEMB     42       CHL1     H8       HGA1     0.900000E-01   1.00800           0
      6012 MEMB     42       CHL1     C14      CRL1    -0.900000E-01   12.0110           0
      6013 MEMB     42       CHL1     H14      HGA1     0.900000E-01   1.00800           0
      6014 MEMB     42       CHL1     C15      CRL2    -0.180000       12.0110           0
      6015 MEMB     42       CHL1     H15A     HGA2     0.900000E-01   1.00800           0
      6016 MEMB     42       CHL1     H15B     HGA2     0.900000E-01   1.00800           0
      6017 MEMB     42       CHL1     C16      CRL2    -0.180000       12.0110           0
      6018 MEMB     42       CHL1     H16A     HGA2     0.900000E-01   1.00800           0
      6019 MEMB     42       CHL1     H16B     HGA2     0.900000E-01   1.00800           0
      6020 MEMB     42       CHL1     C17      CRL1    -0.900000E-01   12.0110           0
      6021 MEMB     42       CHL1     H17      HGA1     0.900000E-01   1.00800           0
      6022 MEMB     42       CHL1     C13      CRL1     0.000000       12.0110           0
      6023 MEMB     42       CHL1     C18      CTL3    -0.270000       12.0110           0
      6024 MEMB     42       CHL1     H18A     HAL3     0.900000E-01   1.00800           0
      6025 MEMB     42       CHL1     H18B     HAL3     0.900000E-01   1.00800           0
      6026 MEMB     42       CHL1     H18C     HAL3     0.900000E-01   1.00800           0
      6027 MEMB     42       CHL1     C12      CRL2    -0.180000       12.0110           0
      6028 MEMB     42       CHL1     H12A     HGA2     0.900000E-01   1.00800           0
      6029 MEMB     42       CHL1     H12B     HGA2     0.900000E-01   1.00800           0
      6030 MEMB     42       CHL1     C11      CRL2    -0.180000       12.0110           0
      6031 MEMB     42       CHL1     H11A     HGA2     0.900000E-01   1.00800           0
      6032 MEMB     42       CHL1     H11B     HGA2     0.900000E-01   1.00800           0
      6033 MEMB     42       CHL1     C9       CRL1    -0.900000E-01   12.0110           0
      6034 MEMB     42       CHL1     H9       HGA1     0.900000E-01   1.00800           0
      6035 MEMB     42       CHL1     C10      CRL1     0.000000       12.0110           0
      6036 MEMB     42       CHL1     C19      CTL3    -0.270000       12.0110           0
      6037 MEMB     42       CHL1     H19A     HAL3     0.900000E-01   1.00800           0
      6038 MEMB     42       CHL1     H19B     HAL3     0.900000E-01   1.00800           0
      6039 MEMB     42       CHL1     H19C     HAL3     0.900000E-01   1.00800           0
      6040 MEMB     42       CHL1     C1       CRL2    -0.180000       12.0110           0
      6041 MEMB     42       CHL1     H1A      HGA2     0.900000E-01   1.00800           0
      6042 MEMB     42       CHL1     H1B      HGA2     0.900000E-01   1.00800           0
      6043 MEMB     42       CHL1     C2       CRL2    -0.180000       12.0110           0
      6044 MEMB     42       CHL1     H2A      HGA2     0.900000E-01   1.00800           0
      6045 MEMB     42       CHL1     H2B      HGA2     0.900000E-01   1.00800           0
      6046 MEMB     42       CHL1     C20      CTL1    -0.900000E-01   12.0110           0
      6047 MEMB     42       CHL1     H20      HAL1     0.900000E-01   1.00800           0
      6048 MEMB     42       CHL1     C21      CTL3    -0.270000       12.0110           0
      6049 MEMB     42       CHL1     H21A     HAL3     0.900000E-01   1.00800           0
      6050 MEMB     42       CHL1     H21B     HAL3     0.900000E-01   1.00800           0
      6051 MEMB     42       CHL1     H21C     HAL3     0.900000E-01   1.00800           0
      6052 MEMB     42       CHL1     C22      CTL2    -0.180000       12.0110           0
      6053 MEMB     42       CHL1     H22A     HAL2     0.900000E-01   1.00800           0
      6054 MEMB     42       CHL1     H22B     HAL2     0.900000E-01   1.00800           0
      6055 MEMB     42       CHL1     C23      CTL2    -0.180000       12.0110           0
      6056 MEMB     42       CHL1     H23A     HAL2     0.900000E-01   1.00800           0
      6057 MEMB     42       CHL1     H23B     HAL2     0.900000E-01   1.00800           0
      6058 MEMB     42       CHL1     C24      CTL2    -0.180000       12.0110           0
      6059 MEMB     42       CHL1     H24A     HAL2     0.900000E-01   1.00800           0
      6060 MEMB     42       CHL1     H24B     HAL2     0.900000E-01   1.00800           0
      6061 MEMB     42       CHL1     C25      CTL1    -0.900000E-01   12.0110           0
      6062 MEMB     42       CHL1     H25      HAL1     0.900000E-01   1.00800           0
      6063 MEMB     42       CHL1     C26      CTL3    -0.270000       12.0110           0
      6064 MEMB     42       CHL1     H26A     HAL3     0.900000E-01   1.00800           0
      6065 MEMB     42       CHL1     H26B     HAL3     0.900000E-01   1.00800           0
      6066 MEMB     42       CHL1     H26C     HAL3     0.900000E-01   1.00800           0
      6067 MEMB     42       CHL1     C27      CTL3    -0.270000       12.0110           0
      6068 MEMB     42       CHL1     H27A     HAL3     0.900000E-01   1.00800           0
      6069 MEMB     42       CHL1     H27B     HAL3     0.900000E-01   1.00800           0
      6070 MEMB     42       CHL1     H27C     HAL3     0.900000E-01   1.00800           0
      6071 MEMB     44       CHL1     C3       CRL1     0.140000       12.0110           0
      6072 MEMB     44       CHL1     H3       HGA1     0.900000E-01   1.00800           0
      6073 MEMB     44       CHL1     O3       OHL     -0.660000       15.9994           0
      6074 MEMB     44       CHL1     H3'      HOL      0.430000       1.00800           0
      6075 MEMB     44       CHL1     C4       CRL2    -0.180000       12.0110           0
      6076 MEMB     44       CHL1     H4A      HGA2     0.900000E-01   1.00800           0
      6077 MEMB     44       CHL1     H4B      HGA2     0.900000E-01   1.00800           0
      6078 MEMB     44       CHL1     C5       CEL1     0.000000       12.0110           0
      6079 MEMB     44       CHL1     C6       CEL1    -0.150000       12.0110           0
      6080 MEMB     44       CHL1     H6       HEL1     0.150000       1.00800           0
      6081 MEMB     44       CHL1     C7       CRL2    -0.180000       12.0110           0
      6082 MEMB     44       CHL1     H7A      HGA2     0.900000E-01   1.00800           0
      6083 MEMB     44       CHL1     H7B      HGA2     0.900000E-01   1.00800           0
      6084 MEMB     44       CHL1     C8       CRL1    -0.900000E-01   12.0110           0
      6085 MEMB     44       CHL1     H8       HGA1     0.900000E-01   1.00800           0
      6086 MEMB     44       CHL1     C14      CRL1    -0.900000E-01   12.0110           0
      6087 MEMB     44       CHL1     H14      HGA1     0.900000E-01   1.00800           0
      6088 MEMB     44       CHL1     C15      CRL2    -0.180000       12.0110           0
      6089 MEMB     44       CHL1     H15A     HGA2     0.900000E-01   1.00800           0
      6090 MEMB     44       CHL1     H15B     HGA2     0.900000E-01   1.00800           0
      6091 MEMB     44       CHL1     C16      CRL2    -0.180000       12.0110           0
      6092 MEMB     44       CHL1     H16A     HGA2     0.900000E-01   1.00800           0
      6093 MEMB     44       CHL1     H16B     HGA2     0.900000E-01   1.00800           0
      6094 MEMB     44       CHL1     C17      CRL1    -0.900000E-01   12.0110           0
      6095 MEMB     44       CHL1     H17      HGA1     0.900000E-01   1.00800           0
      6096 MEMB     44       CHL1     C13      CRL1     0.000000       12.0110           0
      6097 MEMB     44       CHL1     C18      CTL3    -0.270000       12.0110           0
      6098 MEMB     44       CHL1     H18A     HAL3     0.900000E-01   1.00800           0
      6099 MEMB     44       CHL1     H18B     HAL3     0.900000E-01   1.00800           0
      6100 MEMB     44       CHL1     H18C     HAL3     0.900000E-01   1.00800           0
      6101 MEMB     44       CHL1     C12      CRL2    -0.180000       12.0110           0
      6102 MEMB     44       CHL1     H12A     HGA2     0.900000E-01   1.00800           0
      6103 MEMB     44       CHL1     H12B     HGA2     0.900000E-01   1.00800           0
      6104 MEMB     44       CHL1     C11      CRL2    -0.180000       12.0110           0
      6105 MEMB     44       CHL1     H11A     HGA2     0.900000E-01   1.00800           0
      6106 MEMB     44       CHL1     H11B     HGA2     0.900000E-01   1.00800           0
      6107 MEMB     44       CHL1     C9       CRL1    -0.900000E-01   12.0110           0
      6108 MEMB     44       CHL1     H9       HGA1     0.900000E-01   1.00800           0
      6109 MEMB     44       CHL1     C10      CRL1     0.000000       12.0110           0
      6110 MEMB     44       CHL1     C19      CTL3    -0.270000       12.0110           0
      6111 MEMB     44       CHL1     H19A     HAL3     0.900000E-01   1.00800           0
      6112 MEMB     44       CHL1     H19B     HAL3     0.900000E-01   1.00800           0
      6113 MEMB     44       CHL1     H19C     HAL3     0.900000E-01   1.00800           0
      6114 MEMB     44       CHL1     C1       CRL2    -0.180000       12.0110           0
      6115 MEMB     44       CHL1     H1A      HGA2     0.900000E-01   1.00800           0
      6116 MEMB     44       CHL1     H1B      HGA2     0.900000E-01   1.00800           0
      6117 MEMB     44       CHL1     C2       CRL2    -0.180000       12.0110           0
      6118 MEMB     44       CHL1     H2A      HGA2     0.900000E-01   1.00800           0
      6119 MEMB     44       CHL1     H2B      HGA2     0.900000E-01   1.00800           0
      6120 MEMB     44       CHL1     C20      CTL1    -0.900000E-01   12.0110           0
      6121 MEMB     44       CHL1     H20      HAL1     0.900000E-01   1.00800           0
      6122 MEMB     44       CHL1     C21      CTL3    -0.270000       12.0110           0
      6123 MEMB     44       CHL1     H21A     HAL3     0.900000E-01   1.00800           0
      6124 MEMB     44       CHL1     H21B     HAL3     0.900000E-01   1.00800           0
      6125 MEMB     44       CHL1     H21C     HAL3     0.900000E-01   1.00800           0
      6126 MEMB     44       CHL1     C22      CTL2    -0.180000       12.0110           0
      6127 MEMB     44       CHL1     H22A     HAL2     0.900000E-01   1.00800           0
      6128 MEMB     44       CHL1     H22B     HAL2     0.900000E-01   1.00800           0
      6129 MEMB     44       CHL1     C23      CTL2    -0.180000       12.0110           0
      6130 MEMB     44       CHL1     H23A     HAL2     0.900000E-01   1.00800           0
      6131 MEMB     44       CHL1     H23B     HAL2     0.900000E-01   1.00800           0
      6132 MEMB     44       CHL1     C24      CTL2    -0.180000       12.0110           0
      6133 MEMB     44       CHL1     H24A     HAL2     0.900000E-01   1.00800           0
      6134 MEMB     44       CHL1     H24B     HAL2     0.900000E-01   1.00800           0
      6135 MEMB     44       CHL1     C25      CTL1    -0.900000E-01   12.0110           0
      6136 MEMB     44       CHL1     H25      HAL1     0.900000E-01   1.00800           0
      6137 MEMB     44       CHL1     C26      CTL3    -0.270000       12.0110           0
      6138 MEMB     44       CHL1     H26A     HAL3     0.900000E-01   1.00800           0
      6139 MEMB     44       CHL1     H26B     HAL3     0.900000E-01   1.00800           0
      6140 MEMB     44       CHL1     H26C     HAL3     0.900000E-01   1.00800           0
      6141 MEMB     44       CHL1     C27      CTL3    -0.270000       12.0110           0
      6142 MEMB     44       CHL1     H27A     HAL3     0.900000E-01   1.00800           0
      6143 MEMB     44       CHL1     H27B     HAL3     0.900000E-01   1.00800           0
      6144 MEMB     44       CHL1     H27C     HAL3     0.900000E-01   1.00800           0
      6145 MEMB     46       CHL1     C3       CRL1     0.140000       12.0110           0
      6146 MEMB     46       CHL1     H3       HGA1     0.900000E-01   1.00800           0
      6147 MEMB     46       CHL1     O3       OHL     -0.660000       15.9994           0
      6148 MEMB     46       CHL1     H3'      HOL      0.430000       1.00800           0
      6149 MEMB     46       CHL1     C4       CRL2    -0.180000       12.0110           0
      6150 MEMB     46       CHL1     H4A      HGA2     0.900000E-01   1.00800           0
      6151 MEMB     46       CHL1     H4B      HGA2     0.900000E-01   1.00800           0
      6152 MEMB     46       CHL1     C5       CEL1     0.000000       12.0110           0
      6153 MEMB     46       CHL1     C6       CEL1    -0.150000       12.0110           0
      6154 MEMB     46       CHL1     H6       HEL1     0.150000       1.00800           0
      6155 MEMB     46       CHL1     C7       CRL2    -0.180000       12.0110           0
      6156 MEMB     46       CHL1     H7A      HGA2     0.900000E-01   1.00800           0
      6157 MEMB     46       CHL1     H7B      HGA2     0.900000E-01   1.00800           0
      6158 MEMB     46       CHL1     C8       CRL1    -0.900000E-01   12.0110           0
      6159 MEMB     46       CHL1     H8       HGA1     0.900000E-01   1.00800           0
      6160 MEMB     46       CHL1     C14      CRL1    -0.900000E-01   12.0110           0
      6161 MEMB     46       CHL1     H14      HGA1     0.900000E-01   1.00800           0
      6162 MEMB     46       CHL1     C15      CRL2    -0.180000       12.0110           0
      6163 MEMB     46       CHL1     H15A     HGA2     0.900000E-01   1.00800           0
      6164 MEMB     46       CHL1     H15B     HGA2     0.900000E-01   1.00800           0
      6165 MEMB     46       CHL1     C16      CRL2    -0.180000       12.0110           0
      6166 MEMB     46       CHL1     H16A     HGA2     0.900000E-01   1.00800           0
      6167 MEMB     46       CHL1     H16B     HGA2     0.900000E-01   1.00800           0
      6168 MEMB     46       CHL1     C17      CRL1    -0.900000E-01   12.0110           0
      6169 MEMB     46       CHL1     H17      HGA1     0.900000E-01   1.00800           0
      6170 MEMB     46       CHL1     C13      CRL1     0.000000       12.0110           0
      6171 MEMB     46       CHL1     C18      CTL3    -0.270000       12.0110           0
      6172 MEMB     46       CHL1     H18A     HAL3     0.900000E-01   1.00800           0
      6173 MEMB     46       CHL1     H18B     HAL3     0.900000E-01   1.00800           0
      6174 MEMB     46       CHL1     H18C     HAL3     0.900000E-01   1.00800           0
      6175 MEMB     46       CHL1     C12      CRL2    -0.180000       12.0110           0
      6176 MEMB     46       CHL1     H12A     HGA2     0.900000E-01   1.00800           0
      6177 MEMB     46       CHL1     H12B     HGA2     0.900000E-01   1.00800           0
      6178 MEMB     46       CHL1     C11      CRL2    -0.180000       12.0110           0
      6179 MEMB     46       CHL1     H11A     HGA2     0.900000E-01   1.00800           0
      6180 MEMB     46       CHL1     H11B     HGA2     0.900000E-01   1.00800           0
      6181 MEMB     46       CHL1     C9       CRL1    -0.900000E-01   12.0110           0
      6182 MEMB     46       CHL1     H9       HGA1     0.900000E-01   1.00800           0
      6183 MEMB     46       CHL1     C10      CRL1     0.000000       12.0110           0
      6184 MEMB     46       CHL1     C19      CTL3    -0.270000       12.0110           0
      6185 MEMB     46       CHL1     H19A     HAL3     0.900000E-01   1.00800           0
      6186 MEMB     46       CHL1     H19B     HAL3     0.900000E-01   1.00800           0
      6187 MEMB     46       CHL1     H19C     HAL3     0.900000E-01   1.00800           0
      6188 MEMB     46       CHL1     C1       CRL2    -0.180000       12.0110           0
      6189 MEMB     46       CHL1     H1A      HGA2     0.900000E-01   1.00800           0
      6190 MEMB     46       CHL1     H1B      HGA2     0.900000E-01   1.00800           0
      6191 MEMB     46       CHL1     C2       CRL2    -0.180000       12.0110           0
      6192 MEMB     46       CHL1     H2A      HGA2     0.900000E-01   1.00800           0
      6193 MEMB     46       CHL1     H2B      HGA2     0.900000E-01   1.00800           0
      6194 MEMB     46       CHL1     C20      CTL1    -0.900000E-01   12.0110           0
      6195 MEMB     46       CHL1     H20      HAL1     0.900000E-01   1.00800           0
      6196 MEMB     46       CHL1     C21      CTL3    -0.270000       12.0110           0
      6197 MEMB     46       CHL1     H21A     HAL3     0.900000E-01   1.00800           0
      6198 MEMB     46       CHL1     H21B     HAL3     0.900000E-01   1.00800           0
      6199 MEMB     46       CHL1     H21C     HAL3     0.900000E-01   1.00800           0
      6200 MEMB     46       CHL1     C22      CTL2    -0.180000       12.0110           0
      6201 MEMB     46       CHL1     H22A     HAL2     0.900000E-01   1.00800           0
      6202 MEMB     46       CHL1     H22B     HAL2     0.900000E-01   1.00800           0
      6203 MEMB     46       CHL1     C23      CTL2    -0.180000       12.0110           0
      6204 MEMB     46       CHL1     H23A     HAL2     0.900000E-01   1.00800           0
      6205 MEMB     46       CHL1     H23B     HAL2     0.900000E-01   1.00800           0
      6206 MEMB     46       CHL1     C24      CTL2    -0.180000       12.0110           0
      6207 MEMB     46       CHL1     H24A     HAL2     0.900000E-01   1.00800           0
      6208 MEMB     46       CHL1     H24B     HAL2     0.900000E-01   1.00800           0
      6209 MEMB     46       CHL1     C25      CTL1    -0.900000E-01   12.0110           0
      6210 MEMB     46       CHL1     H25      HAL1     0.900000E-01   1.00800           0
      6211 MEMB     46       CHL1     C26      CTL3    -0.270000       12.0110           0
      6212 MEMB     46       CHL1     H26A     HAL3     0.900000E-01   1.00800           0
      6213 MEMB     46       CHL1     H26B     HAL3     0.900000E-01   1.00800           0
      6214 MEMB     46       CHL1     H26C     HAL3     0.900000E-01   1.00800           0
      6215 MEMB     46       CHL1     C27      CTL3    -0.270000       12.0110           0
      6216 MEMB     46       CHL1     H27A     HAL3     0.900000E-01   1.00800           0
      6217 MEMB     46       CHL1     H27B     HAL3     0.900000E-01   1.00800           0
      6218 MEMB     46       CHL1     H27C     HAL3     0.900000E-01   1.00800           0
      6219 MEMB     48       CHL1     C3       CRL1     0.140000       12.0110           0
      6220 MEMB     48       CHL1     H3       HGA1     0.900000E-01   1.00800           0
      6221 MEMB     48       CHL1     O3       OHL     -0.660000       15.9994           0
      6222 MEMB     48       CHL1     H3'      HOL      0.430000       1.00800           0
      6223 MEMB     48       CHL1     C4       CRL2    -0.180000       12.0110           0
      6224 MEMB     48       CHL1     H4A      HGA2     0.900000E-01   1.00800           0
      6225 MEMB     48       CHL1     H4B      HGA2     0.900000E-01   1.00800           0
      6226 MEMB     48       CHL1     C5       CEL1     0.000000       12.0110           0
      6227 MEMB     48       CHL1     C6       CEL1    -0.150000       12.0110           0
      6228 MEMB     48       CHL1     H6       HEL1     0.150000       1.00800           0
      6229 MEMB     48       CHL1     C7       CRL2    -0.180000       12.0110           0
      6230 MEMB     48       CHL1     H7A      HGA2     0.900000E-01   1.00800           0
      6231 MEMB     48       CHL1     H7B      HGA2     0.900000E-01   1.00800           0
      6232 MEMB     48       CHL1     C8       CRL1    -0.900000E-01   12.0110           0
      6233 MEMB     48       CHL1     H8       HGA1     0.900000E-01   1.00800           0
      6234 MEMB     48       CHL1     C14      CRL1    -0.900000E-01   12.0110           0
      6235 MEMB     48       CHL1     H14      HGA1     0.900000E-01   1.00800           0
      6236 MEMB     48       CHL1     C15      CRL2    -0.180000       12.0110           0
      6237 MEMB     48       CHL1     H15A     HGA2     0.900000E-01   1.00800           0
      6238 MEMB     48       CHL1     H15B     HGA2     0.900000E-01   1.00800           0
      6239 MEMB     48       CHL1     C16      CRL2    -0.180000       12.0110           0
      6240 MEMB     48       CHL1     H16A     HGA2     0.900000E-01   1.00800           0
      6241 MEMB     48       CHL1     H16B     HGA2     0.900000E-01   1.00800           0
      6242 MEMB     48       CHL1     C17      CRL1    -0.900000E-01   12.0110           0
      6243 MEMB     48       CHL1     H17      HGA1     0.900000E-01   1.00800           0
      6244 MEMB     48       CHL1     C13      CRL1     0.000000       12.0110           0
      6245 MEMB     48       CHL1     C18      CTL3    -0.270000       12.0110           0
      6246 MEMB     48       CHL1     H18A     HAL3     0.900000E-01   1.00800           0
      6247 MEMB     48       CHL1     H18B     HAL3     0.900000E-01   1.00800           0
      6248 MEMB     48       CHL1     H18C     HAL3     0.900000E-01   1.00800           0
      6249 MEMB     48       CHL1     C12      CRL2    -0.180000       12.0110           0
      6250 MEMB     48       CHL1     H12A     HGA2     0.900000E-01   1.00800           0
      6251 MEMB     48       CHL1     H12B     HGA2     0.900000E-01   1.00800           0
      6252 MEMB     48       CHL1     C11      CRL2    -0.180000       12.0110           0
      6253 MEMB     48       CHL1     H11A     HGA2     0.900000E-01   1.00800           0
      6254 MEMB     48       CHL1     H11B     HGA2     0.900000E-01   1.00800           0
      6255 MEMB     48       CHL1     C9       CRL1    -0.900000E-01   12.0110           0
      6256 MEMB     48       CHL1     H9       HGA1     0.900000E-01   1.00800           0
      6257 MEMB     48       CHL1     C10      CRL1     0.000000       12.0110           0
      6258 MEMB     48       CHL1     C19      CTL3    -0.270000       12.0110           0
      6259 MEMB     48       CHL1     H19A     HAL3     0.900000E-01   1.00800           0
      6260 MEMB     48       CHL1     H19B     HAL3     0.900000E-01   1.00800           0
      6261 MEMB     48       CHL1     H19C     HAL3     0.900000E-01   1.00800           0
      6262 MEMB     48       CHL1     C1       CRL2    -0.180000       12.0110           0
      6263 MEMB     48       CHL1     H1A      HGA2     0.900000E-01   1.00800           0
      6264 MEMB     48       CHL1     H1B      HGA2     0.900000E-01   1.00800           0
      6265 MEMB     48       CHL1     C2       CRL2    -0.180000       12.0110           0
      6266 MEMB     48       CHL1     H2A      HGA2     0.900000E-01   1.00800           0
      6267 MEMB     48       CHL1     H2B      HGA2     0.900000E-01   1.00800           0
      6268 MEMB     48       CHL1     C20      CTL1    -0.900000E-01   12.0110           0
      6269 MEMB     48       CHL1     H20      HAL1     0.900000E-01   1.00800           0
      6270 MEMB     48       CHL1     C21      CTL3    -0.270000       12.0110           0
      6271 MEMB     48       CHL1     H21A     HAL3     0.900000E-01   1.00800           0
      6272 MEMB     48       CHL1     H21B     HAL3     0.900000E-01   1.00800           0
      6273 MEMB     48       CHL1     H21C     HAL3     0.900000E-01   1.00800           0
      6274 MEMB     48       CHL1     C22      CTL2    -0.180000       12.0110           0
      6275 MEMB     48       CHL1     H22A     HAL2     0.900000E-01   1.00800           0
      6276 MEMB     48       CHL1     H22B     HAL2     0.900000E-01   1.00800           0
      6277 MEMB     48       CHL1     C23      CTL2    -0.180000       12.0110           0
      6278 MEMB     48       CHL1     H23A     HAL2     0.900000E-01   1.00800           0
      6279 MEMB     48       CHL1     H23B     HAL2     0.900000E-01   1.00800           0
      6280 MEMB     48       CHL1     C24      CTL2    -0.180000       12.0110           0
      6281 MEMB     48       CHL1     H24A     HAL2     0.900000E-01   1.00800           0
      6282 MEMB     48       CHL1     H24B     HAL2     0.900000E-01   1.00800           0
      6283 MEMB     48       CHL1     C25      CTL1    -0.900000E-01   12.0110           0
      6284 MEMB     48       CHL1     H25      HAL1     0.900000E-01   1.00800           0
      6285 MEMB     48       CHL1     C26      CTL3    -0.270000       12.0110           0
      6286 MEMB     48       CHL1     H26A     HAL3     0.900000E-01   1.00800           0
      6287 MEMB     48       CHL1     H26B     HAL3     0.900000E-01   1.00800           0
      6288 MEMB     48       CHL1     H26C     HAL3     0.900000E-01   1.00800           0
      6289 MEMB     48       CHL1     C27      CTL3    -0.270000       12.0110           0
      6290 MEMB     48       CHL1     H27A     HAL3     0.900000E-01   1.00800           0
      6291 MEMB     48       CHL1     H27B     HAL3     0.900000E-01   1.00800           0
      6292 MEMB     48       CHL1     H27C     HAL3     0.900000E-01   1.00800           0
      6293 MEMB     50       CHL1     C3       CRL1     0.140000       12.0110           0
      6294 MEMB     50       CHL1     H3       HGA1     0.900000E-01   1.00800           0
      6295 MEMB     50       CHL1     O3       OHL     -0.660000       15.9994           0
      6296 MEMB     50       CHL1     H3'      HOL      0.430000       1.00800           0
      6297 MEMB     50       CHL1     C4       CRL2    -0.180000       12.0110           0
      6298 MEMB     50       CHL1     H4A      HGA2     0.900000E-01   1.00800           0
      6299 MEMB     50       CHL1     H4B      HGA2     0.900000E-01   1.00800           0
      6300 MEMB     50       CHL1     C5       CEL1     0.000000       12.0110           0
      6301 MEMB     50       CHL1     C6       CEL1    -0.150000       12.0110           0
      6302 MEMB     50       CHL1     H6       HEL1     0.150000       1.00800           0
      6303 MEMB     50       CHL1     C7       CRL2    -0.180000       12.0110           0
      6304 MEMB     50       CHL1     H7A      HGA2     0.900000E-01   1.00800           0
      6305 MEMB     50       CHL1     H7B      HGA2     0.900000E-01   1.00800           0
      6306 MEMB     50       CHL1     C8       CRL1    -0.900000E-01   12.0110           0
      6307 MEMB     50       CHL1     H8       HGA1     0.900000E-01   1.00800           0
      6308 MEMB     50       CHL1     C14      CRL1    -0.900000E-01   12.0110           0
      6309 MEMB     50       CHL1     H14      HGA1     0.900000E-01   1.00800           0
      6310 MEMB     50       CHL1     C15      CRL2    -0.180000       12.0110           0
      6311 MEMB     50       CHL1     H15A     HGA2     0.900000E-01   1.00800           0
      6312 MEMB     50       CHL1     H15B     HGA2     0.900000E-01   1.00800           0
      6313 MEMB     50       CHL1     C16      CRL2    -0.180000       12.0110           0
      6314 MEMB     50       CHL1     H16A     HGA2     0.900000E-01   1.00800           0
      6315 MEMB     50       CHL1     H16B     HGA2     0.900000E-01   1.00800           0
      6316 MEMB     50       CHL1     C17      CRL1    -0.900000E-01   12.0110           0
      6317 MEMB     50       CHL1     H17      HGA1     0.900000E-01   1.00800           0
      6318 MEMB     50       CHL1     C13      CRL1     0.000000       12.0110           0
      6319 MEMB     50       CHL1     C18      CTL3    -0.270000       12.0110           0
      6320 MEMB     50       CHL1     H18A     HAL3     0.900000E-01   1.00800           0
      6321 MEMB     50       CHL1     H18B     HAL3     0.900000E-01   1.00800           0
      6322 MEMB     50       CHL1     H18C     HAL3     0.900000E-01   1.00800           0
      6323 MEMB     50       CHL1     C12      CRL2    -0.180000       12.0110           0
      6324 MEMB     50       CHL1     H12A     HGA2     0.900000E-01   1.00800           0
      6325 MEMB     50       CHL1     H12B     HGA2     0.900000E-01   1.00800           0
      6326 MEMB     50       CHL1     C11      CRL2    -0.180000       12.0110           0
      6327 MEMB     50       CHL1     H11A     HGA2     0.900000E-01   1.00800           0
      6328 MEMB     50       CHL1     H11B     HGA2     0.900000E-01   1.00800           0
      6329 MEMB     50       CHL1     C9       CRL1    -0.900000E-01   12.0110           0
      6330 MEMB     50       CHL1     H9       HGA1     0.900000E-01   1.00800           0
      6331 MEMB     50       CHL1     C10      CRL1     0.000000       12.0110           0
      6332 MEMB     50       CHL1     C19      CTL3    -0.270000       12.0110           0
      6333 MEMB     50       CHL1     H19A     HAL3     0.900000E-01   1.00800           0
      6334 MEMB     50       CHL1     H19B     HAL3     0.900000E-01   1.00800           0
      6335 MEMB     50       CHL1     H19C     HAL3     0.900000E-01   1.00800           0
      6336 MEMB     50       CHL1     C1       CRL2    -0.180000       12.0110           0
      6337 MEMB     50       CHL1     H1A      HGA2     0.900000E-01   1.00800           0
      6338 MEMB     50       CHL1     H1B      HGA2     0.900000E-01   1.00800           0
      6339 MEMB     50       CHL1     C2       CRL2    -0.180000       12.0110           0
      6340 MEMB     50       CHL1     H2A      HGA2     0.900000E-01   1.00800           0
      6341 MEMB     50       CHL1     H2B      HGA2     0.900000E-01   1.00800           0
      6342 MEMB     50       CHL1     C20      CTL1    -0.900000E-01   12.0110           0
      6343 MEMB     50       CHL1     H20      HAL1     0.900000E-01   1.00800           0
      6344 MEMB     50       CHL1     C21      CTL3    -0.270000       12.0110           0
      6345 MEMB     50       CHL1     H21A     HAL3     0.900000E-01   1.00800           0
      6346 MEMB     50       CHL1     H21B     HAL3     0.900000E-01   1.00800           0
      6347 MEMB     50       CHL1     H21C     HAL3     0.900000E-01   1.00800           0
      6348 MEMB     50       CHL1     C22      CTL2    -0.180000       12.0110           0
      6349 MEMB     50       CHL1     H22A     HAL2     0.900000E-01   1.00800           0
      6350 MEMB     50       CHL1     H22B     HAL2     0.900000E-01   1.00800           0
      6351 MEMB     50       CHL1     C23      CTL2    -0.180000       12.0110           0
      6352 MEMB     50       CHL1     H23A     HAL2     0.900000E-01   1.00800           0
      6353 MEMB     50       CHL1     H23B     HAL2     0.900000E-01   1.00800           0
      6354 MEMB     50       CHL1     C24      CTL2    -0.180000       12.0110           0
      6355 MEMB     50       CHL1     H24A     HAL2     0.900000E-01   1.00800           0
      6356 MEMB     50       CHL1     H24B     HAL2     0.900000E-01   1.00800           0
      6357 MEMB     50       CHL1     C25      CTL1    -0.900000E-01   12.0110           0
      6358 MEMB     50       CHL1     H25      HAL1     0.900000E-01   1.00800           0
      6359 MEMB     50       CHL1     C26      CTL3    -0.270000       12.0110           0
      6360 MEMB     50       CHL1     H26A     HAL3     0.900000E-01   1.00800           0
      6361 MEMB     50       CHL1     H26B     HAL3     0.900000E-01   1.00800           0
      6362 MEMB     50       CHL1     H26C     HAL3     0.900000E-01   1.00800           0
      6363 MEMB     50       CHL1     C27      CTL3    -0.270000       12.0110           0
      6364 MEMB     50       CHL1     H27A     HAL3     0.900000E-01   1.00800           0
      6365 MEMB     50       CHL1     H27B     HAL3     0.900000E-01   1.00800           0
      6366 MEMB     50       CHL1     H27C     HAL3     0.900000E-01   1.00800           0
      6367 MEMB     52       CHL1     C3       CRL1     0.140000       12.0110           0
      6368 MEMB     52       CHL1     H3       HGA1     0.900000E-01   1.00800           0
      6369 MEMB     52       CHL1     O3       OHL     -0.660000       15.9994           0
      6370 MEMB     52       CHL1     H3'      HOL      0.430000       1.00800           0
      6371 MEMB     52       CHL1     C4       CRL2    -0.180000       12.0110           0
      6372 MEMB     52       CHL1     H4A      HGA2     0.900000E-01   1.00800           0
      6373 MEMB     52       CHL1     H4B      HGA2     0.900000E-01   1.00800           0
      6374 MEMB     52       CHL1     C5       CEL1     0.000000       12.0110           0
      6375 MEMB     52       CHL1     C6       CEL1    -0.150000       12.0110           0
      6376 MEMB     52       CHL1     H6       HEL1     0.150000       1.00800           0
      6377 MEMB     52       CHL1     C7       CRL2    -0.180000       12.0110           0
      6378 MEMB     52       CHL1     H7A      HGA2     0.900000E-01   1.00800           0
      6379 MEMB     52       CHL1     H7B      HGA2     0.900000E-01   1.00800           0
      6380 MEMB     52       CHL1     C8       CRL1    -0.900000E-01   12.0110           0
      6381 MEMB     52       CHL1     H8       HGA1     0.900000E-01   1.00800           0
      6382 MEMB     52       CHL1     C14      CRL1    -0.900000E-01   12.0110           0
      6383 MEMB     52       CHL1     H14      HGA1     0.900000E-01   1.00800           0
      6384 MEMB     52       CHL1     C15      CRL2    -0.180000       12.0110           0
      6385 MEMB     52       CHL1     H15A     HGA2     0.900000E-01   1.00800           0
      6386 MEMB     52       CHL1     H15B     HGA2     0.900000E-01   1.00800           0
      6387 MEMB     52       CHL1     C16      CRL2    -0.180000       12.0110           0
      6388 MEMB     52       CHL1     H16A     HGA2     0.900000E-01   1.00800           0
      6389 MEMB     52       CHL1     H16B     HGA2     0.900000E-01   1.00800           0
      6390 MEMB     52       CHL1     C17      CRL1    -0.900000E-01   12.0110           0
      6391 MEMB     52       CHL1     H17      HGA1     0.900000E-01   1.00800           0
      6392 MEMB     52       CHL1     C13      CRL1     0.000000       12.0110           0
      6393 MEMB     52       CHL1     C18      CTL3    -0.270000       12.0110           0
      6394 MEMB     52       CHL1     H18A     HAL3     0.900000E-01   1.00800           0
      6395 MEMB     52       CHL1     H18B     HAL3     0.900000E-01   1.00800           0
      6396 MEMB     52       CHL1     H18C     HAL3     0.900000E-01   1.00800           0
      6397 MEMB     52       CHL1     C12      CRL2    -0.180000       12.0110           0
      6398 MEMB     52       CHL1     H12A     HGA2     0.900000E-01   1.00800           0
      6399 MEMB     52       CHL1     H12B     HGA2     0.900000E-01   1.00800           0
      6400 MEMB     52       CHL1     C11      CRL2    -0.180000       12.0110           0
      6401 MEMB     52       CHL1     H11A     HGA2     0.900000E-01   1.00800           0
      6402 MEMB     52       CHL1     H11B     HGA2     0.900000E-01   1.00800           0
      6403 MEMB     52       CHL1     C9       CRL1    -0.900000E-01   12.0110           0
      6404 MEMB     52       CHL1     H9       HGA1     0.900000E-01   1.00800           0
      6405 MEMB     52       CHL1     C10      CRL1     0.000000       12.0110           0
      6406 MEMB     52       CHL1     C19      CTL3    -0.270000       12.0110           0
      6407 MEMB     52       CHL1     H19A     HAL3     0.900000E-01   1.00800           0
      6408 MEMB     52       CHL1     H19B     HAL3     0.900000E-01   1.00800           0
      6409 MEMB     52       CHL1     H19C     HAL3     0.900000E-01   1.00800           0
      6410 MEMB     52       CHL1     C1       CRL2    -0.180000       12.0110           0
      6411 MEMB     52       CHL1     H1A      HGA2     0.900000E-01   1.00800           0
      6412 MEMB     52       CHL1     H1B      HGA2     0.900000E-01   1.00800           0
      6413 MEMB     52       CHL1     C2       CRL2    -0.180000       12.0110           0
      6414 MEMB     52       CHL1     H2A      HGA2     0.900000E-01   1.00800           0
      6415 MEMB     52       CHL1     H2B      HGA2     0.900000E-01   1.00800           0
      6416 MEMB     52       CHL1     C20      CTL1    -0.900000E-01   12.0110           0
      6417 MEMB     52       CHL1     H20      HAL1     0.900000E-01   1.00800           0
      6418 MEMB     52       CHL1     C21      CTL3    -0.270000       12.0110           0
      6419 MEMB     52       CHL1     H21A     HAL3     0.900000E-01   1.00800           0
      6420 MEMB     52       CHL1     H21B     HAL3     0.900000E-01   1.00800           0
      6421 MEMB     52       CHL1     H21C     HAL3     0.900000E-01   1.00800           0
      6422 MEMB     52       CHL1     C22      CTL2    -0.180000       12.0110           0
      6423 MEMB     52       CHL1     H22A     HAL2     0.900000E-01   1.00800           0
      6424 MEMB     52       CHL1     H22B     HAL2     0.900000E-01   1.00800           0
      6425 MEMB     52       CHL1     C23      CTL2    -0.180000       12.0110           0
      6426 MEMB     52       CHL1     H23A     HAL2     0.900000E-01   1.00800           0
      6427 MEMB     52       CHL1     H23B     HAL2     0.900000E-01   1.00800           0
      6428 MEMB     52       CHL1     C24      CTL2    -0.180000       12.0110           0
      6429 MEMB     52       CHL1     H24A     HAL2     0.900000E-01   1.00800           0
      6430 MEMB     52       CHL1     H24B     HAL2     0.900000E-01   1.00800           0
      6431 MEMB     52       CHL1     C25      CTL1    -0.900000E-01   12.0110           0
      6432 MEMB     52       CHL1     H25      HAL1     0.900000E-01   1.00800           0
      6433 MEMB     52       CHL1     C26      CTL3    -0.270000       12.0110           0
      6434 MEMB     52       CHL1     H26A     HAL3     0.900000E-01   1.00800           0
      6435 MEMB     52       CHL1     H26B     HAL3     0.900000E-01   1.00800           0
      6436 MEMB     52       CHL1     H26C     HAL3     0.900000E-01   1.00800           0
      6437 MEMB     52       CHL1     C27      CTL3    -0.270000       12.0110           0
      6438 MEMB     52       CHL1     H27A     HAL3     0.900000E-01   1.00800           0
      6439 MEMB     52       CHL1     H27B     HAL3     0.900000E-01   1.00800           0
      6440 MEMB     52       CHL1     H27C     HAL3     0.900000E-01   1.00800           0
      6441 MEMB     53       CHL1     C3       CRL1     0.140000       12.0110           0
      6442 MEMB     53       CHL1     H3       HGA1     0.900000E-01   1.00800           0
      6443 MEMB     53       CHL1     O3       OHL     -0.660000       15.9994           0
      6444 MEMB     53       CHL1     H3'      HOL      0.430000       1.00800           0
      6445 MEMB     53       CHL1     C4       CRL2    -0.180000       12.0110           0
      6446 MEMB     53       CHL1     H4A      HGA2     0.900000E-01   1.00800           0
      6447 MEMB     53       CHL1     H4B      HGA2     0.900000E-01   1.00800           0
      6448 MEMB     53       CHL1     C5       CEL1     0.000000       12.0110           0
      6449 MEMB     53       CHL1     C6       CEL1    -0.150000       12.0110           0
      6450 MEMB     53       CHL1     H6       HEL1     0.150000       1.00800           0
      6451 MEMB     53       CHL1     C7       CRL2    -0.180000       12.0110           0
      6452 MEMB     53       CHL1     H7A      HGA2     0.900000E-01   1.00800           0
      6453 MEMB     53       CHL1     H7B      HGA2     0.900000E-01   1.00800           0
      6454 MEMB     53       CHL1     C8       CRL1    -0.900000E-01   12.0110           0
      6455 MEMB     53       CHL1     H8       HGA1     0.900000E-01   1.00800           0
      6456 MEMB     53       CHL1     C14      CRL1    -0.900000E-01   12.0110           0
      6457 MEMB     53       CHL1     H14      HGA1     0.900000E-01   1.00800           0
      6458 MEMB     53       CHL1     C15      CRL2    -0.180000       12.0110           0
      6459 MEMB     53       CHL1     H15A     HGA2     0.900000E-01   1.00800           0
      6460 MEMB     53       CHL1     H15B     HGA2     0.900000E-01   1.00800           0
      6461 MEMB     53       CHL1     C16      CRL2    -0.180000       12.0110           0
      6462 MEMB     53       CHL1     H16A     HGA2     0.900000E-01   1.00800           0
      6463 MEMB     53       CHL1     H16B     HGA2     0.900000E-01   1.00800           0
      6464 MEMB     53       CHL1     C17      CRL1    -0.900000E-01   12.0110           0
      6465 MEMB     53       CHL1     H17      HGA1     0.900000E-01   1.00800           0
      6466 MEMB     53       CHL1     C13      CRL1     0.000000       12.0110           0
      6467 MEMB     53       CHL1     C18      CTL3    -0.270000       12.0110           0
      6468 MEMB     53       CHL1     H18A     HAL3     0.900000E-01   1.00800           0
      6469 MEMB     53       CHL1     H18B     HAL3     0.900000E-01   1.00800           0
      6470 MEMB     53       CHL1     H18C     HAL3     0.900000E-01   1.00800           0
      6471 MEMB     53       CHL1     C12      CRL2    -0.180000       12.0110           0
      6472 MEMB     53       CHL1     H12A     HGA2     0.900000E-01   1.00800           0
      6473 MEMB     53       CHL1     H12B     HGA2     0.900000E-01   1.00800           0
      6474 MEMB     53       CHL1     C11      CRL2    -0.180000       12.0110           0
      6475 MEMB     53       CHL1     H11A     HGA2     0.900000E-01   1.00800           0
      6476 MEMB     53       CHL1     H11B     HGA2     0.900000E-01   1.00800           0
      6477 MEMB     53       CHL1     C9       CRL1    -0.900000E-01   12.0110           0
      6478 MEMB     53       CHL1     H9       HGA1     0.900000E-01   1.00800           0
      6479 MEMB     53       CHL1     C10      CRL1     0.000000       12.0110           0
      6480 MEMB     53       CHL1     C19      CTL3    -0.270000       12.0110           0
      6481 MEMB     53       CHL1     H19A     HAL3     0.900000E-01   1.00800           0
      6482 MEMB     53       CHL1     H19B     HAL3     0.900000E-01   1.00800           0
      6483 MEMB     53       CHL1     H19C     HAL3     0.900000E-01   1.00800           0
      6484 MEMB     53       CHL1     C1       CRL2    -0.180000       12.0110           0
      6485 MEMB     53       CHL1     H1A      HGA2     0.900000E-01   1.00800           0
      6486 MEMB     53       CHL1     H1B      HGA2     0.900000E-01   1.00800           0
      6487 MEMB     53       CHL1     C2       CRL2    -0.180000       12.0110           0
      6488 MEMB     53       CHL1     H2A      HGA2     0.900000E-01   1.00800           0
      6489 MEMB     53       CHL1     H2B      HGA2     0.900000E-01   1.00800           0
      6490 MEMB     53       CHL1     C20      CTL1    -0.900000E-01   12.0110           0
      6491 MEMB     53       CHL1     H20      HAL1     0.900000E-01   1.00800           0
      6492 MEMB     53       CHL1     C21      CTL3    -0.270000       12.0110           0
      6493 MEMB     53       CHL1     H21A     HAL3     0.900000E-01   1.00800           0
      6494 MEMB     53       CHL1     H21B     HAL3     0.900000E-01   1.00800           0
      6495 MEMB     53       CHL1     H21C     HAL3     0.900000E-01   1.00800           0
      6496 MEMB     53       CHL1     C22      CTL2    -0.180000       12.0110           0
      6497 MEMB     53       CHL1     H22A     HAL2     0.900000E-01   1.00800           0
      6498 MEMB     53       CHL1     H22B     HAL2     0.900000E-01   1.00800           0
      6499 MEMB     53       CHL1     C23      CTL2    -0.180000       12.0110           0
      6500 MEMB     53       CHL1     H23A     HAL2     0.900000E-01   1.00800           0
      6501 MEMB     53       CHL1     H23B     HAL2     0.900000E-01   1.00800           0
      6502 MEMB     53       CHL1     C24      CTL2    -0.180000       12.0110           0
      6503 MEMB     53       CHL1     H24A     HAL2     0.900000E-01   1.00800           0
      6504 MEMB     53       CHL1     H24B     HAL2     0.900000E-01   1.00800           0
      6505 MEMB     53       CHL1     C25      CTL1    -0.900000E-01   12.0110           0
      6506 MEMB     53       CHL1     H25      HAL1     0.900000E-01   1.00800           0
      6507 MEMB     53       CHL1     C26      CTL3    -0.270000       12.0110           0
      6508 MEMB     53       CHL1     H26A     HAL3     0.900000E-01   1.00800           0
      6509 MEMB     53       CHL1     H26B     HAL3     0.900000E-01   1.00800           0
      6510 MEMB     53       CHL1     H26C     HAL3     0.900000E-01   1.00800           0
      6511 MEMB     53       CHL1     C27      CTL3    -0.270000       12.0110           0
      6512 MEMB     53       CHL1     H27A     HAL3     0.900000E-01   1.00800           0
      6513 MEMB     53       CHL1     H27B     HAL3     0.900000E-01   1.00800           0
      6514 MEMB     53       CHL1     H27C     HAL3     0.900000E-01   1.00800           0
      6515 MEMB     64       CHL1     C3       CRL1     0.140000       12.0110           0
      6516 MEMB     64       CHL1     H3       HGA1     0.900000E-01   1.00800           0
      6517 MEMB     64       CHL1     O3       OHL     -0.660000       15.9994           0
      6518 MEMB     64       CHL1     H3'      HOL      0.430000       1.00800           0
      6519 MEMB     64       CHL1     C4       CRL2    -0.180000       12.0110           0
      6520 MEMB     64       CHL1     H4A      HGA2     0.900000E-01   1.00800           0
      6521 MEMB     64       CHL1     H4B      HGA2     0.900000E-01   1.00800           0
      6522 MEMB     64       CHL1     C5       CEL1     0.000000       12.0110           0
      6523 MEMB     64       CHL1     C6       CEL1    -0.150000       12.0110           0
      6524 MEMB     64       CHL1     H6       HEL1     0.150000       1.00800           0
      6525 MEMB     64       CHL1     C7       CRL2    -0.180000       12.0110           0
      6526 MEMB     64       CHL1     H7A      HGA2     0.900000E-01   1.00800           0
      6527 MEMB     64       CHL1     H7B      HGA2     0.900000E-01   1.00800           0
      6528 MEMB     64       CHL1     C8       CRL1    -0.900000E-01   12.0110           0
      6529 MEMB     64       CHL1     H8       HGA1     0.900000E-01   1.00800           0
      6530 MEMB     64       CHL1     C14      CRL1    -0.900000E-01   12.0110           0
      6531 MEMB     64       CHL1     H14      HGA1     0.900000E-01   1.00800           0
      6532 MEMB     64       CHL1     C15      CRL2    -0.180000       12.0110           0
      6533 MEMB     64       CHL1     H15A     HGA2     0.900000E-01   1.00800           0
      6534 MEMB     64       CHL1     H15B     HGA2     0.900000E-01   1.00800           0
      6535 MEMB     64       CHL1     C16      CRL2    -0.180000       12.0110           0
      6536 MEMB     64       CHL1     H16A     HGA2     0.900000E-01   1.00800           0
      6537 MEMB     64       CHL1     H16B     HGA2     0.900000E-01   1.00800           0
      6538 MEMB     64       CHL1     C17      CRL1    -0.900000E-01   12.0110           0
      6539 MEMB     64       CHL1     H17      HGA1     0.900000E-01   1.00800           0
      6540 MEMB     64       CHL1     C13      CRL1     0.000000       12.0110           0
      6541 MEMB     64       CHL1     C18      CTL3    -0.270000       12.0110           0
      6542 MEMB     64       CHL1     H18A     HAL3     0.900000E-01   1.00800           0
      6543 MEMB     64       CHL1     H18B     HAL3     0.900000E-01   1.00800           0
      6544 MEMB     64       CHL1     H18C     HAL3     0.900000E-01   1.00800           0
      6545 MEMB     64       CHL1     C12      CRL2    -0.180000       12.0110           0
      6546 MEMB     64       CHL1     H12A     HGA2     0.900000E-01   1.00800           0
      6547 MEMB     64       CHL1     H12B     HGA2     0.900000E-01   1.00800           0
      6548 MEMB     64       CHL1     C11      CRL2    -0.180000       12.0110           0
      6549 MEMB     64       CHL1     H11A     HGA2     0.900000E-01   1.00800           0
      6550 MEMB     64       CHL1     H11B     HGA2     0.900000E-01   1.00800           0
      6551 MEMB     64       CHL1     C9       CRL1    -0.900000E-01   12.0110           0
      6552 MEMB     64       CHL1     H9       HGA1     0.900000E-01   1.00800           0
      6553 MEMB     64       CHL1     C10      CRL1     0.000000       12.0110           0
      6554 MEMB     64       CHL1     C19      CTL3    -0.270000       12.0110           0
      6555 MEMB     64       CHL1     H19A     HAL3     0.900000E-01   1.00800           0
      6556 MEMB     64       CHL1     H19B     HAL3     0.900000E-01   1.00800           0
      6557 MEMB     64       CHL1     H19C     HAL3     0.900000E-01   1.00800           0
      6558 MEMB     64       CHL1     C1       CRL2    -0.180000       12.0110           0
      6559 MEMB     64       CHL1     H1A      HGA2     0.900000E-01   1.00800           0
      6560 MEMB     64       CHL1     H1B      HGA2     0.900000E-01   1.00800           0
      6561 MEMB     64       CHL1     C2       CRL2    -0.180000       12.0110           0
      6562 MEMB     64       CHL1     H2A      HGA2     0.900000E-01   1.00800           0
      6563 MEMB     64       CHL1     H2B      HGA2     0.900000E-01   1.00800           0
      6564 MEMB     64       CHL1     C20      CTL1    -0.900000E-01   12.0110           0
      6565 MEMB     64       CHL1     H20      HAL1     0.900000E-01   1.00800           0
      6566 MEMB     64       CHL1     C21      CTL3    -0.270000       12.0110           0
      6567 MEMB     64       CHL1     H21A     HAL3     0.900000E-01   1.00800           0
      6568 MEMB     64       CHL1     H21B     HAL3     0.900000E-01   1.00800           0
      6569 MEMB     64       CHL1     H21C     HAL3     0.900000E-01   1.00800           0
      6570 MEMB     64       CHL1     C22      CTL2    -0.180000       12.0110           0
      6571 MEMB     64       CHL1     H22A     HAL2     0.900000E-01   1.00800           0
      6572 MEMB     64       CHL1     H22B     HAL2     0.900000E-01   1.00800           0
      6573 MEMB     64       CHL1     C23      CTL2    -0.180000       12.0110           0
      6574 MEMB     64       CHL1     H23A     HAL2     0.900000E-01   1.00800           0
      6575 MEMB     64       CHL1     H23B     HAL2     0.900000E-01   1.00800           0
      6576 MEMB     64       CHL1     C24      CTL2    -0.180000       12.0110           0
      6577 MEMB     64       CHL1     H24A     HAL2     0.900000E-01   1.00800           0
      6578 MEMB     64       CHL1     H24B     HAL2     0.900000E-01   1.00800           0
      6579 MEMB     64       CHL1     C25      CTL1    -0.900000E-01   12.0110           0
      6580 MEMB     64       CHL1     H25      HAL1     0.900000E-01   1.00800           0
      6581 MEMB     64       CHL1     C26      CTL3    -0.270000       12.0110           0
      6582 MEMB     64       CHL1     H26A     HAL3     0.900000E-01   1.00800           0
      6583 MEMB     64       CHL1     H26B     HAL3     0.900000E-01   1.00800           0
      6584 MEMB     64       CHL1     H26C     HAL3     0.900000E-01   1.00800           0
      6585 MEMB     64       CHL1     C27      CTL3    -0.270000       12.0110           0
      6586 MEMB     64       CHL1     H27A     HAL3     0.900000E-01   1.00800           0
      6587 MEMB     64       CHL1     H27B     HAL3     0.900000E-01   1.00800           0
      6588 MEMB     64       CHL1     H27C     HAL3     0.900000E-01   1.00800           0
      6589 MEMB     65       CHL1     C3       CRL1     0.140000       12.0110           0
      6590 MEMB     65       CHL1     H3       HGA1     0.900000E-01   1.00800           0
      6591 MEMB     65       CHL1     O3       OHL     -0.660000       15.9994           0
      6592 MEMB     65       CHL1     H3'      HOL      0.430000       1.00800           0
      6593 MEMB     65       CHL1     C4       CRL2    -0.180000       12.0110           0
      6594 MEMB     65       CHL1     H4A      HGA2     0.900000E-01   1.00800           0
      6595 MEMB     65       CHL1     H4B      HGA2     0.900000E-01   1.00800           0
      6596 MEMB     65       CHL1     C5       CEL1     0.000000       12.0110           0
      6597 MEMB     65       CHL1     C6       CEL1    -0.150000       12.0110           0
      6598 MEMB     65       CHL1     H6       HEL1     0.150000       1.00800           0
      6599 MEMB     65       CHL1     C7       CRL2    -0.180000       12.0110           0
      6600 MEMB     65       CHL1     H7A      HGA2     0.900000E-01   1.00800           0
      6601 MEMB     65       CHL1     H7B      HGA2     0.900000E-01   1.00800           0
      6602 MEMB     65       CHL1     C8       CRL1    -0.900000E-01   12.0110           0
      6603 MEMB     65       CHL1     H8       HGA1     0.900000E-01   1.00800           0
      6604 MEMB     65       CHL1     C14      CRL1    -0.900000E-01   12.0110           0
      6605 MEMB     65       CHL1     H14      HGA1     0.900000E-01   1.00800           0
      6606 MEMB     65       CHL1     C15      CRL2    -0.180000       12.0110           0
      6607 MEMB     65       CHL1     H15A     HGA2     0.900000E-01   1.00800           0
      6608 MEMB     65       CHL1     H15B     HGA2     0.900000E-01   1.00800           0
      6609 MEMB     65       CHL1     C16      CRL2    -0.180000       12.0110           0
      6610 MEMB     65       CHL1     H16A     HGA2     0.900000E-01   1.00800           0
      6611 MEMB     65       CHL1     H16B     HGA2     0.900000E-01   1.00800           0
      6612 MEMB     65       CHL1     C17      CRL1    -0.900000E-01   12.0110           0
      6613 MEMB     65       CHL1     H17      HGA1     0.900000E-01   1.00800           0
      6614 MEMB     65       CHL1     C13      CRL1     0.000000       12.0110           0
      6615 MEMB     65       CHL1     C18      CTL3    -0.270000       12.0110           0
      6616 MEMB     65       CHL1     H18A     HAL3     0.900000E-01   1.00800           0
      6617 MEMB     65       CHL1     H18B     HAL3     0.900000E-01   1.00800           0
      6618 MEMB     65       CHL1     H18C     HAL3     0.900000E-01   1.00800           0
      6619 MEMB     65       CHL1     C12      CRL2    -0.180000       12.0110           0
      6620 MEMB     65       CHL1     H12A     HGA2     0.900000E-01   1.00800           0
      6621 MEMB     65       CHL1     H12B     HGA2     0.900000E-01   1.00800           0
      6622 MEMB     65       CHL1     C11      CRL2    -0.180000       12.0110           0
      6623 MEMB     65       CHL1     H11A     HGA2     0.900000E-01   1.00800           0
      6624 MEMB     65       CHL1     H11B     HGA2     0.900000E-01   1.00800           0
      6625 MEMB     65       CHL1     C9       CRL1    -0.900000E-01   12.0110           0
      6626 MEMB     65       CHL1     H9       HGA1     0.900000E-01   1.00800           0
      6627 MEMB     65       CHL1     C10      CRL1     0.000000       12.0110           0
      6628 MEMB     65       CHL1     C19      CTL3    -0.270000       12.0110           0
      6629 MEMB     65       CHL1     H19A     HAL3     0.900000E-01   1.00800           0
      6630 MEMB     65       CHL1     H19B     HAL3     0.900000E-01   1.00800           0
      6631 MEMB     65       CHL1     H19C     HAL3     0.900000E-01   1.00800           0
      6632 MEMB     65       CHL1     C1       CRL2    -0.180000       12.0110           0
      6633 MEMB     65       CHL1     H1A      HGA2     0.900000E-01   1.00800           0
      6634 MEMB     65       CHL1     H1B      HGA2     0.900000E-01   1.00800           0
      6635 MEMB     65       CHL1     C2       CRL2    -0.180000       12.0110           0
      6636 MEMB     65       CHL1     H2A      HGA2     0.900000E-01   1.00800           0
      6637 MEMB     65       CHL1     H2B      HGA2     0.900000E-01   1.00800           0
      6638 MEMB     65       CHL1     C20      CTL1    -0.900000E-01   12.0110           0
      6639 MEMB     65       CHL1     H20      HAL1     0.900000E-01   1.00800           0
      6640 MEMB     65       CHL1     C21      CTL3    -0.270000       12.0110           0
      6641 MEMB     65       CHL1     H21A     HAL3     0.900000E-01   1.00800           0
      6642 MEMB     65       CHL1     H21B     HAL3     0.900000E-01   1.00800           0
      6643 MEMB     65       CHL1     H21C     HAL3     0.900000E-01   1.00800           0
      6644 MEMB     65       CHL1     C22      CTL2    -0.180000       12.0110           0
      6645 MEMB     65       CHL1     H22A     HAL2     0.900000E-01   1.00800           0
      6646 MEMB     65       CHL1     H22B     HAL2     0.900000E-01   1.00800           0
      6647 MEMB     65       CHL1     C23      CTL2    -0.180000       12.0110           0
      6648 MEMB     65       CHL1     H23A     HAL2     0.900000E-01   1.00800           0
      6649 MEMB     65       CHL1     H23B     HAL2     0.900000E-01   1.00800           0
      6650 MEMB     65       CHL1     C24      CTL2    -0.180000       12.0110           0
      6651 MEMB     65       CHL1     H24A     HAL2     0.900000E-01   1.00800           0
      6652 MEMB     65       CHL1     H24B     HAL2     0.900000E-01   1.00800           0
      6653 MEMB     65       CHL1     C25      CTL1    -0.900000E-01   12.0110           0
      6654 MEMB     65       CHL1     H25      HAL1     0.900000E-01   1.00800           0
      6655 MEMB     65       CHL1     C26      CTL3    -0.270000       12.0110           0
      6656 MEMB     65       CHL1     H26A     HAL3     0.900000E-01   1.00800           0
      6657 MEMB     65       CHL1     H26B     HAL3     0.900000E-01   1.00800           0
      6658 MEMB     65       CHL1     H26C     HAL3     0.900000E-01   1.00800           0
      6659 MEMB     65       CHL1     C27      CTL3    -0.270000       12.0110           0
      6660 MEMB     65       CHL1     H27A     HAL3     0.900000E-01   1.00800           0
      6661 MEMB     65       CHL1     H27B     HAL3     0.900000E-01   1.00800           0
      6662 MEMB     65       CHL1     H27C     HAL3     0.900000E-01   1.00800           0
      6663 MEMB     66       CHL1     C3       CRL1     0.140000       12.0110           0
      6664 MEMB     66       CHL1     H3       HGA1     0.900000E-01   1.00800           0
      6665 MEMB     66       CHL1     O3       OHL     -0.660000       15.9994           0
      6666 MEMB     66       CHL1     H3'      HOL      0.430000       1.00800           0
      6667 MEMB     66       CHL1     C4       CRL2    -0.180000       12.0110           0
      6668 MEMB     66       CHL1     H4A      HGA2     0.900000E-01   1.00800           0
      6669 MEMB     66       CHL1     H4B      HGA2     0.900000E-01   1.00800           0
      6670 MEMB     66       CHL1     C5       CEL1     0.000000       12.0110           0
      6671 MEMB     66       CHL1     C6       CEL1    -0.150000       12.0110           0
      6672 MEMB     66       CHL1     H6       HEL1     0.150000       1.00800           0
      6673 MEMB     66       CHL1     C7       CRL2    -0.180000       12.0110           0
      6674 MEMB     66       CHL1     H7A      HGA2     0.900000E-01   1.00800           0
      6675 MEMB     66       CHL1     H7B      HGA2     0.900000E-01   1.00800           0
      6676 MEMB     66       CHL1     C8       CRL1    -0.900000E-01   12.0110           0
      6677 MEMB     66       CHL1     H8       HGA1     0.900000E-01   1.00800           0
      6678 MEMB     66       CHL1     C14      CRL1    -0.900000E-01   12.0110           0
      6679 MEMB     66       CHL1     H14      HGA1     0.900000E-01   1.00800           0
      6680 MEMB     66       CHL1     C15      CRL2    -0.180000       12.0110           0
      6681 MEMB     66       CHL1     H15A     HGA2     0.900000E-01   1.00800           0
      6682 MEMB     66       CHL1     H15B     HGA2     0.900000E-01   1.00800           0
      6683 MEMB     66       CHL1     C16      CRL2    -0.180000       12.0110           0
      6684 MEMB     66       CHL1     H16A     HGA2     0.900000E-01   1.00800           0
      6685 MEMB     66       CHL1     H16B     HGA2     0.900000E-01   1.00800           0
      6686 MEMB     66       CHL1     C17      CRL1    -0.900000E-01   12.0110           0
      6687 MEMB     66       CHL1     H17      HGA1     0.900000E-01   1.00800           0
      6688 MEMB     66       CHL1     C13      CRL1     0.000000       12.0110           0
      6689 MEMB     66       CHL1     C18      CTL3    -0.270000       12.0110           0
      6690 MEMB     66       CHL1     H18A     HAL3     0.900000E-01   1.00800           0
      6691 MEMB     66       CHL1     H18B     HAL3     0.900000E-01   1.00800           0
      6692 MEMB     66       CHL1     H18C     HAL3     0.900000E-01   1.00800           0
      6693 MEMB     66       CHL1     C12      CRL2    -0.180000       12.0110           0
      6694 MEMB     66       CHL1     H12A     HGA2     0.900000E-01   1.00800           0
      6695 MEMB     66       CHL1     H12B     HGA2     0.900000E-01   1.00800           0
      6696 MEMB     66       CHL1     C11      CRL2    -0.180000       12.0110           0
      6697 MEMB     66       CHL1     H11A     HGA2     0.900000E-01   1.00800           0
      6698 MEMB     66       CHL1     H11B     HGA2     0.900000E-01   1.00800           0
      6699 MEMB     66       CHL1     C9       CRL1    -0.900000E-01   12.0110           0
      6700 MEMB     66       CHL1     H9       HGA1     0.900000E-01   1.00800           0
      6701 MEMB     66       CHL1     C10      CRL1     0.000000       12.0110           0
      6702 MEMB     66       CHL1     C19      CTL3    -0.270000       12.0110           0
      6703 MEMB     66       CHL1     H19A     HAL3     0.900000E-01   1.00800           0
      6704 MEMB     66       CHL1     H19B     HAL3     0.900000E-01   1.00800           0
      6705 MEMB     66       CHL1     H19C     HAL3     0.900000E-01   1.00800           0
      6706 MEMB     66       CHL1     C1       CRL2    -0.180000       12.0110           0
      6707 MEMB     66       CHL1     H1A      HGA2     0.900000E-01   1.00800           0
      6708 MEMB     66       CHL1     H1B      HGA2     0.900000E-01   1.00800           0
      6709 MEMB     66       CHL1     C2       CRL2    -0.180000       12.0110           0
      6710 MEMB     66       CHL1     H2A      HGA2     0.900000E-01   1.00800           0
      6711 MEMB     66       CHL1     H2B      HGA2     0.900000E-01   1.00800           0
      6712 MEMB     66       CHL1     C20      CTL1    -0.900000E-01   12.0110           0
      6713 MEMB     66       CHL1     H20      HAL1     0.900000E-01   1.00800           0
      6714 MEMB     66       CHL1     C21      CTL3    -0.270000       12.0110           0
      6715 MEMB     66       CHL1     H21A     HAL3     0.900000E-01   1.00800           0
      6716 MEMB     66       CHL1     H21B     HAL3     0.900000E-01   1.00800           0
      6717 MEMB     66       CHL1     H21C     HAL3     0.900000E-01   1.00800           0
      6718 MEMB     66       CHL1     C22      CTL2    -0.180000       12.0110           0
      6719 MEMB     66       CHL1     H22A     HAL2     0.900000E-01   1.00800           0
      6720 MEMB     66       CHL1     H22B     HAL2     0.900000E-01   1.00800           0
      6721 MEMB     66       CHL1     C23      CTL2    -0.180000       12.0110           0
      6722 MEMB     66       CHL1     H23A     HAL2     0.900000E-01   1.00800           0
      6723 MEMB     66       CHL1     H23B     HAL2     0.900000E-01   1.00800           0
      6724 MEMB     66       CHL1     C24      CTL2    -0.180000       12.0110           0
      6725 MEMB     66       CHL1     H24A     HAL2     0.900000E-01   1.00800           0
      6726 MEMB     66       CHL1     H24B     HAL2     0.900000E-01   1.00800           0
      6727 MEMB     66       CHL1     C25      CTL1    -0.900000E-01   12.0110           0
      6728 MEMB     66       CHL1     H25      HAL1     0.900000E-01   1.00800           0
      6729 MEMB     66       CHL1     C26      CTL3    -0.270000       12.0110           0
      6730 MEMB     66       CHL1     H26A     HAL3     0.900000E-01   1.00800           0
      6731 MEMB     66       CHL1     H26B     HAL3     0.900000E-01   1.00800           0
      6732 MEMB     66       CHL1     H26C     HAL3     0.900000E-01   1.00800           0
      6733 MEMB     66       CHL1     C27      CTL3    -0.270000       12.0110           0
      6734 MEMB     66       CHL1     H27A     HAL3     0.900000E-01   1.00800           0
      6735 MEMB     66       CHL1     H27B     HAL3     0.900000E-01   1.00800           0
      6736 MEMB     66       CHL1     H27C     HAL3     0.900000E-01   1.00800           0
      6737 MEMB     71       CHL1     C3       CRL1     0.140000       12.0110           0
      6738 MEMB     71       CHL1     H3       HGA1     0.900000E-01   1.00800           0
      6739 MEMB     71       CHL1     O3       OHL     -0.660000       15.9994           0
      6740 MEMB     71       CHL1     H3'      HOL      0.430000       1.00800           0
      6741 MEMB     71       CHL1     C4       CRL2    -0.180000       12.0110           0
      6742 MEMB     71       CHL1     H4A      HGA2     0.900000E-01   1.00800           0
      6743 MEMB     71       CHL1     H4B      HGA2     0.900000E-01   1.00800           0
      6744 MEMB     71       CHL1     C5       CEL1     0.000000       12.0110           0
      6745 MEMB     71       CHL1     C6       CEL1    -0.150000       12.0110           0
      6746 MEMB     71       CHL1     H6       HEL1     0.150000       1.00800           0
      6747 MEMB     71       CHL1     C7       CRL2    -0.180000       12.0110           0
      6748 MEMB     71       CHL1     H7A      HGA2     0.900000E-01   1.00800           0
      6749 MEMB     71       CHL1     H7B      HGA2     0.900000E-01   1.00800           0
      6750 MEMB     71       CHL1     C8       CRL1    -0.900000E-01   12.0110           0
      6751 MEMB     71       CHL1     H8       HGA1     0.900000E-01   1.00800           0
      6752 MEMB     71       CHL1     C14      CRL1    -0.900000E-01   12.0110           0
      6753 MEMB     71       CHL1     H14      HGA1     0.900000E-01   1.00800           0
      6754 MEMB     71       CHL1     C15      CRL2    -0.180000       12.0110           0
      6755 MEMB     71       CHL1     H15A     HGA2     0.900000E-01   1.00800           0
      6756 MEMB     71       CHL1     H15B     HGA2     0.900000E-01   1.00800           0
      6757 MEMB     71       CHL1     C16      CRL2    -0.180000       12.0110           0
      6758 MEMB     71       CHL1     H16A     HGA2     0.900000E-01   1.00800           0
      6759 MEMB     71       CHL1     H16B     HGA2     0.900000E-01   1.00800           0
      6760 MEMB     71       CHL1     C17      CRL1    -0.900000E-01   12.0110           0
      6761 MEMB     71       CHL1     H17      HGA1     0.900000E-01   1.00800           0
      6762 MEMB     71       CHL1     C13      CRL1     0.000000       12.0110           0
      6763 MEMB     71       CHL1     C18      CTL3    -0.270000       12.0110           0
      6764 MEMB     71       CHL1     H18A     HAL3     0.900000E-01   1.00800           0
      6765 MEMB     71       CHL1     H18B     HAL3     0.900000E-01   1.00800           0
      6766 MEMB     71       CHL1     H18C     HAL3     0.900000E-01   1.00800           0
      6767 MEMB     71       CHL1     C12      CRL2    -0.180000       12.0110           0
      6768 MEMB     71       CHL1     H12A     HGA2     0.900000E-01   1.00800           0
      6769 MEMB     71       CHL1     H12B     HGA2     0.900000E-01   1.00800           0
      6770 MEMB     71       CHL1     C11      CRL2    -0.180000       12.0110           0
      6771 MEMB     71       CHL1     H11A     HGA2     0.900000E-01   1.00800           0
      6772 MEMB     71       CHL1     H11B     HGA2     0.900000E-01   1.00800           0
      6773 MEMB     71       CHL1     C9       CRL1    -0.900000E-01   12.0110           0
      6774 MEMB     71       CHL1     H9       HGA1     0.900000E-01   1.00800           0
      6775 MEMB     71       CHL1     C10      CRL1     0.000000       12.0110           0
      6776 MEMB     71       CHL1     C19      CTL3    -0.270000       12.0110           0
      6777 MEMB     71       CHL1     H19A     HAL3     0.900000E-01   1.00800           0
      6778 MEMB     71       CHL1     H19B     HAL3     0.900000E-01   1.00800           0
      6779 MEMB     71       CHL1     H19C     HAL3     0.900000E-01   1.00800           0
      6780 MEMB     71       CHL1     C1       CRL2    -0.180000       12.0110           0
      6781 MEMB     71       CHL1     H1A      HGA2     0.900000E-01   1.00800           0
      6782 MEMB     71       CHL1     H1B      HGA2     0.900000E-01   1.00800           0
      6783 MEMB     71       CHL1     C2       CRL2    -0.180000       12.0110           0
      6784 MEMB     71       CHL1     H2A      HGA2     0.900000E-01   1.00800           0
      6785 MEMB     71       CHL1     H2B      HGA2     0.900000E-01   1.00800           0
      6786 MEMB     71       CHL1     C20      CTL1    -0.900000E-01   12.0110           0
      6787 MEMB     71       CHL1     H20      HAL1     0.900000E-01   1.00800           0
      6788 MEMB     71       CHL1     C21      CTL3    -0.270000       12.0110           0
      6789 MEMB     71       CHL1     H21A     HAL3     0.900000E-01   1.00800           0
      6790 MEMB     71       CHL1     H21B     HAL3     0.900000E-01   1.00800           0
      6791 MEMB     71       CHL1     H21C     HAL3     0.900000E-01   1.00800           0
      6792 MEMB     71       CHL1     C22      CTL2    -0.180000       12.0110           0
      6793 MEMB     71       CHL1     H22A     HAL2     0.900000E-01   1.00800           0
      6794 MEMB     71       CHL1     H22B     HAL2     0.900000E-01   1.00800           0
      6795 MEMB     71       CHL1     C23      CTL2    -0.180000       12.0110           0
      6796 MEMB     71       CHL1     H23A     HAL2     0.900000E-01   1.00800           0
      6797 MEMB     71       CHL1     H23B     HAL2     0.900000E-01   1.00800           0
      6798 MEMB     71       CHL1     C24      CTL2    -0.180000       12.0110           0
      6799 MEMB     71       CHL1     H24A     HAL2     0.900000E-01   1.00800           0
      6800 MEMB     71       CHL1     H24B     HAL2     0.900000E-01   1.00800           0
      6801 MEMB     71       CHL1     C25      CTL1    -0.900000E-01   12.0110           0
      6802 MEMB     71       CHL1     H25      HAL1     0.900000E-01   1.00800           0
      6803 MEMB     71       CHL1     C26      CTL3    -0.270000       12.0110           0
      6804 MEMB     71       CHL1     H26A     HAL3     0.900000E-01   1.00800           0
      6805 MEMB     71       CHL1     H26B     HAL3     0.900000E-01   1.00800           0
      6806 MEMB     71       CHL1     H26C     HAL3     0.900000E-01   1.00800           0
      6807 MEMB     71       CHL1     C27      CTL3    -0.270000       12.0110           0
      6808 MEMB     71       CHL1     H27A     HAL3     0.900000E-01   1.00800           0
      6809 MEMB     71       CHL1     H27B     HAL3     0.900000E-01   1.00800           0
      6810 MEMB     71       CHL1     H27C     HAL3     0.900000E-01   1.00800           0
      6811 MEMB     79       CHL1     C3       CRL1     0.140000       12.0110           0
      6812 MEMB     79       CHL1     H3       HGA1     0.900000E-01   1.00800           0
      6813 MEMB     79       CHL1     O3       OHL     -0.660000       15.9994           0
      6814 MEMB     79       CHL1     H3'      HOL      0.430000       1.00800           0
      6815 MEMB     79       CHL1     C4       CRL2    -0.180000       12.0110           0
      6816 MEMB     79       CHL1     H4A      HGA2     0.900000E-01   1.00800           0
      6817 MEMB     79       CHL1     H4B      HGA2     0.900000E-01   1.00800           0
      6818 MEMB     79       CHL1     C5       CEL1     0.000000       12.0110           0
      6819 MEMB     79       CHL1     C6       CEL1    -0.150000       12.0110           0
      6820 MEMB     79       CHL1     H6       HEL1     0.150000       1.00800           0
      6821 MEMB     79       CHL1     C7       CRL2    -0.180000       12.0110           0
      6822 MEMB     79       CHL1     H7A      HGA2     0.900000E-01   1.00800           0
      6823 MEMB     79       CHL1     H7B      HGA2     0.900000E-01   1.00800           0
      6824 MEMB     79       CHL1     C8       CRL1    -0.900000E-01   12.0110           0
      6825 MEMB     79       CHL1     H8       HGA1     0.900000E-01   1.00800           0
      6826 MEMB     79       CHL1     C14      CRL1    -0.900000E-01   12.0110           0
      6827 MEMB     79       CHL1     H14      HGA1     0.900000E-01   1.00800           0
      6828 MEMB     79       CHL1     C15      CRL2    -0.180000       12.0110           0
      6829 MEMB     79       CHL1     H15A     HGA2     0.900000E-01   1.00800           0
      6830 MEMB     79       CHL1     H15B     HGA2     0.900000E-01   1.00800           0
      6831 MEMB     79       CHL1     C16      CRL2    -0.180000       12.0110           0
      6832 MEMB     79       CHL1     H16A     HGA2     0.900000E-01   1.00800           0
      6833 MEMB     79       CHL1     H16B     HGA2     0.900000E-01   1.00800           0
      6834 MEMB     79       CHL1     C17      CRL1    -0.900000E-01   12.0110           0
      6835 MEMB     79       CHL1     H17      HGA1     0.900000E-01   1.00800           0
      6836 MEMB     79       CHL1     C13      CRL1     0.000000       12.0110           0
      6837 MEMB     79       CHL1     C18      CTL3    -0.270000       12.0110           0
      6838 MEMB     79       CHL1     H18A     HAL3     0.900000E-01   1.00800           0
      6839 MEMB     79       CHL1     H18B     HAL3     0.900000E-01   1.00800           0
      6840 MEMB     79       CHL1     H18C     HAL3     0.900000E-01   1.00800           0
      6841 MEMB     79       CHL1     C12      CRL2    -0.180000       12.0110           0
      6842 MEMB     79       CHL1     H12A     HGA2     0.900000E-01   1.00800           0
      6843 MEMB     79       CHL1     H12B     HGA2     0.900000E-01   1.00800           0
      6844 MEMB     79       CHL1     C11      CRL2    -0.180000       12.0110           0
      6845 MEMB     79       CHL1     H11A     HGA2     0.900000E-01   1.00800           0
      6846 MEMB     79       CHL1     H11B     HGA2     0.900000E-01   1.00800           0
      6847 MEMB     79       CHL1     C9       CRL1    -0.900000E-01   12.0110           0
      6848 MEMB     79       CHL1     H9       HGA1     0.900000E-01   1.00800           0
      6849 MEMB     79       CHL1     C10      CRL1     0.000000       12.0110           0
      6850 MEMB     79       CHL1     C19      CTL3    -0.270000       12.0110           0
      6851 MEMB     79       CHL1     H19A     HAL3     0.900000E-01   1.00800           0
      6852 MEMB     79       CHL1     H19B     HAL3     0.900000E-01   1.00800           0
      6853 MEMB     79       CHL1     H19C     HAL3     0.900000E-01   1.00800           0
      6854 MEMB     79       CHL1     C1       CRL2    -0.180000       12.0110           0
      6855 MEMB     79       CHL1     H1A      HGA2     0.900000E-01   1.00800           0
      6856 MEMB     79       CHL1     H1B      HGA2     0.900000E-01   1.00800           0
      6857 MEMB     79       CHL1     C2       CRL2    -0.180000       12.0110           0
      6858 MEMB     79       CHL1     H2A      HGA2     0.900000E-01   1.00800           0
      6859 MEMB     79       CHL1     H2B      HGA2     0.900000E-01   1.00800           0
      6860 MEMB     79       CHL1     C20      CTL1    -0.900000E-01   12.0110           0
      6861 MEMB     79       CHL1     H20      HAL1     0.900000E-01   1.00800           0
      6862 MEMB     79       CHL1     C21      CTL3    -0.270000       12.0110           0
      6863 MEMB     79       CHL1     H21A     HAL3     0.900000E-01   1.00800           0
      6864 MEMB     79       CHL1     H21B     HAL3     0.900000E-01   1.00800           0
      6865 MEMB     79       CHL1     H21C     HAL3     0.900000E-01   1.00800           0
      6866 MEMB     79       CHL1     C22      CTL2    -0.180000       12.0110           0
      6867 MEMB     79       CHL1     H22A     HAL2     0.900000E-01   1.00800           0
      6868 MEMB     79       CHL1     H22B     HAL2     0.900000E-01   1.00800           0
      6869 MEMB     79       CHL1     C23      CTL2    -0.180000       12.0110           0
      6870 MEMB     79       CHL1     H23A     HAL2     0.900000E-01   1.00800           0
      6871 MEMB     79       CHL1     H23B     HAL2     0.900000E-01   1.00800           0
      6872 MEMB     79       CHL1     C24      CTL2    -0.180000       12.0110           0
      6873 MEMB     79       CHL1     H24A     HAL2     0.900000E-01   1.00800           0
      6874 MEMB     79       CHL1     H24B     HAL2     0.900000E-01   1.00800           0
      6875 MEMB     79       CHL1     C25      CTL1    -0.900000E-01   12.0110           0
      6876 MEMB     79       CHL1     H25      HAL1     0.900000E-01   1.00800           0
      6877 MEMB     79       CHL1     C26      CTL3    -0.270000       12.0110           0
      6878 MEMB     79       CHL1     H26A     HAL3     0.900000E-01   1.00800           0
      6879 MEMB     79       CHL1     H26B     HAL3     0.900000E-01   1.00800           0
      6880 MEMB     79       CHL1     H26C     HAL3     0.900000E-01   1.00800           0
      6881 MEMB     79       CHL1     C27      CTL3    -0.270000       12.0110           0
      6882 MEMB     79       CHL1     H27A     HAL3     0.900000E-01   1.00800           0
      6883 MEMB     79       CHL1     H27B     HAL3     0.900000E-01   1.00800           0
      6884 MEMB     79       CHL1     H27C     HAL3     0.900000E-01   1.00800           0
      6885 MEMB     80       CHL1     C3       CRL1     0.140000       12.0110           0
      6886 MEMB     80       CHL1     H3       HGA1     0.900000E-01   1.00800           0
      6887 MEMB     80       CHL1     O3       OHL     -0.660000       15.9994           0
      6888 MEMB     80       CHL1     H3'      HOL      0.430000       1.00800           0
      6889 MEMB     80       CHL1     C4       CRL2    -0.180000       12.0110           0
      6890 MEMB     80       CHL1     H4A      HGA2     0.900000E-01   1.00800           0
      6891 MEMB     80       CHL1     H4B      HGA2     0.900000E-01   1.00800           0
      6892 MEMB     80       CHL1     C5       CEL1     0.000000       12.0110           0
      6893 MEMB     80       CHL1     C6       CEL1    -0.150000       12.0110           0
      6894 MEMB     80       CHL1     H6       HEL1     0.150000       1.00800           0
      6895 MEMB     80       CHL1     C7       CRL2    -0.180000       12.0110           0
      6896 MEMB     80       CHL1     H7A      HGA2     0.900000E-01   1.00800           0
      6897 MEMB     80       CHL1     H7B      HGA2     0.900000E-01   1.00800           0
      6898 MEMB     80       CHL1     C8       CRL1    -0.900000E-01   12.0110           0
      6899 MEMB     80       CHL1     H8       HGA1     0.900000E-01   1.00800           0
      6900 MEMB     80       CHL1     C14      CRL1    -0.900000E-01   12.0110           0
      6901 MEMB     80       CHL1     H14      HGA1     0.900000E-01   1.00800           0
      6902 MEMB     80       CHL1     C15      CRL2    -0.180000       12.0110           0
      6903 MEMB     80       CHL1     H15A     HGA2     0.900000E-01   1.00800           0
      6904 MEMB     80       CHL1     H15B     HGA2     0.900000E-01   1.00800           0
      6905 MEMB     80       CHL1     C16      CRL2    -0.180000       12.0110           0
      6906 MEMB     80       CHL1     H16A     HGA2     0.900000E-01   1.00800           0
      6907 MEMB     80       CHL1     H16B     HGA2     0.900000E-01   1.00800           0
      6908 MEMB     80       CHL1     C17      CRL1    -0.900000E-01   12.0110           0
      6909 MEMB     80       CHL1     H17      HGA1     0.900000E-01   1.00800           0
      6910 MEMB     80       CHL1     C13      CRL1     0.000000       12.0110           0
      6911 MEMB     80       CHL1     C18      CTL3    -0.270000       12.0110           0
      6912 MEMB     80       CHL1     H18A     HAL3     0.900000E-01   1.00800           0
      6913 MEMB     80       CHL1     H18B     HAL3     0.900000E-01   1.00800           0
      6914 MEMB     80       CHL1     H18C     HAL3     0.900000E-01   1.00800           0
      6915 MEMB     80       CHL1     C12      CRL2    -0.180000       12.0110           0
      6916 MEMB     80       CHL1     H12A     HGA2     0.900000E-01   1.00800           0
      6917 MEMB     80       CHL1     H12B     HGA2     0.900000E-01   1.00800           0
      6918 MEMB     80       CHL1     C11      CRL2    -0.180000       12.0110           0
      6919 MEMB     80       CHL1     H11A     HGA2     0.900000E-01   1.00800           0
      6920 MEMB     80       CHL1     H11B     HGA2     0.900000E-01   1.00800           0
      6921 MEMB     80       CHL1     C9       CRL1    -0.900000E-01   12.0110           0
      6922 MEMB     80       CHL1     H9       HGA1     0.900000E-01   1.00800           0
      6923 MEMB     80       CHL1     C10      CRL1     0.000000       12.0110           0
      6924 MEMB     80       CHL1     C19      CTL3    -0.270000       12.0110           0
      6925 MEMB     80       CHL1     H19A     HAL3     0.900000E-01   1.00800           0
      6926 MEMB     80       CHL1     H19B     HAL3     0.900000E-01   1.00800           0
      6927 MEMB     80       CHL1     H19C     HAL3     0.900000E-01   1.00800           0
      6928 MEMB     80       CHL1     C1       CRL2    -0.180000       12.0110           0
      6929 MEMB     80       CHL1     H1A      HGA2     0.900000E-01   1.00800           0
      6930 MEMB     80       CHL1     H1B      HGA2     0.900000E-01   1.00800           0
      6931 MEMB     80       CHL1     C2       CRL2    -0.180000       12.0110           0
      6932 MEMB     80       CHL1     H2A      HGA2     0.900000E-01   1.00800           0
      6933 MEMB     80       CHL1     H2B      HGA2     0.900000E-01   1.00800           0
      6934 MEMB     80       CHL1     C20      CTL1    -0.900000E-01   12.0110           0
      6935 MEMB     80       CHL1     H20      HAL1     0.900000E-01   1.00800           0
      6936 MEMB     80       CHL1     C21      CTL3    -0.270000       12.0110           0
      6937 MEMB     80       CHL1     H21A     HAL3     0.900000E-01   1.00800           0
      6938 MEMB     80       CHL1     H21B     HAL3     0.900000E-01   1.00800           0
      6939 MEMB     80       CHL1     H21C     HAL3     0.900000E-01   1.00800           0
      6940 MEMB     80       CHL1     C22      CTL2    -0.180000       12.0110           0
      6941 MEMB     80       CHL1     H22A     HAL2     0.900000E-01   1.00800           0
      6942 MEMB     80       CHL1     H22B     HAL2     0.900000E-01   1.00800           0
      6943 MEMB     80       CHL1     C23      CTL2    -0.180000       12.0110           0
      6944 MEMB     80       CHL1     H23A     HAL2     0.900000E-01   1.00800           0
      6945 MEMB     80       CHL1     H23B     HAL2     0.900000E-01   1.00800           0
      6946 MEMB     80       CHL1     C24      CTL2    -0.180000       12.0110           0
      6947 MEMB     80       CHL1     H24A     HAL2     0.900000E-01   1.00800           0
      6948 MEMB     80       CHL1     H24B     HAL2     0.900000E-01   1.00800           0
      6949 MEMB     80       CHL1     C25      CTL1    -0.900000E-01   12.0110           0
      6950 MEMB     80       CHL1     H25      HAL1     0.900000E-01   1.00800           0
      6951 MEMB     80       CHL1     C26      CTL3    -0.270000       12.0110           0
      6952 MEMB     80       CHL1     H26A     HAL3     0.900000E-01   1.00800           0
      6953 MEMB     80       CHL1     H26B     HAL3     0.900000E-01   1.00800           0
      6954 MEMB     80       CHL1     H26C     HAL3     0.900000E-01   1.00800           0
      6955 MEMB     80       CHL1     C27      CTL3    -0.270000       12.0110           0
      6956 MEMB     80       CHL1     H27A     HAL3     0.900000E-01   1.00800           0
      6957 MEMB     80       CHL1     H27B     HAL3     0.900000E-01   1.00800           0
      6958 MEMB     80       CHL1     H27C     HAL3     0.900000E-01   1.00800           0
      6959 MEMB     82       CHL1     C3       CRL1     0.140000       12.0110           0
      6960 MEMB     82       CHL1     H3       HGA1     0.900000E-01   1.00800           0
      6961 MEMB     82       CHL1     O3       OHL     -0.660000       15.9994           0
      6962 MEMB     82       CHL1     H3'      HOL      0.430000       1.00800           0
      6963 MEMB     82       CHL1     C4       CRL2    -0.180000       12.0110           0
      6964 MEMB     82       CHL1     H4A      HGA2     0.900000E-01   1.00800           0
      6965 MEMB     82       CHL1     H4B      HGA2     0.900000E-01   1.00800           0
      6966 MEMB     82       CHL1     C5       CEL1     0.000000       12.0110           0
      6967 MEMB     82       CHL1     C6       CEL1    -0.150000       12.0110           0
      6968 MEMB     82       CHL1     H6       HEL1     0.150000       1.00800           0
      6969 MEMB     82       CHL1     C7       CRL2    -0.180000       12.0110           0
      6970 MEMB     82       CHL1     H7A      HGA2     0.900000E-01   1.00800           0
      6971 MEMB     82       CHL1     H7B      HGA2     0.900000E-01   1.00800           0
      6972 MEMB     82       CHL1     C8       CRL1    -0.900000E-01   12.0110           0
      6973 MEMB     82       CHL1     H8       HGA1     0.900000E-01   1.00800           0
      6974 MEMB     82       CHL1     C14      CRL1    -0.900000E-01   12.0110           0
      6975 MEMB     82       CHL1     H14      HGA1     0.900000E-01   1.00800           0
      6976 MEMB     82       CHL1     C15      CRL2    -0.180000       12.0110           0
      6977 MEMB     82       CHL1     H15A     HGA2     0.900000E-01   1.00800           0
      6978 MEMB     82       CHL1     H15B     HGA2     0.900000E-01   1.00800           0
      6979 MEMB     82       CHL1     C16      CRL2    -0.180000       12.0110           0
      6980 MEMB     82       CHL1     H16A     HGA2     0.900000E-01   1.00800           0
      6981 MEMB     82       CHL1     H16B     HGA2     0.900000E-01   1.00800           0
      6982 MEMB     82       CHL1     C17      CRL1    -0.900000E-01   12.0110           0
      6983 MEMB     82       CHL1     H17      HGA1     0.900000E-01   1.00800           0
      6984 MEMB     82       CHL1     C13      CRL1     0.000000       12.0110           0
      6985 MEMB     82       CHL1     C18      CTL3    -0.270000       12.0110           0
      6986 MEMB     82       CHL1     H18A     HAL3     0.900000E-01   1.00800           0
      6987 MEMB     82       CHL1     H18B     HAL3     0.900000E-01   1.00800           0
      6988 MEMB     82       CHL1     H18C     HAL3     0.900000E-01   1.00800           0
      6989 MEMB     82       CHL1     C12      CRL2    -0.180000       12.0110           0
      6990 MEMB     82       CHL1     H12A     HGA2     0.900000E-01   1.00800           0
      6991 MEMB     82       CHL1     H12B     HGA2     0.900000E-01   1.00800           0
      6992 MEMB     82       CHL1     C11      CRL2    -0.180000       12.0110           0
      6993 MEMB     82       CHL1     H11A     HGA2     0.900000E-01   1.00800           0
      6994 MEMB     82       CHL1     H11B     HGA2     0.900000E-01   1.00800           0
      6995 MEMB     82       CHL1     C9       CRL1    -0.900000E-01   12.0110           0
      6996 MEMB     82       CHL1     H9       HGA1     0.900000E-01   1.00800           0
      6997 MEMB     82       CHL1     C10      CRL1     0.000000       12.0110           0
      6998 MEMB     82       CHL1     C19      CTL3    -0.270000       12.0110           0
      6999 MEMB     82       CHL1     H19A     HAL3     0.900000E-01   1.00800           0
      7000 MEMB     82       CHL1     H19B     HAL3     0.900000E-01   1.00800           0
      7001 MEMB     82       CHL1     H19C     HAL3     0.900000E-01   1.00800           0
      7002 MEMB     82       CHL1     C1       CRL2    -0.180000       12.0110           0
      7003 MEMB     82       CHL1     H1A      HGA2     0.900000E-01   1.00800           0
      7004 MEMB     82       CHL1     H1B      HGA2     0.900000E-01   1.00800           0
      7005 MEMB     82       CHL1     C2       CRL2    -0.180000       12.0110           0
      7006 MEMB     82       CHL1     H2A      HGA2     0.900000E-01   1.00800           0
      7007 MEMB     82       CHL1     H2B      HGA2     0.900000E-01   1.00800           0
      7008 MEMB     82       CHL1     C20      CTL1    -0.900000E-01   12.0110           0
      7009 MEMB     82       CHL1     H20      HAL1     0.900000E-01   1.00800           0
      7010 MEMB     82       CHL1     C21      CTL3    -0.270000       12.0110           0
      7011 MEMB     82       CHL1     H21A     HAL3     0.900000E-01   1.00800           0
      7012 MEMB     82       CHL1     H21B     HAL3     0.900000E-01   1.00800           0
      7013 MEMB     82       CHL1     H21C     HAL3     0.900000E-01   1.00800           0
      7014 MEMB     82       CHL1     C22      CTL2    -0.180000       12.0110           0
      7015 MEMB     82       CHL1     H22A     HAL2     0.900000E-01   1.00800           0
      7016 MEMB     82       CHL1     H22B     HAL2     0.900000E-01   1.00800           0
      7017 MEMB     82       CHL1     C23      CTL2    -0.180000       12.0110           0
      7018 MEMB     82       CHL1     H23A     HAL2     0.900000E-01   1.00800           0
      7019 MEMB     82       CHL1     H23B     HAL2     0.900000E-01   1.00800           0
      7020 MEMB     82       CHL1     C24      CTL2    -0.180000       12.0110           0
      7021 MEMB     82       CHL1     H24A     HAL2     0.900000E-01   1.00800           0
      7022 MEMB     82       CHL1     H24B     HAL2     0.900000E-01   1.00800           0
      7023 MEMB     82       CHL1     C25      CTL1    -0.900000E-01   12.0110           0
      7024 MEMB     82       CHL1     H25      HAL1     0.900000E-01   1.00800           0
      7025 MEMB     82       CHL1     C26      CTL3    -0.270000       12.0110           0
      7026 MEMB     82       CHL1     H26A     HAL3     0.900000E-01   1.00800           0
      7027 MEMB     82       CHL1     H26B     HAL3     0.900000E-01   1.00800           0
      7028 MEMB     82       CHL1     H26C     HAL3     0.900000E-01   1.00800           0
      7029 MEMB     82       CHL1     C27      CTL3    -0.270000       12.0110           0
      7030 MEMB     82       CHL1     H27A     HAL3     0.900000E-01   1.00800           0
      7031 MEMB     82       CHL1     H27B     HAL3     0.900000E-01   1.00800           0
      7032 MEMB     82       CHL1     H27C     HAL3     0.900000E-01   1.00800           0
      7033 MEMB     86       CHL1     C3       CRL1     0.140000       12.0110           0
      7034 MEMB     86       CHL1     H3       HGA1     0.900000E-01   1.00800           0
      7035 MEMB     86       CHL1     O3       OHL     -0.660000       15.9994           0
      7036 MEMB     86       CHL1     H3'      HOL      0.430000       1.00800           0
      7037 MEMB     86       CHL1     C4       CRL2    -0.180000       12.0110           0
      7038 MEMB     86       CHL1     H4A      HGA2     0.900000E-01   1.00800           0
      7039 MEMB     86       CHL1     H4B      HGA2     0.900000E-01   1.00800           0
      7040 MEMB     86       CHL1     C5       CEL1     0.000000       12.0110           0
      7041 MEMB     86       CHL1     C6       CEL1    -0.150000       12.0110           0
      7042 MEMB     86       CHL1     H6       HEL1     0.150000       1.00800           0
      7043 MEMB     86       CHL1     C7       CRL2    -0.180000       12.0110           0
      7044 MEMB     86       CHL1     H7A      HGA2     0.900000E-01   1.00800           0
      7045 MEMB     86       CHL1     H7B      HGA2     0.900000E-01   1.00800           0
      7046 MEMB     86       CHL1     C8       CRL1    -0.900000E-01   12.0110           0
      7047 MEMB     86       CHL1     H8       HGA1     0.900000E-01   1.00800           0
      7048 MEMB     86       CHL1     C14      CRL1    -0.900000E-01   12.0110           0
      7049 MEMB     86       CHL1     H14      HGA1     0.900000E-01   1.00800           0
      7050 MEMB     86       CHL1     C15      CRL2    -0.180000       12.0110           0
      7051 MEMB     86       CHL1     H15A     HGA2     0.900000E-01   1.00800           0
      7052 MEMB     86       CHL1     H15B     HGA2     0.900000E-01   1.00800           0
      7053 MEMB     86       CHL1     C16      CRL2    -0.180000       12.0110           0
      7054 MEMB     86       CHL1     H16A     HGA2     0.900000E-01   1.00800           0
      7055 MEMB     86       CHL1     H16B     HGA2     0.900000E-01   1.00800           0
      7056 MEMB     86       CHL1     C17      CRL1    -0.900000E-01   12.0110           0
      7057 MEMB     86       CHL1     H17      HGA1     0.900000E-01   1.00800           0
      7058 MEMB     86       CHL1     C13      CRL1     0.000000       12.0110           0
      7059 MEMB     86       CHL1     C18      CTL3    -0.270000       12.0110           0
      7060 MEMB     86       CHL1     H18A     HAL3     0.900000E-01   1.00800           0
      7061 MEMB     86       CHL1     H18B     HAL3     0.900000E-01   1.00800           0
      7062 MEMB     86       CHL1     H18C     HAL3     0.900000E-01   1.00800           0
      7063 MEMB     86       CHL1     C12      CRL2    -0.180000       12.0110           0
      7064 MEMB     86       CHL1     H12A     HGA2     0.900000E-01   1.00800           0
      7065 MEMB     86       CHL1     H12B     HGA2     0.900000E-01   1.00800           0
      7066 MEMB     86       CHL1     C11      CRL2    -0.180000       12.0110           0
      7067 MEMB     86       CHL1     H11A     HGA2     0.900000E-01   1.00800           0
      7068 MEMB     86       CHL1     H11B     HGA2     0.900000E-01   1.00800           0
      7069 MEMB     86       CHL1     C9       CRL1    -0.900000E-01   12.0110           0
      7070 MEMB     86       CHL1     H9       HGA1     0.900000E-01   1.00800           0
      7071 MEMB     86       CHL1     C10      CRL1     0.000000       12.0110           0
      7072 MEMB     86       CHL1     C19      CTL3    -0.270000       12.0110           0
      7073 MEMB     86       CHL1     H19A     HAL3     0.900000E-01   1.00800           0
      7074 MEMB     86       CHL1     H19B     HAL3     0.900000E-01   1.00800           0
      7075 MEMB     86       CHL1     H19C     HAL3     0.900000E-01   1.00800           0
      7076 MEMB     86       CHL1     C1       CRL2    -0.180000       12.0110           0
      7077 MEMB     86       CHL1     H1A      HGA2     0.900000E-01   1.00800           0
      7078 MEMB     86       CHL1     H1B      HGA2     0.900000E-01   1.00800           0
      7079 MEMB     86       CHL1     C2       CRL2    -0.180000       12.0110           0
      7080 MEMB     86       CHL1     H2A      HGA2     0.900000E-01   1.00800           0
      7081 MEMB     86       CHL1     H2B      HGA2     0.900000E-01   1.00800           0
      7082 MEMB     86       CHL1     C20      CTL1    -0.900000E-01   12.0110           0
      7083 MEMB     86       CHL1     H20      HAL1     0.900000E-01   1.00800           0
      7084 MEMB     86       CHL1     C21      CTL3    -0.270000       12.0110           0
      7085 MEMB     86       CHL1     H21A     HAL3     0.900000E-01   1.00800           0
      7086 MEMB     86       CHL1     H21B     HAL3     0.900000E-01   1.00800           0
      7087 MEMB     86       CHL1     H21C     HAL3     0.900000E-01   1.00800           0
      7088 MEMB     86       CHL1     C22      CTL2    -0.180000       12.0110           0
      7089 MEMB     86       CHL1     H22A     HAL2     0.900000E-01   1.00800           0
      7090 MEMB     86       CHL1     H22B     HAL2     0.900000E-01   1.00800           0
      7091 MEMB     86       CHL1     C23      CTL2    -0.180000       12.0110           0
      7092 MEMB     86       CHL1     H23A     HAL2     0.900000E-01   1.00800           0
      7093 MEMB     86       CHL1     H23B     HAL2     0.900000E-01   1.00800           0
      7094 MEMB     86       CHL1     C24      CTL2    -0.180000       12.0110           0
      7095 MEMB     86       CHL1     H24A     HAL2     0.900000E-01   1.00800           0
      7096 MEMB     86       CHL1     H24B     HAL2     0.900000E-01   1.00800           0
      7097 MEMB     86       CHL1     C25      CTL1    -0.900000E-01   12.0110           0
      7098 MEMB     86       CHL1     H25      HAL1     0.900000E-01   1.00800           0
      7099 MEMB     86       CHL1     C26      CTL3    -0.270000       12.0110           0
      7100 MEMB     86       CHL1     H26A     HAL3     0.900000E-01   1.00800           0
      7101 MEMB     86       CHL1     H26B     HAL3     0.900000E-01   1.00800           0
      7102 MEMB     86       CHL1     H26C     HAL3     0.900000E-01   1.00800           0
      7103 MEMB     86       CHL1     C27      CTL3    -0.270000       12.0110           0
      7104 MEMB     86       CHL1     H27A     HAL3     0.900000E-01   1.00800           0
      7105 MEMB     86       CHL1     H27B     HAL3     0.900000E-01   1.00800           0
      7106 MEMB     86       CHL1     H27C     HAL3     0.900000E-01   1.00800           0
      7107 MEMB     88       CHL1     C3       CRL1     0.140000       12.0110           0
      7108 MEMB     88       CHL1     H3       HGA1     0.900000E-01   1.00800           0
      7109 MEMB     88       CHL1     O3       OHL     -0.660000       15.9994           0
      7110 MEMB     88       CHL1     H3'      HOL      0.430000       1.00800           0
      7111 MEMB     88       CHL1     C4       CRL2    -0.180000       12.0110           0
      7112 MEMB     88       CHL1     H4A      HGA2     0.900000E-01   1.00800           0
      7113 MEMB     88       CHL1     H4B      HGA2     0.900000E-01   1.00800           0
      7114 MEMB     88       CHL1     C5       CEL1     0.000000       12.0110           0
      7115 MEMB     88       CHL1     C6       CEL1    -0.150000       12.0110           0
      7116 MEMB     88       CHL1     H6       HEL1     0.150000       1.00800           0
      7117 MEMB     88       CHL1     C7       CRL2    -0.180000       12.0110           0
      7118 MEMB     88       CHL1     H7A      HGA2     0.900000E-01   1.00800           0
      7119 MEMB     88       CHL1     H7B      HGA2     0.900000E-01   1.00800           0
      7120 MEMB     88       CHL1     C8       CRL1    -0.900000E-01   12.0110           0
      7121 MEMB     88       CHL1     H8       HGA1     0.900000E-01   1.00800           0
      7122 MEMB     88       CHL1     C14      CRL1    -0.900000E-01   12.0110           0
      7123 MEMB     88       CHL1     H14      HGA1     0.900000E-01   1.00800           0
      7124 MEMB     88       CHL1     C15      CRL2    -0.180000       12.0110           0
      7125 MEMB     88       CHL1     H15A     HGA2     0.900000E-01   1.00800           0
      7126 MEMB     88       CHL1     H15B     HGA2     0.900000E-01   1.00800           0
      7127 MEMB     88       CHL1     C16      CRL2    -0.180000       12.0110           0
      7128 MEMB     88       CHL1     H16A     HGA2     0.900000E-01   1.00800           0
      7129 MEMB     88       CHL1     H16B     HGA2     0.900000E-01   1.00800           0
      7130 MEMB     88       CHL1     C17      CRL1    -0.900000E-01   12.0110           0
      7131 MEMB     88       CHL1     H17      HGA1     0.900000E-01   1.00800           0
      7132 MEMB     88       CHL1     C13      CRL1     0.000000       12.0110           0
      7133 MEMB     88       CHL1     C18      CTL3    -0.270000       12.0110           0
      7134 MEMB     88       CHL1     H18A     HAL3     0.900000E-01   1.00800           0
      7135 MEMB     88       CHL1     H18B     HAL3     0.900000E-01   1.00800           0
      7136 MEMB     88       CHL1     H18C     HAL3     0.900000E-01   1.00800           0
      7137 MEMB     88       CHL1     C12      CRL2    -0.180000       12.0110           0
      7138 MEMB     88       CHL1     H12A     HGA2     0.900000E-01   1.00800           0
      7139 MEMB     88       CHL1     H12B     HGA2     0.900000E-01   1.00800           0
      7140 MEMB     88       CHL1     C11      CRL2    -0.180000       12.0110           0
      7141 MEMB     88       CHL1     H11A     HGA2     0.900000E-01   1.00800           0
      7142 MEMB     88       CHL1     H11B     HGA2     0.900000E-01   1.00800           0
      7143 MEMB     88       CHL1     C9       CRL1    -0.900000E-01   12.0110           0
      7144 MEMB     88       CHL1     H9       HGA1     0.900000E-01   1.00800           0
      7145 MEMB     88       CHL1     C10      CRL1     0.000000       12.0110           0
      7146 MEMB     88       CHL1     C19      CTL3    -0.270000       12.0110           0
      7147 MEMB     88       CHL1     H19A     HAL3     0.900000E-01   1.00800           0
      7148 MEMB     88       CHL1     H19B     HAL3     0.900000E-01   1.00800           0
      7149 MEMB     88       CHL1     H19C     HAL3     0.900000E-01   1.00800           0
      7150 MEMB     88       CHL1     C1       CRL2    -0.180000       12.0110           0
      7151 MEMB     88       CHL1     H1A      HGA2     0.900000E-01   1.00800           0
      7152 MEMB     88       CHL1     H1B      HGA2     0.900000E-01   1.00800           0
      7153 MEMB     88       CHL1     C2       CRL2    -0.180000       12.0110           0
      7154 MEMB     88       CHL1     H2A      HGA2     0.900000E-01   1.00800           0
      7155 MEMB     88       CHL1     H2B      HGA2     0.900000E-01   1.00800           0
      7156 MEMB     88       CHL1     C20      CTL1    -0.900000E-01   12.0110           0
      7157 MEMB     88       CHL1     H20      HAL1     0.900000E-01   1.00800           0
      7158 MEMB     88       CHL1     C21      CTL3    -0.270000       12.0110           0
      7159 MEMB     88       CHL1     H21A     HAL3     0.900000E-01   1.00800           0
      7160 MEMB     88       CHL1     H21B     HAL3     0.900000E-01   1.00800           0
      7161 MEMB     88       CHL1     H21C     HAL3     0.900000E-01   1.00800           0
      7162 MEMB     88       CHL1     C22      CTL2    -0.180000       12.0110           0
      7163 MEMB     88       CHL1     H22A     HAL2     0.900000E-01   1.00800           0
      7164 MEMB     88       CHL1     H22B     HAL2     0.900000E-01   1.00800           0
      7165 MEMB     88       CHL1     C23      CTL2    -0.180000       12.0110           0
      7166 MEMB     88       CHL1     H23A     HAL2     0.900000E-01   1.00800           0
      7167 MEMB     88       CHL1     H23B     HAL2     0.900000E-01   1.00800           0
      7168 MEMB     88       CHL1     C24      CTL2    -0.180000       12.0110           0
      7169 MEMB     88       CHL1     H24A     HAL2     0.900000E-01   1.00800           0
      7170 MEMB     88       CHL1     H24B     HAL2     0.900000E-01   1.00800           0
      7171 MEMB     88       CHL1     C25      CTL1    -0.900000E-01   12.0110           0
      7172 MEMB     88       CHL1     H25      HAL1     0.900000E-01   1.00800           0
      7173 MEMB     88       CHL1     C26      CTL3    -0.270000       12.0110           0
      7174 MEMB     88       CHL1     H26A     HAL3     0.900000E-01   1.00800           0
      7175 MEMB     88       CHL1     H26B     HAL3     0.900000E-01   1.00800           0
      7176 MEMB     88       CHL1     H26C     HAL3     0.900000E-01   1.00800           0
      7177 MEMB     88       CHL1     C27      CTL3    -0.270000       12.0110           0
      7178 MEMB     88       CHL1     H27A     HAL3     0.900000E-01   1.00800           0
      7179 MEMB     88       CHL1     H27B     HAL3     0.900000E-01   1.00800           0
      7180 MEMB     88       CHL1     H27C     HAL3     0.900000E-01   1.00800           0
      7181 MEMB     91       CHL1     C3       CRL1     0.140000       12.0110           0
      7182 MEMB     91       CHL1     H3       HGA1     0.900000E-01   1.00800           0
      7183 MEMB     91       CHL1     O3       OHL     -0.660000       15.9994           0
      7184 MEMB     91       CHL1     H3'      HOL      0.430000       1.00800           0
      7185 MEMB     91       CHL1     C4       CRL2    -0.180000       12.0110           0
      7186 MEMB     91       CHL1     H4A      HGA2     0.900000E-01   1.00800           0
      7187 MEMB     91       CHL1     H4B      HGA2     0.900000E-01   1.00800           0
      7188 MEMB     91       CHL1     C5       CEL1     0.000000       12.0110           0
      7189 MEMB     91       CHL1     C6       CEL1    -0.150000       12.0110           0
      7190 MEMB     91       CHL1     H6       HEL1     0.150000       1.00800           0
      7191 MEMB     91       CHL1     C7       CRL2    -0.180000       12.0110           0
      7192 MEMB     91       CHL1     H7A      HGA2     0.900000E-01   1.00800           0
      7193 MEMB     91       CHL1     H7B      HGA2     0.900000E-01   1.00800           0
      7194 MEMB     91       CHL1     C8       CRL1    -0.900000E-01   12.0110           0
      7195 MEMB     91       CHL1     H8       HGA1     0.900000E-01   1.00800           0
      7196 MEMB     91       CHL1     C14      CRL1    -0.900000E-01   12.0110           0
      7197 MEMB     91       CHL1     H14      HGA1     0.900000E-01   1.00800           0
      7198 MEMB     91       CHL1     C15      CRL2    -0.180000       12.0110           0
      7199 MEMB     91       CHL1     H15A     HGA2     0.900000E-01   1.00800           0
      7200 MEMB     91       CHL1     H15B     HGA2     0.900000E-01   1.00800           0
      7201 MEMB     91       CHL1     C16      CRL2    -0.180000       12.0110           0
      7202 MEMB     91       CHL1     H16A     HGA2     0.900000E-01   1.00800           0
      7203 MEMB     91       CHL1     H16B     HGA2     0.900000E-01   1.00800           0
      7204 MEMB     91       CHL1     C17      CRL1    -0.900000E-01   12.0110           0
      7205 MEMB     91       CHL1     H17      HGA1     0.900000E-01   1.00800           0
      7206 MEMB     91       CHL1     C13      CRL1     0.000000       12.0110           0
      7207 MEMB     91       CHL1     C18      CTL3    -0.270000       12.0110           0
      7208 MEMB     91       CHL1     H18A     HAL3     0.900000E-01   1.00800           0
      7209 MEMB     91       CHL1     H18B     HAL3     0.900000E-01   1.00800           0
      7210 MEMB     91       CHL1     H18C     HAL3     0.900000E-01   1.00800           0
      7211 MEMB     91       CHL1     C12      CRL2    -0.180000       12.0110           0
      7212 MEMB     91       CHL1     H12A     HGA2     0.900000E-01   1.00800           0
      7213 MEMB     91       CHL1     H12B     HGA2     0.900000E-01   1.00800           0
      7214 MEMB     91       CHL1     C11      CRL2    -0.180000       12.0110           0
      7215 MEMB     91       CHL1     H11A     HGA2     0.900000E-01   1.00800           0
      7216 MEMB     91       CHL1     H11B     HGA2     0.900000E-01   1.00800           0
      7217 MEMB     91       CHL1     C9       CRL1    -0.900000E-01   12.0110           0
      7218 MEMB     91       CHL1     H9       HGA1     0.900000E-01   1.00800           0
      7219 MEMB     91       CHL1     C10      CRL1     0.000000       12.0110           0
      7220 MEMB     91       CHL1     C19      CTL3    -0.270000       12.0110           0
      7221 MEMB     91       CHL1     H19A     HAL3     0.900000E-01   1.00800           0
      7222 MEMB     91       CHL1     H19B     HAL3     0.900000E-01   1.00800           0
      7223 MEMB     91       CHL1     H19C     HAL3     0.900000E-01   1.00800           0
      7224 MEMB     91       CHL1     C1       CRL2    -0.180000       12.0110           0
      7225 MEMB     91       CHL1     H1A      HGA2     0.900000E-01   1.00800           0
      7226 MEMB     91       CHL1     H1B      HGA2     0.900000E-01   1.00800           0
      7227 MEMB     91       CHL1     C2       CRL2    -0.180000       12.0110           0
      7228 MEMB     91       CHL1     H2A      HGA2     0.900000E-01   1.00800           0
      7229 MEMB     91       CHL1     H2B      HGA2     0.900000E-01   1.00800           0
      7230 MEMB     91       CHL1     C20      CTL1    -0.900000E-01   12.0110           0
      7231 MEMB     91       CHL1     H20      HAL1     0.900000E-01   1.00800           0
      7232 MEMB     91       CHL1     C21      CTL3    -0.270000       12.0110           0
      7233 MEMB     91       CHL1     H21A     HAL3     0.900000E-01   1.00800           0
      7234 MEMB     91       CHL1     H21B     HAL3     0.900000E-01   1.00800           0
      7235 MEMB     91       CHL1     H21C     HAL3     0.900000E-01   1.00800           0
      7236 MEMB     91       CHL1     C22      CTL2    -0.180000       12.0110           0
      7237 MEMB     91       CHL1     H22A     HAL2     0.900000E-01   1.00800           0
      7238 MEMB     91       CHL1     H22B     HAL2     0.900000E-01   1.00800           0
      7239 MEMB     91       CHL1     C23      CTL2    -0.180000       12.0110           0
      7240 MEMB     91       CHL1     H23A     HAL2     0.900000E-01   1.00800           0
      7241 MEMB     91       CHL1     H23B     HAL2     0.900000E-01   1.00800           0
      7242 MEMB     91       CHL1     C24      CTL2    -0.180000       12.0110           0
      7243 MEMB     91       CHL1     H24A     HAL2     0.900000E-01   1.00800           0
      7244 MEMB     91       CHL1     H24B     HAL2     0.900000E-01   1.00800           0
      7245 MEMB     91       CHL1     C25      CTL1    -0.900000E-01   12.0110           0
      7246 MEMB     91       CHL1     H25      HAL1     0.900000E-01   1.00800           0
      7247 MEMB     91       CHL1     C26      CTL3    -0.270000       12.0110           0
      7248 MEMB     91       CHL1     H26A     HAL3     0.900000E-01   1.00800           0
      7249 MEMB     91       CHL1     H26B     HAL3     0.900000E-01   1.00800           0
      7250 MEMB     91       CHL1     H26C     HAL3     0.900000E-01   1.00800           0
      7251 MEMB     91       CHL1     C27      CTL3    -0.270000       12.0110           0
      7252 MEMB     91       CHL1     H27A     HAL3     0.900000E-01   1.00800           0
      7253 MEMB     91       CHL1     H27B     HAL3     0.900000E-01   1.00800           0
      7254 MEMB     91       CHL1     H27C     HAL3     0.900000E-01   1.00800           0
      7255 MEMB     93       CHL1     C3       CRL1     0.140000       12.0110           0
      7256 MEMB     93       CHL1     H3       HGA1     0.900000E-01   1.00800           0
      7257 MEMB     93       CHL1     O3       OHL     -0.660000       15.9994           0
      7258 MEMB     93       CHL1     H3'      HOL      0.430000       1.00800           0
      7259 MEMB     93       CHL1     C4       CRL2    -0.180000       12.0110           0
      7260 MEMB     93       CHL1     H4A      HGA2     0.900000E-01   1.00800           0
      7261 MEMB     93       CHL1     H4B      HGA2     0.900000E-01   1.00800           0
      7262 MEMB     93       CHL1     C5       CEL1     0.000000       12.0110           0
      7263 MEMB     93       CHL1     C6       CEL1    -0.150000       12.0110           0
      7264 MEMB     93       CHL1     H6       HEL1     0.150000       1.00800           0
      7265 MEMB     93       CHL1     C7       CRL2    -0.180000       12.0110           0
      7266 MEMB     93       CHL1     H7A      HGA2     0.900000E-01   1.00800           0
      7267 MEMB     93       CHL1     H7B      HGA2     0.900000E-01   1.00800           0
      7268 MEMB     93       CHL1     C8       CRL1    -0.900000E-01   12.0110           0
      7269 MEMB     93       CHL1     H8       HGA1     0.900000E-01   1.00800           0
      7270 MEMB     93       CHL1     C14      CRL1    -0.900000E-01   12.0110           0
      7271 MEMB     93       CHL1     H14      HGA1     0.900000E-01   1.00800           0
      7272 MEMB     93       CHL1     C15      CRL2    -0.180000       12.0110           0
      7273 MEMB     93       CHL1     H15A     HGA2     0.900000E-01   1.00800           0
      7274 MEMB     93       CHL1     H15B     HGA2     0.900000E-01   1.00800           0
      7275 MEMB     93       CHL1     C16      CRL2    -0.180000       12.0110           0
      7276 MEMB     93       CHL1     H16A     HGA2     0.900000E-01   1.00800           0
      7277 MEMB     93       CHL1     H16B     HGA2     0.900000E-01   1.00800           0
      7278 MEMB     93       CHL1     C17      CRL1    -0.900000E-01   12.0110           0
      7279 MEMB     93       CHL1     H17      HGA1     0.900000E-01   1.00800           0
      7280 MEMB     93       CHL1     C13      CRL1     0.000000       12.0110           0
      7281 MEMB     93       CHL1     C18      CTL3    -0.270000       12.0110           0
      7282 MEMB     93       CHL1     H18A     HAL3     0.900000E-01   1.00800           0
      7283 MEMB     93       CHL1     H18B     HAL3     0.900000E-01   1.00800           0
      7284 MEMB     93       CHL1     H18C     HAL3     0.900000E-01   1.00800           0
      7285 MEMB     93       CHL1     C12      CRL2    -0.180000       12.0110           0
      7286 MEMB     93       CHL1     H12A     HGA2     0.900000E-01   1.00800           0
      7287 MEMB     93       CHL1     H12B     HGA2     0.900000E-01   1.00800           0
      7288 MEMB     93       CHL1     C11      CRL2    -0.180000       12.0110           0
      7289 MEMB     93       CHL1     H11A     HGA2     0.900000E-01   1.00800           0
      7290 MEMB     93       CHL1     H11B     HGA2     0.900000E-01   1.00800           0
      7291 MEMB     93       CHL1     C9       CRL1    -0.900000E-01   12.0110           0
      7292 MEMB     93       CHL1     H9       HGA1     0.900000E-01   1.00800           0
      7293 MEMB     93       CHL1     C10      CRL1     0.000000       12.0110           0
      7294 MEMB     93       CHL1     C19      CTL3    -0.270000       12.0110           0
      7295 MEMB     93       CHL1     H19A     HAL3     0.900000E-01   1.00800           0
      7296 MEMB     93       CHL1     H19B     HAL3     0.900000E-01   1.00800           0
      7297 MEMB     93       CHL1     H19C     HAL3     0.900000E-01   1.00800           0
      7298 MEMB     93       CHL1     C1       CRL2    -0.180000       12.0110           0
      7299 MEMB     93       CHL1     H1A      HGA2     0.900000E-01   1.00800           0
      7300 MEMB     93       CHL1     H1B      HGA2     0.900000E-01   1.00800           0
      7301 MEMB     93       CHL1     C2       CRL2    -0.180000       12.0110           0
      7302 MEMB     93       CHL1     H2A      HGA2     0.900000E-01   1.00800           0
      7303 MEMB     93       CHL1     H2B      HGA2     0.900000E-01   1.00800           0
      7304 MEMB     93       CHL1     C20      CTL1    -0.900000E-01   12.0110           0
      7305 MEMB     93       CHL1     H20      HAL1     0.900000E-01   1.00800           0
      7306 MEMB     93       CHL1     C21      CTL3    -0.270000       12.0110           0
      7307 MEMB     93       CHL1     H21A     HAL3     0.900000E-01   1.00800           0
      7308 MEMB     93       CHL1     H21B     HAL3     0.900000E-01   1.00800           0
      7309 MEMB     93       CHL1     H21C     HAL3     0.900000E-01   1.00800           0
      7310 MEMB     93       CHL1     C22      CTL2    -0.180000       12.0110           0
      7311 MEMB     93       CHL1     H22A     HAL2     0.900000E-01   1.00800           0
      7312 MEMB     93       CHL1     H22B     HAL2     0.900000E-01   1.00800           0
      7313 MEMB     93       CHL1     C23      CTL2    -0.180000       12.0110           0
      7314 MEMB     93       CHL1     H23A     HAL2     0.900000E-01   1.00800           0
      7315 MEMB     93       CHL1     H23B     HAL2     0.900000E-01   1.00800           0
      7316 MEMB     93       CHL1     C24      CTL2    -0.180000       12.0110           0
      7317 MEMB     93       CHL1     H24A     HAL2     0.900000E-01   1.00800           0
      7318 MEMB     93       CHL1     H24B     HAL2     0.900000E-01   1.00800           0
      7319 MEMB     93       CHL1     C25      CTL1    -0.900000E-01   12.0110           0
      7320 MEMB     93       CHL1     H25      HAL1     0.900000E-01   1.00800           0
      7321 MEMB     93       CHL1     C26      CTL3    -0.270000       12.0110           0
      7322 MEMB     93       CHL1     H26A     HAL3     0.900000E-01   1.00800           0
      7323 MEMB     93       CHL1     H26B     HAL3     0.900000E-01   1.00800           0
      7324 MEMB     93       CHL1     H26C     HAL3     0.900000E-01   1.00800           0
      7325 MEMB     93       CHL1     C27      CTL3    -0.270000       12.0110           0
      7326 MEMB     93       CHL1     H27A     HAL3     0.900000E-01   1.00800           0
      7327 MEMB     93       CHL1     H27B     HAL3     0.900000E-01   1.00800           0
      7328 MEMB     93       CHL1     H27C     HAL3     0.900000E-01   1.00800           0
      7329 MEMB     14       SLPC     N        NTL     -0.600000       14.0070           0
      7330 MEMB     14       SLPC     C13      CTL5    -0.350000       12.0110           0
      7331 MEMB     14       SLPC     H13A     HL       0.250000       1.00800           0
      7332 MEMB     14       SLPC     H13B     HL       0.250000       1.00800           0
      7333 MEMB     14       SLPC     H13C     HL       0.250000       1.00800           0
      7334 MEMB     14       SLPC     C14      CTL5    -0.350000       12.0110           0
      7335 MEMB     14       SLPC     H14A     HL       0.250000       1.00800           0
      7336 MEMB     14       SLPC     H14B     HL       0.250000       1.00800           0
      7337 MEMB     14       SLPC     H14C     HL       0.250000       1.00800           0
      7338 MEMB     14       SLPC     C15      CTL5    -0.350000       12.0110           0
      7339 MEMB     14       SLPC     H15A     HL       0.250000       1.00800           0
      7340 MEMB     14       SLPC     H15B     HL       0.250000       1.00800           0
      7341 MEMB     14       SLPC     H15C     HL       0.250000       1.00800           0
      7342 MEMB     14       SLPC     C12      CTL2    -0.100000       12.0110           0
      7343 MEMB     14       SLPC     H12A     HL       0.250000       1.00800           0
      7344 MEMB     14       SLPC     H12B     HL       0.250000       1.00800           0
      7345 MEMB     14       SLPC     C11      CTL2    -0.800000E-01   12.0110           0
      7346 MEMB     14       SLPC     H11A     HAL2     0.900000E-01   1.00800           0
      7347 MEMB     14       SLPC     H11B     HAL2     0.900000E-01   1.00800           0
      7348 MEMB     14       SLPC     P        PL       1.500000       30.9740           0
      7349 MEMB     14       SLPC     O13      O2L     -0.780000       15.9994           0
      7350 MEMB     14       SLPC     O14      O2L     -0.780000       15.9994           0
      7351 MEMB     14       SLPC     O12      OSLP    -0.570000       15.9994           0
      7352 MEMB     14       SLPC     O11      OSLP    -0.570000       15.9994           0
      7353 MEMB     14       SLPC     C1       CTL2    -0.800000E-01   12.0110           0
      7354 MEMB     14       SLPC     HA       HAL2     0.900000E-01   1.00800           0
      7355 MEMB     14       SLPC     HB       HAL2     0.900000E-01   1.00800           0
      7356 MEMB     14       SLPC     C2       CTL1     0.170000       12.0110           0
      7357 MEMB     14       SLPC     HS       HAL1     0.900000E-01   1.00800           0
      7358 MEMB     14       SLPC     O21      OSL     -0.490000       15.9994           0
      7359 MEMB     14       SLPC     C21      CL       0.900000       12.0110           0
      7360 MEMB     14       SLPC     O22      OBL     -0.630000       15.9994           0
      7361 MEMB     14       SLPC     C22      CTL2    -0.220000       12.0110           0
      7362 MEMB     14       SLPC     H2R      HAL2     0.900000E-01   1.00800           0
      7363 MEMB     14       SLPC     H2S      HAL2     0.900000E-01   1.00800           0
      7364 MEMB     14       SLPC     C3       CTL2     0.800000E-01   12.0110           0
      7365 MEMB     14       SLPC     HX       HAL2     0.900000E-01   1.00800           0
      7366 MEMB     14       SLPC     HY       HAL2     0.900000E-01   1.00800           0
      7367 MEMB     14       SLPC     O31      OSL     -0.490000       15.9994           0
      7368 MEMB     14       SLPC     C31      CL       0.900000       12.0110           0
      7369 MEMB     14       SLPC     O32      OBL     -0.630000       15.9994           0
      7370 MEMB     14       SLPC     C32      CTL2    -0.220000       12.0110           0
      7371 MEMB     14       SLPC     H2X      HAL2     0.900000E-01   1.00800           0
      7372 MEMB     14       SLPC     H2Y      HAL2     0.900000E-01   1.00800           0
      7373 MEMB     14       SLPC     C23      CTL2    -0.180000       12.0110           0
      7374 MEMB     14       SLPC     H3R      HAL2     0.900000E-01   1.00800           0
      7375 MEMB     14       SLPC     H3S      HAL2     0.900000E-01   1.00800           0
      7376 MEMB     14       SLPC     C24      CTL2    -0.180000       12.0110           0
      7377 MEMB     14       SLPC     H4R      HAL2     0.900000E-01   1.00800           0
      7378 MEMB     14       SLPC     H4S      HAL2     0.900000E-01   1.00800           0
      7379 MEMB     14       SLPC     C25      CTL2    -0.180000       12.0110           0
      7380 MEMB     14       SLPC     H5R      HAL2     0.900000E-01   1.00800           0
      7381 MEMB     14       SLPC     H5S      HAL2     0.900000E-01   1.00800           0
      7382 MEMB     14       SLPC     C26      CTL2    -0.180000       12.0110           0
      7383 MEMB     14       SLPC     H6R      HAL2     0.900000E-01   1.00800           0
      7384 MEMB     14       SLPC     H6S      HAL2     0.900000E-01   1.00800           0
      7385 MEMB     14       SLPC     C27      CTL2    -0.180000       12.0110           0
      7386 MEMB     14       SLPC     H7R      HAL2     0.900000E-01   1.00800           0
      7387 MEMB     14       SLPC     H7S      HAL2     0.900000E-01   1.00800           0
      7388 MEMB     14       SLPC     C28      CTL2    -0.180000       12.0110           0
      7389 MEMB     14       SLPC     H8R      HAL2     0.900000E-01   1.00800           0
      7390 MEMB     14       SLPC     H8S      HAL2     0.900000E-01   1.00800           0
      7391 MEMB     14       SLPC     C29      CEL1    -0.150000       12.0110           0
      7392 MEMB     14       SLPC     H9R      HEL1     0.150000       1.00800           0
      7393 MEMB     14       SLPC     C210     CEL1    -0.150000       12.0110           0
      7394 MEMB     14       SLPC     H10R     HEL1     0.150000       1.00800           0
      7395 MEMB     14       SLPC     C211     CTL2    -0.180000       12.0110           0
      7396 MEMB     14       SLPC     H11R     HAL2     0.900000E-01   1.00800           0
      7397 MEMB     14       SLPC     H11S     HAL2     0.900000E-01   1.00800           0
      7398 MEMB     14       SLPC     C212     CEL1    -0.150000       12.0110           0
      7399 MEMB     14       SLPC     H12R     HEL1     0.150000       1.00800           0
      7400 MEMB     14       SLPC     C213     CEL1    -0.150000       12.0110           0
      7401 MEMB     14       SLPC     H13R     HEL1     0.150000       1.00800           0
      7402 MEMB     14       SLPC     C214     CTL2    -0.180000       12.0110           0
      7403 MEMB     14       SLPC     H14R     HAL2     0.900000E-01   1.00800           0
      7404 MEMB     14       SLPC     H14S     HAL2     0.900000E-01   1.00800           0
      7405 MEMB     14       SLPC     C215     CTL2    -0.180000       12.0110           0
      7406 MEMB     14       SLPC     H15R     HAL2     0.900000E-01   1.00800           0
      7407 MEMB     14       SLPC     H15S     HAL2     0.900000E-01   1.00800           0
      7408 MEMB     14       SLPC     C216     CTL2    -0.180000       12.0110           0
      7409 MEMB     14       SLPC     H16R     HAL2     0.900000E-01   1.00800           0
      7410 MEMB     14       SLPC     H16S     HAL2     0.900000E-01   1.00800           0
      7411 MEMB     14       SLPC     C217     CTL2    -0.180000       12.0110           0
      7412 MEMB     14       SLPC     H17R     HAL2     0.900000E-01   1.00800           0
      7413 MEMB     14       SLPC     H17S     HAL2     0.900000E-01   1.00800           0
      7414 MEMB     14       SLPC     C218     CTL3    -0.270000       12.0110           0
      7415 MEMB     14       SLPC     H18R     HAL3     0.900000E-01   1.00800           0
      7416 MEMB     14       SLPC     H18S     HAL3     0.900000E-01   1.00800           0
      7417 MEMB     14       SLPC     H18T     HAL3     0.900000E-01   1.00800           0
      7418 MEMB     14       SLPC     C33      CTL2    -0.180000       12.0110           0
      7419 MEMB     14       SLPC     H3X      HAL2     0.900000E-01   1.00800           0
      7420 MEMB     14       SLPC     H3Y      HAL2     0.900000E-01   1.00800           0
      7421 MEMB     14       SLPC     C34      CTL2    -0.180000       12.0110           0
      7422 MEMB     14       SLPC     H4X      HAL2     0.900000E-01   1.00800           0
      7423 MEMB     14       SLPC     H4Y      HAL2     0.900000E-01   1.00800           0
      7424 MEMB     14       SLPC     C35      CTL2    -0.180000       12.0110           0
      7425 MEMB     14       SLPC     H5X      HAL2     0.900000E-01   1.00800           0
      7426 MEMB     14       SLPC     H5Y      HAL2     0.900000E-01   1.00800           0
      7427 MEMB     14       SLPC     C36      CTL2    -0.180000       12.0110           0
      7428 MEMB     14       SLPC     H6X      HAL2     0.900000E-01   1.00800           0
      7429 MEMB     14       SLPC     H6Y      HAL2     0.900000E-01   1.00800           0
      7430 MEMB     14       SLPC     C37      CTL2    -0.180000       12.0110           0
      7431 MEMB     14       SLPC     H7X      HAL2     0.900000E-01   1.00800           0
      7432 MEMB     14       SLPC     H7Y      HAL2     0.900000E-01   1.00800           0
      7433 MEMB     14       SLPC     C38      CTL2    -0.180000       12.0110           0
      7434 MEMB     14       SLPC     H8X      HAL2     0.900000E-01   1.00800           0
      7435 MEMB     14       SLPC     H8Y      HAL2     0.900000E-01   1.00800           0
      7436 MEMB     14       SLPC     C39      CTL2    -0.180000       12.0110           0
      7437 MEMB     14       SLPC     H9X      HAL2     0.900000E-01   1.00800           0
      7438 MEMB     14       SLPC     H9Y      HAL2     0.900000E-01   1.00800           0
      7439 MEMB     14       SLPC     C310     CTL2    -0.180000       12.0110           0
      7440 MEMB     14       SLPC     H10X     HAL2     0.900000E-01   1.00800           0
      7441 MEMB     14       SLPC     H10Y     HAL2     0.900000E-01   1.00800           0
      7442 MEMB     14       SLPC     C311     CTL2    -0.180000       12.0110           0
      7443 MEMB     14       SLPC     H11X     HAL2     0.900000E-01   1.00800           0
      7444 MEMB     14       SLPC     H11Y     HAL2     0.900000E-01   1.00800           0
      7445 MEMB     14       SLPC     C312     CTL2    -0.180000       12.0110           0
      7446 MEMB     14       SLPC     H12X     HAL2     0.900000E-01   1.00800           0
      7447 MEMB     14       SLPC     H12Y     HAL2     0.900000E-01   1.00800           0
      7448 MEMB     14       SLPC     C313     CTL2    -0.180000       12.0110           0
      7449 MEMB     14       SLPC     H13X     HAL2     0.900000E-01   1.00800           0
      7450 MEMB     14       SLPC     H13Y     HAL2     0.900000E-01   1.00800           0
      7451 MEMB     14       SLPC     C314     CTL2    -0.180000       12.0110           0
      7452 MEMB     14       SLPC     H14X     HAL2     0.900000E-01   1.00800           0
      7453 MEMB     14       SLPC     H14Y     HAL2     0.900000E-01   1.00800           0
      7454 MEMB     14       SLPC     C315     CTL2    -0.180000       12.0110           0
      7455 MEMB     14       SLPC     H15X     HAL2     0.900000E-01   1.00800           0
      7456 MEMB     14       SLPC     H15Y     HAL2     0.900000E-01   1.00800           0
      7457 MEMB     14       SLPC     C316     CTL2    -0.180000       12.0110           0
      7458 MEMB     14       SLPC     H16X     HAL2     0.900000E-01   1.00800           0
      7459 MEMB     14       SLPC     H16Y     HAL2     0.900000E-01   1.00800           0
      7460 MEMB     14       SLPC     C317     CTL2    -0.180000       12.0110           0
      7461 MEMB     14       SLPC     H17X     HAL2     0.900000E-01   1.00800           0
      7462 MEMB     14       SLPC     H17Y     HAL2     0.900000E-01   1.00800           0
      7463 MEMB     14       SLPC     C318     CTL3    -0.270000       12.0110           0
      7464 MEMB     14       SLPC     H18X     HAL3     0.900000E-01   1.00800           0
      7465 MEMB     14       SLPC     H18Y     HAL3     0.900000E-01   1.00800           0
      7466 MEMB     14       SLPC     H18Z     HAL3     0.900000E-01   1.00800           0
      7467 MEMB     17       SLPC     N        NTL     -0.600000       14.0070           0
      7468 MEMB     17       SLPC     C13      CTL5    -0.350000       12.0110           0
      7469 MEMB     17       SLPC     H13A     HL       0.250000       1.00800           0
      7470 MEMB     17       SLPC     H13B     HL       0.250000       1.00800           0
      7471 MEMB     17       SLPC     H13C     HL       0.250000       1.00800           0
      7472 MEMB     17       SLPC     C14      CTL5    -0.350000       12.0110           0
      7473 MEMB     17       SLPC     H14A     HL       0.250000       1.00800           0
      7474 MEMB     17       SLPC     H14B     HL       0.250000       1.00800           0
      7475 MEMB     17       SLPC     H14C     HL       0.250000       1.00800           0
      7476 MEMB     17       SLPC     C15      CTL5    -0.350000       12.0110           0
      7477 MEMB     17       SLPC     H15A     HL       0.250000       1.00800           0
      7478 MEMB     17       SLPC     H15B     HL       0.250000       1.00800           0
      7479 MEMB     17       SLPC     H15C     HL       0.250000       1.00800           0
      7480 MEMB     17       SLPC     C12      CTL2    -0.100000       12.0110           0
      7481 MEMB     17       SLPC     H12A     HL       0.250000       1.00800           0
      7482 MEMB     17       SLPC     H12B     HL       0.250000       1.00800           0
      7483 MEMB     17       SLPC     C11      CTL2    -0.800000E-01   12.0110           0
      7484 MEMB     17       SLPC     H11A     HAL2     0.900000E-01   1.00800           0
      7485 MEMB     17       SLPC     H11B     HAL2     0.900000E-01   1.00800           0
      7486 MEMB     17       SLPC     P        PL       1.500000       30.9740           0
      7487 MEMB     17       SLPC     O13      O2L     -0.780000       15.9994           0
      7488 MEMB     17       SLPC     O14      O2L     -0.780000       15.9994           0
      7489 MEMB     17       SLPC     O12      OSLP    -0.570000       15.9994           0
      7490 MEMB     17       SLPC     O11      OSLP    -0.570000       15.9994           0
      7491 MEMB     17       SLPC     C1       CTL2    -0.800000E-01   12.0110           0
      7492 MEMB     17       SLPC     HA       HAL2     0.900000E-01   1.00800           0
      7493 MEMB     17       SLPC     HB       HAL2     0.900000E-01   1.00800           0
      7494 MEMB     17       SLPC     C2       CTL1     0.170000       12.0110           0
      7495 MEMB     17       SLPC     HS       HAL1     0.900000E-01   1.00800           0
      7496 MEMB     17       SLPC     O21      OSL     -0.490000       15.9994           0
      7497 MEMB     17       SLPC     C21      CL       0.900000       12.0110           0
      7498 MEMB     17       SLPC     O22      OBL     -0.630000       15.9994           0
      7499 MEMB     17       SLPC     C22      CTL2    -0.220000       12.0110           0
      7500 MEMB     17       SLPC     H2R      HAL2     0.900000E-01   1.00800           0
      7501 MEMB     17       SLPC     H2S      HAL2     0.900000E-01   1.00800           0
      7502 MEMB     17       SLPC     C3       CTL2     0.800000E-01   12.0110           0
      7503 MEMB     17       SLPC     HX       HAL2     0.900000E-01   1.00800           0
      7504 MEMB     17       SLPC     HY       HAL2     0.900000E-01   1.00800           0
      7505 MEMB     17       SLPC     O31      OSL     -0.490000       15.9994           0
      7506 MEMB     17       SLPC     C31      CL       0.900000       12.0110           0
      7507 MEMB     17       SLPC     O32      OBL     -0.630000       15.9994           0
      7508 MEMB     17       SLPC     C32      CTL2    -0.220000       12.0110           0
      7509 MEMB     17       SLPC     H2X      HAL2     0.900000E-01   1.00800           0
      7510 MEMB     17       SLPC     H2Y      HAL2     0.900000E-01   1.00800           0
      7511 MEMB     17       SLPC     C23      CTL2    -0.180000       12.0110           0
      7512 MEMB     17       SLPC     H3R      HAL2     0.900000E-01   1.00800           0
      7513 MEMB     17       SLPC     H3S      HAL2     0.900000E-01   1.00800           0
      7514 MEMB     17       SLPC     C24      CTL2    -0.180000       12.0110           0
      7515 MEMB     17       SLPC     H4R      HAL2     0.900000E-01   1.00800           0
      7516 MEMB     17       SLPC     H4S      HAL2     0.900000E-01   1.00800           0
      7517 MEMB     17       SLPC     C25      CTL2    -0.180000       12.0110           0
      7518 MEMB     17       SLPC     H5R      HAL2     0.900000E-01   1.00800           0
      7519 MEMB     17       SLPC     H5S      HAL2     0.900000E-01   1.00800           0
      7520 MEMB     17       SLPC     C26      CTL2    -0.180000       12.0110           0
      7521 MEMB     17       SLPC     H6R      HAL2     0.900000E-01   1.00800           0
      7522 MEMB     17       SLPC     H6S      HAL2     0.900000E-01   1.00800           0
      7523 MEMB     17       SLPC     C27      CTL2    -0.180000       12.0110           0
      7524 MEMB     17       SLPC     H7R      HAL2     0.900000E-01   1.00800           0
      7525 MEMB     17       SLPC     H7S      HAL2     0.900000E-01   1.00800           0
      7526 MEMB     17       SLPC     C28      CTL2    -0.180000       12.0110           0
      7527 MEMB     17       SLPC     H8R      HAL2     0.900000E-01   1.00800           0
      7528 MEMB     17       SLPC     H8S      HAL2     0.900000E-01   1.00800           0
      7529 MEMB     17       SLPC     C29      CEL1    -0.150000       12.0110           0
      7530 MEMB     17       SLPC     H9R      HEL1     0.150000       1.00800           0
      7531 MEMB     17       SLPC     C210     CEL1    -0.150000       12.0110           0
      7532 MEMB     17       SLPC     H10R     HEL1     0.150000       1.00800           0
      7533 MEMB     17       SLPC     C211     CTL2    -0.180000       12.0110           0
      7534 MEMB     17       SLPC     H11R     HAL2     0.900000E-01   1.00800           0
      7535 MEMB     17       SLPC     H11S     HAL2     0.900000E-01   1.00800           0
      7536 MEMB     17       SLPC     C212     CEL1    -0.150000       12.0110           0
      7537 MEMB     17       SLPC     H12R     HEL1     0.150000       1.00800           0
      7538 MEMB     17       SLPC     C213     CEL1    -0.150000       12.0110           0
      7539 MEMB     17       SLPC     H13R     HEL1     0.150000       1.00800           0
      7540 MEMB     17       SLPC     C214     CTL2    -0.180000       12.0110           0
      7541 MEMB     17       SLPC     H14R     HAL2     0.900000E-01   1.00800           0
      7542 MEMB     17       SLPC     H14S     HAL2     0.900000E-01   1.00800           0
      7543 MEMB     17       SLPC     C215     CTL2    -0.180000       12.0110           0
      7544 MEMB     17       SLPC     H15R     HAL2     0.900000E-01   1.00800           0
      7545 MEMB     17       SLPC     H15S     HAL2     0.900000E-01   1.00800           0
      7546 MEMB     17       SLPC     C216     CTL2    -0.180000       12.0110           0
      7547 MEMB     17       SLPC     H16R     HAL2     0.900000E-01   1.00800           0
      7548 MEMB     17       SLPC     H16S     HAL2     0.900000E-01   1.00800           0
      7549 MEMB     17       SLPC     C217     CTL2    -0.180000       12.0110           0
      7550 MEMB     17       SLPC     H17R     HAL2     0.900000E-01   1.00800           0
      7551 MEMB     17       SLPC     H17S     HAL2     0.900000E-01   1.00800           0
      7552 MEMB     17       SLPC     C218     CTL3    -0.270000       12.0110           0
      7553 MEMB     17       SLPC     H18R     HAL3     0.900000E-01   1.00800           0
      7554 MEMB     17       SLPC     H18S     HAL3     0.900000E-01   1.00800           0
      7555 MEMB     17       SLPC     H18T     HAL3     0.900000E-01   1.00800           0
      7556 MEMB     17       SLPC     C33      CTL2    -0.180000       12.0110           0
      7557 MEMB     17       SLPC     H3X      HAL2     0.900000E-01   1.00800           0
      7558 MEMB     17       SLPC     H3Y      HAL2     0.900000E-01   1.00800           0
      7559 MEMB     17       SLPC     C34      CTL2    -0.180000       12.0110           0
      7560 MEMB     17       SLPC     H4X      HAL2     0.900000E-01   1.00800           0
      7561 MEMB     17       SLPC     H4Y      HAL2     0.900000E-01   1.00800           0
      7562 MEMB     17       SLPC     C35      CTL2    -0.180000       12.0110           0
      7563 MEMB     17       SLPC     H5X      HAL2     0.900000E-01   1.00800           0
      7564 MEMB     17       SLPC     H5Y      HAL2     0.900000E-01   1.00800           0
      7565 MEMB     17       SLPC     C36      CTL2    -0.180000       12.0110           0
      7566 MEMB     17       SLPC     H6X      HAL2     0.900000E-01   1.00800           0
      7567 MEMB     17       SLPC     H6Y      HAL2     0.900000E-01   1.00800           0
      7568 MEMB     17       SLPC     C37      CTL2    -0.180000       12.0110           0
      7569 MEMB     17       SLPC     H7X      HAL2     0.900000E-01   1.00800           0
      7570 MEMB     17       SLPC     H7Y      HAL2     0.900000E-01   1.00800           0
      7571 MEMB     17       SLPC     C38      CTL2    -0.180000       12.0110           0
      7572 MEMB     17       SLPC     H8X      HAL2     0.900000E-01   1.00800           0
      7573 MEMB     17       SLPC     H8Y      HAL2     0.900000E-01   1.00800           0
      7574 MEMB     17       SLPC     C39      CTL2    -0.180000       12.0110           0
      7575 MEMB     17       SLPC     H9X      HAL2     0.900000E-01   1.00800           0
      7576 MEMB     17       SLPC     H9Y      HAL2     0.900000E-01   1.00800           0
      7577 MEMB     17       SLPC     C310     CTL2    -0.180000       12.0110           0
      7578 MEMB     17       SLPC     H10X     HAL2     0.900000E-01   1.00800           0
      7579 MEMB     17       SLPC     H10Y     HAL2     0.900000E-01   1.00800           0
      7580 MEMB     17       SLPC     C311     CTL2    -0.180000       12.0110           0
      7581 MEMB     17       SLPC     H11X     HAL2     0.900000E-01   1.00800           0
      7582 MEMB     17       SLPC     H11Y     HAL2     0.900000E-01   1.00800           0
      7583 MEMB     17       SLPC     C312     CTL2    -0.180000       12.0110           0
      7584 MEMB     17       SLPC     H12X     HAL2     0.900000E-01   1.00800           0
      7585 MEMB     17       SLPC     H12Y     HAL2     0.900000E-01   1.00800           0
      7586 MEMB     17       SLPC     C313     CTL2    -0.180000       12.0110           0
      7587 MEMB     17       SLPC     H13X     HAL2     0.900000E-01   1.00800           0
      7588 MEMB     17       SLPC     H13Y     HAL2     0.900000E-01   1.00800           0
      7589 MEMB     17       SLPC     C314     CTL2    -0.180000       12.0110           0
      7590 MEMB     17       SLPC     H14X     HAL2     0.900000E-01   1.00800           0
      7591 MEMB     17       SLPC     H14Y     HAL2     0.900000E-01   1.00800           0
      7592 MEMB     17       SLPC     C315     CTL2    -0.180000       12.0110           0
      7593 MEMB     17       SLPC     H15X     HAL2     0.900000E-01   1.00800           0
      7594 MEMB     17       SLPC     H15Y     HAL2     0.900000E-01   1.00800           0
      7595 MEMB     17       SLPC     C316     CTL2    -0.180000       12.0110           0
      7596 MEMB     17       SLPC     H16X     HAL2     0.900000E-01   1.00800           0
      7597 MEMB     17       SLPC     H16Y     HAL2     0.900000E-01   1.00800           0
      7598 MEMB     17       SLPC     C317     CTL2    -0.180000       12.0110           0
      7599 MEMB     17       SLPC     H17X     HAL2     0.900000E-01   1.00800           0
      7600 MEMB     17       SLPC     H17Y     HAL2     0.900000E-01   1.00800           0
      7601 MEMB     17       SLPC     C318     CTL3    -0.270000       12.0110           0
      7602 MEMB     17       SLPC     H18X     HAL3     0.900000E-01   1.00800           0
      7603 MEMB     17       SLPC     H18Y     HAL3     0.900000E-01   1.00800           0
      7604 MEMB     17       SLPC     H18Z     HAL3     0.900000E-01   1.00800           0
      7605 MEMB     45       SLPC     N        NTL     -0.600000       14.0070           0
      7606 MEMB     45       SLPC     C13      CTL5    -0.350000       12.0110           0
      7607 MEMB     45       SLPC     H13A     HL       0.250000       1.00800           0
      7608 MEMB     45       SLPC     H13B     HL       0.250000       1.00800           0
      7609 MEMB     45       SLPC     H13C     HL       0.250000       1.00800           0
      7610 MEMB     45       SLPC     C14      CTL5    -0.350000       12.0110           0
      7611 MEMB     45       SLPC     H14A     HL       0.250000       1.00800           0
      7612 MEMB     45       SLPC     H14B     HL       0.250000       1.00800           0
      7613 MEMB     45       SLPC     H14C     HL       0.250000       1.00800           0
      7614 MEMB     45       SLPC     C15      CTL5    -0.350000       12.0110           0
      7615 MEMB     45       SLPC     H15A     HL       0.250000       1.00800           0
      7616 MEMB     45       SLPC     H15B     HL       0.250000       1.00800           0
      7617 MEMB     45       SLPC     H15C     HL       0.250000       1.00800           0
      7618 MEMB     45       SLPC     C12      CTL2    -0.100000       12.0110           0
      7619 MEMB     45       SLPC     H12A     HL       0.250000       1.00800           0
      7620 MEMB     45       SLPC     H12B     HL       0.250000       1.00800           0
      7621 MEMB     45       SLPC     C11      CTL2    -0.800000E-01   12.0110           0
      7622 MEMB     45       SLPC     H11A     HAL2     0.900000E-01   1.00800           0
      7623 MEMB     45       SLPC     H11B     HAL2     0.900000E-01   1.00800           0
      7624 MEMB     45       SLPC     P        PL       1.500000       30.9740           0
      7625 MEMB     45       SLPC     O13      O2L     -0.780000       15.9994           0
      7626 MEMB     45       SLPC     O14      O2L     -0.780000       15.9994           0
      7627 MEMB     45       SLPC     O12      OSLP    -0.570000       15.9994           0
      7628 MEMB     45       SLPC     O11      OSLP    -0.570000       15.9994           0
      7629 MEMB     45       SLPC     C1       CTL2    -0.800000E-01   12.0110           0
      7630 MEMB     45       SLPC     HA       HAL2     0.900000E-01   1.00800           0
      7631 MEMB     45       SLPC     HB       HAL2     0.900000E-01   1.00800           0
      7632 MEMB     45       SLPC     C2       CTL1     0.170000       12.0110           0
      7633 MEMB     45       SLPC     HS       HAL1     0.900000E-01   1.00800           0
      7634 MEMB     45       SLPC     O21      OSL     -0.490000       15.9994           0
      7635 MEMB     45       SLPC     C21      CL       0.900000       12.0110           0
      7636 MEMB     45       SLPC     O22      OBL     -0.630000       15.9994           0
      7637 MEMB     45       SLPC     C22      CTL2    -0.220000       12.0110           0
      7638 MEMB     45       SLPC     H2R      HAL2     0.900000E-01   1.00800           0
      7639 MEMB     45       SLPC     H2S      HAL2     0.900000E-01   1.00800           0
      7640 MEMB     45       SLPC     C3       CTL2     0.800000E-01   12.0110           0
      7641 MEMB     45       SLPC     HX       HAL2     0.900000E-01   1.00800           0
      7642 MEMB     45       SLPC     HY       HAL2     0.900000E-01   1.00800           0
      7643 MEMB     45       SLPC     O31      OSL     -0.490000       15.9994           0
      7644 MEMB     45       SLPC     C31      CL       0.900000       12.0110           0
      7645 MEMB     45       SLPC     O32      OBL     -0.630000       15.9994           0
      7646 MEMB     45       SLPC     C32      CTL2    -0.220000       12.0110           0
      7647 MEMB     45       SLPC     H2X      HAL2     0.900000E-01   1.00800           0
      7648 MEMB     45       SLPC     H2Y      HAL2     0.900000E-01   1.00800           0
      7649 MEMB     45       SLPC     C23      CTL2    -0.180000       12.0110           0
      7650 MEMB     45       SLPC     H3R      HAL2     0.900000E-01   1.00800           0
      7651 MEMB     45       SLPC     H3S      HAL2     0.900000E-01   1.00800           0
      7652 MEMB     45       SLPC     C24      CTL2    -0.180000       12.0110           0
      7653 MEMB     45       SLPC     H4R      HAL2     0.900000E-01   1.00800           0
      7654 MEMB     45       SLPC     H4S      HAL2     0.900000E-01   1.00800           0
      7655 MEMB     45       SLPC     C25      CTL2    -0.180000       12.0110           0
      7656 MEMB     45       SLPC     H5R      HAL2     0.900000E-01   1.00800           0
      7657 MEMB     45       SLPC     H5S      HAL2     0.900000E-01   1.00800           0
      7658 MEMB     45       SLPC     C26      CTL2    -0.180000       12.0110           0
      7659 MEMB     45       SLPC     H6R      HAL2     0.900000E-01   1.00800           0
      7660 MEMB     45       SLPC     H6S      HAL2     0.900000E-01   1.00800           0
      7661 MEMB     45       SLPC     C27      CTL2    -0.180000       12.0110           0
      7662 MEMB     45       SLPC     H7R      HAL2     0.900000E-01   1.00800           0
      7663 MEMB     45       SLPC     H7S      HAL2     0.900000E-01   1.00800           0
      7664 MEMB     45       SLPC     C28      CTL2    -0.180000       12.0110           0
      7665 MEMB     45       SLPC     H8R      HAL2     0.900000E-01   1.00800           0
      7666 MEMB     45       SLPC     H8S      HAL2     0.900000E-01   1.00800           0
      7667 MEMB     45       SLPC     C29      CEL1    -0.150000       12.0110           0
      7668 MEMB     45       SLPC     H9R      HEL1     0.150000       1.00800           0
      7669 MEMB     45       SLPC     C210     CEL1    -0.150000       12.0110           0
      7670 MEMB     45       SLPC     H10R     HEL1     0.150000       1.00800           0
      7671 MEMB     45       SLPC     C211     CTL2    -0.180000       12.0110           0
      7672 MEMB     45       SLPC     H11R     HAL2     0.900000E-01   1.00800           0
      7673 MEMB     45       SLPC     H11S     HAL2     0.900000E-01   1.00800           0
      7674 MEMB     45       SLPC     C212     CEL1    -0.150000       12.0110           0
      7675 MEMB     45       SLPC     H12R     HEL1     0.150000       1.00800           0
      7676 MEMB     45       SLPC     C213     CEL1    -0.150000       12.0110           0
      7677 MEMB     45       SLPC     H13R     HEL1     0.150000       1.00800           0
      7678 MEMB     45       SLPC     C214     CTL2    -0.180000       12.0110           0
      7679 MEMB     45       SLPC     H14R     HAL2     0.900000E-01   1.00800           0
      7680 MEMB     45       SLPC     H14S     HAL2     0.900000E-01   1.00800           0
      7681 MEMB     45       SLPC     C215     CTL2    -0.180000       12.0110           0
      7682 MEMB     45       SLPC     H15R     HAL2     0.900000E-01   1.00800           0
      7683 MEMB     45       SLPC     H15S     HAL2     0.900000E-01   1.00800           0
      7684 MEMB     45       SLPC     C216     CTL2    -0.180000       12.0110           0
      7685 MEMB     45       SLPC     H16R     HAL2     0.900000E-01   1.00800           0
      7686 MEMB     45       SLPC     H16S     HAL2     0.900000E-01   1.00800           0
      7687 MEMB     45       SLPC     C217     CTL2    -0.180000       12.0110           0
      7688 MEMB     45       SLPC     H17R     HAL2     0.900000E-01   1.00800           0
      7689 MEMB     45       SLPC     H17S     HAL2     0.900000E-01   1.00800           0
      7690 MEMB     45       SLPC     C218     CTL3    -0.270000       12.0110           0
      7691 MEMB     45       SLPC     H18R     HAL3     0.900000E-01   1.00800           0
      7692 MEMB     45       SLPC     H18S     HAL3     0.900000E-01   1.00800           0
      7693 MEMB     45       SLPC     H18T     HAL3     0.900000E-01   1.00800           0
      7694 MEMB     45       SLPC     C33      CTL2    -0.180000       12.0110           0
      7695 MEMB     45       SLPC     H3X      HAL2     0.900000E-01   1.00800           0
      7696 MEMB     45       SLPC     H3Y      HAL2     0.900000E-01   1.00800           0
      7697 MEMB     45       SLPC     C34      CTL2    -0.180000       12.0110           0
      7698 MEMB     45       SLPC     H4X      HAL2     0.900000E-01   1.00800           0
      7699 MEMB     45       SLPC     H4Y      HAL2     0.900000E-01   1.00800           0
      7700 MEMB     45       SLPC     C35      CTL2    -0.180000       12.0110           0
      7701 MEMB     45       SLPC     H5X      HAL2     0.900000E-01   1.00800           0
      7702 MEMB     45       SLPC     H5Y      HAL2     0.900000E-01   1.00800           0
      7703 MEMB     45       SLPC     C36      CTL2    -0.180000       12.0110           0
      7704 MEMB     45       SLPC     H6X      HAL2     0.900000E-01   1.00800           0
      7705 MEMB     45       SLPC     H6Y      HAL2     0.900000E-01   1.00800           0
      7706 MEMB     45       SLPC     C37      CTL2    -0.180000       12.0110           0
      7707 MEMB     45       SLPC     H7X      HAL2     0.900000E-01   1.00800           0
      7708 MEMB     45       SLPC     H7Y      HAL2     0.900000E-01   1.00800           0
      7709 MEMB     45       SLPC     C38      CTL2    -0.180000       12.0110           0
      7710 MEMB     45       SLPC     H8X      HAL2     0.900000E-01   1.00800           0
      7711 MEMB     45       SLPC     H8Y      HAL2     0.900000E-01   1.00800           0
      7712 MEMB     45       SLPC     C39      CTL2    -0.180000       12.0110           0
      7713 MEMB     45       SLPC     H9X      HAL2     0.900000E-01   1.00800           0
      7714 MEMB     45       SLPC     H9Y      HAL2     0.900000E-01   1.00800           0
      7715 MEMB     45       SLPC     C310     CTL2    -0.180000       12.0110           0
      7716 MEMB     45       SLPC     H10X     HAL2     0.900000E-01   1.00800           0
      7717 MEMB     45       SLPC     H10Y     HAL2     0.900000E-01   1.00800           0
      7718 MEMB     45       SLPC     C311     CTL2    -0.180000       12.0110           0
      7719 MEMB     45       SLPC     H11X     HAL2     0.900000E-01   1.00800           0
      7720 MEMB     45       SLPC     H11Y     HAL2     0.900000E-01   1.00800           0
      7721 MEMB     45       SLPC     C312     CTL2    -0.180000       12.0110           0
      7722 MEMB     45       SLPC     H12X     HAL2     0.900000E-01   1.00800           0
      7723 MEMB     45       SLPC     H12Y     HAL2     0.900000E-01   1.00800           0
      7724 MEMB     45       SLPC     C313     CTL2    -0.180000       12.0110           0
      7725 MEMB     45       SLPC     H13X     HAL2     0.900000E-01   1.00800           0
      7726 MEMB     45       SLPC     H13Y     HAL2     0.900000E-01   1.00800           0
      7727 MEMB     45       SLPC     C314     CTL2    -0.180000       12.0110           0
      7728 MEMB     45       SLPC     H14X     HAL2     0.900000E-01   1.00800           0
      7729 MEMB     45       SLPC     H14Y     HAL2     0.900000E-01   1.00800           0
      7730 MEMB     45       SLPC     C315     CTL2    -0.180000       12.0110           0
      7731 MEMB     45       SLPC     H15X     HAL2     0.900000E-01   1.00800           0
      7732 MEMB     45       SLPC     H15Y     HAL2     0.900000E-01   1.00800           0
      7733 MEMB     45       SLPC     C316     CTL2    -0.180000       12.0110           0
      7734 MEMB     45       SLPC     H16X     HAL2     0.900000E-01   1.00800           0
      7735 MEMB     45       SLPC     H16Y     HAL2     0.900000E-01   1.00800           0
      7736 MEMB     45       SLPC     C317     CTL2    -0.180000       12.0110           0
      7737 MEMB     45       SLPC     H17X     HAL2     0.900000E-01   1.00800           0
      7738 MEMB     45       SLPC     H17Y     HAL2     0.900000E-01   1.00800           0
      7739 MEMB     45       SLPC     C318     CTL3    -0.270000       12.0110           0
      7740 MEMB     45       SLPC     H18X     HAL3     0.900000E-01   1.00800           0
      7741 MEMB     45       SLPC     H18Y     HAL3     0.900000E-01   1.00800           0
      7742 MEMB     45       SLPC     H18Z     HAL3     0.900000E-01   1.00800           0
      7743 MEMB     47       SLPC     N        NTL     -0.600000       14.0070           0
      7744 MEMB     47       SLPC     C13      CTL5    -0.350000       12.0110           0
      7745 MEMB     47       SLPC     H13A     HL       0.250000       1.00800           0
      7746 MEMB     47       SLPC     H13B     HL       0.250000       1.00800           0
      7747 MEMB     47       SLPC     H13C     HL       0.250000       1.00800           0
      7748 MEMB     47       SLPC     C14      CTL5    -0.350000       12.0110           0
      7749 MEMB     47       SLPC     H14A     HL       0.250000       1.00800           0
      7750 MEMB     47       SLPC     H14B     HL       0.250000       1.00800           0
      7751 MEMB     47       SLPC     H14C     HL       0.250000       1.00800           0
      7752 MEMB     47       SLPC     C15      CTL5    -0.350000       12.0110           0
      7753 MEMB     47       SLPC     H15A     HL       0.250000       1.00800           0
      7754 MEMB     47       SLPC     H15B     HL       0.250000       1.00800           0
      7755 MEMB     47       SLPC     H15C     HL       0.250000       1.00800           0
      7756 MEMB     47       SLPC     C12      CTL2    -0.100000       12.0110           0
      7757 MEMB     47       SLPC     H12A     HL       0.250000       1.00800           0
      7758 MEMB     47       SLPC     H12B     HL       0.250000       1.00800           0
      7759 MEMB     47       SLPC     C11      CTL2    -0.800000E-01   12.0110           0
      7760 MEMB     47       SLPC     H11A     HAL2     0.900000E-01   1.00800           0
      7761 MEMB     47       SLPC     H11B     HAL2     0.900000E-01   1.00800           0
      7762 MEMB     47       SLPC     P        PL       1.500000       30.9740           0
      7763 MEMB     47       SLPC     O13      O2L     -0.780000       15.9994           0
      7764 MEMB     47       SLPC     O14      O2L     -0.780000       15.9994           0
      7765 MEMB     47       SLPC     O12      OSLP    -0.570000       15.9994           0
      7766 MEMB     47       SLPC     O11      OSLP    -0.570000       15.9994           0
      7767 MEMB     47       SLPC     C1       CTL2    -0.800000E-01   12.0110           0
      7768 MEMB     47       SLPC     HA       HAL2     0.900000E-01   1.00800           0
      7769 MEMB     47       SLPC     HB       HAL2     0.900000E-01   1.00800           0
      7770 MEMB     47       SLPC     C2       CTL1     0.170000       12.0110           0
      7771 MEMB     47       SLPC     HS       HAL1     0.900000E-01   1.00800           0
      7772 MEMB     47       SLPC     O21      OSL     -0.490000       15.9994           0
      7773 MEMB     47       SLPC     C21      CL       0.900000       12.0110           0
      7774 MEMB     47       SLPC     O22      OBL     -0.630000       15.9994           0
      7775 MEMB     47       SLPC     C22      CTL2    -0.220000       12.0110           0
      7776 MEMB     47       SLPC     H2R      HAL2     0.900000E-01   1.00800           0
      7777 MEMB     47       SLPC     H2S      HAL2     0.900000E-01   1.00800           0
      7778 MEMB     47       SLPC     C3       CTL2     0.800000E-01   12.0110           0
      7779 MEMB     47       SLPC     HX       HAL2     0.900000E-01   1.00800           0
      7780 MEMB     47       SLPC     HY       HAL2     0.900000E-01   1.00800           0
      7781 MEMB     47       SLPC     O31      OSL     -0.490000       15.9994           0
      7782 MEMB     47       SLPC     C31      CL       0.900000       12.0110           0
      7783 MEMB     47       SLPC     O32      OBL     -0.630000       15.9994           0
      7784 MEMB     47       SLPC     C32      CTL2    -0.220000       12.0110           0
      7785 MEMB     47       SLPC     H2X      HAL2     0.900000E-01   1.00800           0
      7786 MEMB     47       SLPC     H2Y      HAL2     0.900000E-01   1.00800           0
      7787 MEMB     47       SLPC     C23      CTL2    -0.180000       12.0110           0
      7788 MEMB     47       SLPC     H3R      HAL2     0.900000E-01   1.00800           0
      7789 MEMB     47       SLPC     H3S      HAL2     0.900000E-01   1.00800           0
      7790 MEMB     47       SLPC     C24      CTL2    -0.180000       12.0110           0
      7791 MEMB     47       SLPC     H4R      HAL2     0.900000E-01   1.00800           0
      7792 MEMB     47       SLPC     H4S      HAL2     0.900000E-01   1.00800           0
      7793 MEMB     47       SLPC     C25      CTL2    -0.180000       12.0110           0
      7794 MEMB     47       SLPC     H5R      HAL2     0.900000E-01   1.00800           0
      7795 MEMB     47       SLPC     H5S      HAL2     0.900000E-01   1.00800           0
      7796 MEMB     47       SLPC     C26      CTL2    -0.180000       12.0110           0
      7797 MEMB     47       SLPC     H6R      HAL2     0.900000E-01   1.00800           0
      7798 MEMB     47       SLPC     H6S      HAL2     0.900000E-01   1.00800           0
      7799 MEMB     47       SLPC     C27      CTL2    -0.180000       12.0110           0
      7800 MEMB     47       SLPC     H7R      HAL2     0.900000E-01   1.00800           0
      7801 MEMB     47       SLPC     H7S      HAL2     0.900000E-01   1.00800           0
      7802 MEMB     47       SLPC     C28      CTL2    -0.180000       12.0110           0
      7803 MEMB     47       SLPC     H8R      HAL2     0.900000E-01   1.00800           0
      7804 MEMB     47       SLPC     H8S      HAL2     0.900000E-01   1.00800           0
      7805 MEMB     47       SLPC     C29      CEL1    -0.150000       12.0110           0
      7806 MEMB     47       SLPC     H9R      HEL1     0.150000       1.00800           0
      7807 MEMB     47       SLPC     C210     CEL1    -0.150000       12.0110           0
      7808 MEMB     47       SLPC     H10R     HEL1     0.150000       1.00800           0
      7809 MEMB     47       SLPC     C211     CTL2    -0.180000       12.0110           0
      7810 MEMB     47       SLPC     H11R     HAL2     0.900000E-01   1.00800           0
      7811 MEMB     47       SLPC     H11S     HAL2     0.900000E-01   1.00800           0
      7812 MEMB     47       SLPC     C212     CEL1    -0.150000       12.0110           0
      7813 MEMB     47       SLPC     H12R     HEL1     0.150000       1.00800           0
      7814 MEMB     47       SLPC     C213     CEL1    -0.150000       12.0110           0
      7815 MEMB     47       SLPC     H13R     HEL1     0.150000       1.00800           0
      7816 MEMB     47       SLPC     C214     CTL2    -0.180000       12.0110           0
      7817 MEMB     47       SLPC     H14R     HAL2     0.900000E-01   1.00800           0
      7818 MEMB     47       SLPC     H14S     HAL2     0.900000E-01   1.00800           0
      7819 MEMB     47       SLPC     C215     CTL2    -0.180000       12.0110           0
      7820 MEMB     47       SLPC     H15R     HAL2     0.900000E-01   1.00800           0
      7821 MEMB     47       SLPC     H15S     HAL2     0.900000E-01   1.00800           0
      7822 MEMB     47       SLPC     C216     CTL2    -0.180000       12.0110           0
      7823 MEMB     47       SLPC     H16R     HAL2     0.900000E-01   1.00800           0
      7824 MEMB     47       SLPC     H16S     HAL2     0.900000E-01   1.00800           0
      7825 MEMB     47       SLPC     C217     CTL2    -0.180000       12.0110           0
      7826 MEMB     47       SLPC     H17R     HAL2     0.900000E-01   1.00800           0
      7827 MEMB     47       SLPC     H17S     HAL2     0.900000E-01   1.00800           0
      7828 MEMB     47       SLPC     C218     CTL3    -0.270000       12.0110           0
      7829 MEMB     47       SLPC     H18R     HAL3     0.900000E-01   1.00800           0
      7830 MEMB     47       SLPC     H18S     HAL3     0.900000E-01   1.00800           0
      7831 MEMB     47       SLPC     H18T     HAL3     0.900000E-01   1.00800           0
      7832 MEMB     47       SLPC     C33      CTL2    -0.180000       12.0110           0
      7833 MEMB     47       SLPC     H3X      HAL2     0.900000E-01   1.00800           0
      7834 MEMB     47       SLPC     H3Y      HAL2     0.900000E-01   1.00800           0
      7835 MEMB     47       SLPC     C34      CTL2    -0.180000       12.0110           0
      7836 MEMB     47       SLPC     H4X      HAL2     0.900000E-01   1.00800           0
      7837 MEMB     47       SLPC     H4Y      HAL2     0.900000E-01   1.00800           0
      7838 MEMB     47       SLPC     C35      CTL2    -0.180000       12.0110           0
      7839 MEMB     47       SLPC     H5X      HAL2     0.900000E-01   1.00800           0
      7840 MEMB     47       SLPC     H5Y      HAL2     0.900000E-01   1.00800           0
      7841 MEMB     47       SLPC     C36      CTL2    -0.180000       12.0110           0
      7842 MEMB     47       SLPC     H6X      HAL2     0.900000E-01   1.00800           0
      7843 MEMB     47       SLPC     H6Y      HAL2     0.900000E-01   1.00800           0
      7844 MEMB     47       SLPC     C37      CTL2    -0.180000       12.0110           0
      7845 MEMB     47       SLPC     H7X      HAL2     0.900000E-01   1.00800           0
      7846 MEMB     47       SLPC     H7Y      HAL2     0.900000E-01   1.00800           0
      7847 MEMB     47       SLPC     C38      CTL2    -0.180000       12.0110           0
      7848 MEMB     47       SLPC     H8X      HAL2     0.900000E-01   1.00800           0
      7849 MEMB     47       SLPC     H8Y      HAL2     0.900000E-01   1.00800           0
      7850 MEMB     47       SLPC     C39      CTL2    -0.180000       12.0110           0
      7851 MEMB     47       SLPC     H9X      HAL2     0.900000E-01   1.00800           0
      7852 MEMB     47       SLPC     H9Y      HAL2     0.900000E-01   1.00800           0
      7853 MEMB     47       SLPC     C310     CTL2    -0.180000       12.0110           0
      7854 MEMB     47       SLPC     H10X     HAL2     0.900000E-01   1.00800           0
      7855 MEMB     47       SLPC     H10Y     HAL2     0.900000E-01   1.00800           0
      7856 MEMB     47       SLPC     C311     CTL2    -0.180000       12.0110           0
      7857 MEMB     47       SLPC     H11X     HAL2     0.900000E-01   1.00800           0
      7858 MEMB     47       SLPC     H11Y     HAL2     0.900000E-01   1.00800           0
      7859 MEMB     47       SLPC     C312     CTL2    -0.180000       12.0110           0
      7860 MEMB     47       SLPC     H12X     HAL2     0.900000E-01   1.00800           0
      7861 MEMB     47       SLPC     H12Y     HAL2     0.900000E-01   1.00800           0
      7862 MEMB     47       SLPC     C313     CTL2    -0.180000       12.0110           0
      7863 MEMB     47       SLPC     H13X     HAL2     0.900000E-01   1.00800           0
      7864 MEMB     47       SLPC     H13Y     HAL2     0.900000E-01   1.00800           0
      7865 MEMB     47       SLPC     C314     CTL2    -0.180000       12.0110           0
      7866 MEMB     47       SLPC     H14X     HAL2     0.900000E-01   1.00800           0
      7867 MEMB     47       SLPC     H14Y     HAL2     0.900000E-01   1.00800           0
      7868 MEMB     47       SLPC     C315     CTL2    -0.180000       12.0110           0
      7869 MEMB     47       SLPC     H15X     HAL2     0.900000E-01   1.00800           0
      7870 MEMB     47       SLPC     H15Y     HAL2     0.900000E-01   1.00800           0
      7871 MEMB     47       SLPC     C316     CTL2    -0.180000       12.0110           0
      7872 MEMB     47       SLPC     H16X     HAL2     0.900000E-01   1.00800           0
      7873 MEMB     47       SLPC     H16Y     HAL2     0.900000E-01   1.00800           0
      7874 MEMB     47       SLPC     C317     CTL2    -0.180000       12.0110           0
      7875 MEMB     47       SLPC     H17X     HAL2     0.900000E-01   1.00800           0
      7876 MEMB     47       SLPC     H17Y     HAL2     0.900000E-01   1.00800           0
      7877 MEMB     47       SLPC     C318     CTL3    -0.270000       12.0110           0
      7878 MEMB     47       SLPC     H18X     HAL3     0.900000E-01   1.00800           0
      7879 MEMB     47       SLPC     H18Y     HAL3     0.900000E-01   1.00800           0
      7880 MEMB     47       SLPC     H18Z     HAL3     0.900000E-01   1.00800           0
      7881 MEMB     57       SLPC     N        NTL     -0.600000       14.0070           0
      7882 MEMB     57       SLPC     C13      CTL5    -0.350000       12.0110           0
      7883 MEMB     57       SLPC     H13A     HL       0.250000       1.00800           0
      7884 MEMB     57       SLPC     H13B     HL       0.250000       1.00800           0
      7885 MEMB     57       SLPC     H13C     HL       0.250000       1.00800           0
      7886 MEMB     57       SLPC     C14      CTL5    -0.350000       12.0110           0
      7887 MEMB     57       SLPC     H14A     HL       0.250000       1.00800           0
      7888 MEMB     57       SLPC     H14B     HL       0.250000       1.00800           0
      7889 MEMB     57       SLPC     H14C     HL       0.250000       1.00800           0
      7890 MEMB     57       SLPC     C15      CTL5    -0.350000       12.0110           0
      7891 MEMB     57       SLPC     H15A     HL       0.250000       1.00800           0
      7892 MEMB     57       SLPC     H15B     HL       0.250000       1.00800           0
      7893 MEMB     57       SLPC     H15C     HL       0.250000       1.00800           0
      7894 MEMB     57       SLPC     C12      CTL2    -0.100000       12.0110           0
      7895 MEMB     57       SLPC     H12A     HL       0.250000       1.00800           0
      7896 MEMB     57       SLPC     H12B     HL       0.250000       1.00800           0
      7897 MEMB     57       SLPC     C11      CTL2    -0.800000E-01   12.0110           0
      7898 MEMB     57       SLPC     H11A     HAL2     0.900000E-01   1.00800           0
      7899 MEMB     57       SLPC     H11B     HAL2     0.900000E-01   1.00800           0
      7900 MEMB     57       SLPC     P        PL       1.500000       30.9740           0
      7901 MEMB     57       SLPC     O13      O2L     -0.780000       15.9994           0
      7902 MEMB     57       SLPC     O14      O2L     -0.780000       15.9994           0
      7903 MEMB     57       SLPC     O12      OSLP    -0.570000       15.9994           0
      7904 MEMB     57       SLPC     O11      OSLP    -0.570000       15.9994           0
      7905 MEMB     57       SLPC     C1       CTL2    -0.800000E-01   12.0110           0
      7906 MEMB     57       SLPC     HA       HAL2     0.900000E-01   1.00800           0
      7907 MEMB     57       SLPC     HB       HAL2     0.900000E-01   1.00800           0
      7908 MEMB     57       SLPC     C2       CTL1     0.170000       12.0110           0
      7909 MEMB     57       SLPC     HS       HAL1     0.900000E-01   1.00800           0
      7910 MEMB     57       SLPC     O21      OSL     -0.490000       15.9994           0
      7911 MEMB     57       SLPC     C21      CL       0.900000       12.0110           0
      7912 MEMB     57       SLPC     O22      OBL     -0.630000       15.9994           0
      7913 MEMB     57       SLPC     C22      CTL2    -0.220000       12.0110           0
      7914 MEMB     57       SLPC     H2R      HAL2     0.900000E-01   1.00800           0
      7915 MEMB     57       SLPC     H2S      HAL2     0.900000E-01   1.00800           0
      7916 MEMB     57       SLPC     C3       CTL2     0.800000E-01   12.0110           0
      7917 MEMB     57       SLPC     HX       HAL2     0.900000E-01   1.00800           0
      7918 MEMB     57       SLPC     HY       HAL2     0.900000E-01   1.00800           0
      7919 MEMB     57       SLPC     O31      OSL     -0.490000       15.9994           0
      7920 MEMB     57       SLPC     C31      CL       0.900000       12.0110           0
      7921 MEMB     57       SLPC     O32      OBL     -0.630000       15.9994           0
      7922 MEMB     57       SLPC     C32      CTL2    -0.220000       12.0110           0
      7923 MEMB     57       SLPC     H2X      HAL2     0.900000E-01   1.00800           0
      7924 MEMB     57       SLPC     H2Y      HAL2     0.900000E-01   1.00800           0
      7925 MEMB     57       SLPC     C23      CTL2    -0.180000       12.0110           0
      7926 MEMB     57       SLPC     H3R      HAL2     0.900000E-01   1.00800           0
      7927 MEMB     57       SLPC     H3S      HAL2     0.900000E-01   1.00800           0
      7928 MEMB     57       SLPC     C24      CTL2    -0.180000       12.0110           0
      7929 MEMB     57       SLPC     H4R      HAL2     0.900000E-01   1.00800           0
      7930 MEMB     57       SLPC     H4S      HAL2     0.900000E-01   1.00800           0
      7931 MEMB     57       SLPC     C25      CTL2    -0.180000       12.0110           0
      7932 MEMB     57       SLPC     H5R      HAL2     0.900000E-01   1.00800           0
      7933 MEMB     57       SLPC     H5S      HAL2     0.900000E-01   1.00800           0
      7934 MEMB     57       SLPC     C26      CTL2    -0.180000       12.0110           0
      7935 MEMB     57       SLPC     H6R      HAL2     0.900000E-01   1.00800           0
      7936 MEMB     57       SLPC     H6S      HAL2     0.900000E-01   1.00800           0
      7937 MEMB     57       SLPC     C27      CTL2    -0.180000       12.0110           0
      7938 MEMB     57       SLPC     H7R      HAL2     0.900000E-01   1.00800           0
      7939 MEMB     57       SLPC     H7S      HAL2     0.900000E-01   1.00800           0
      7940 MEMB     57       SLPC     C28      CTL2    -0.180000       12.0110           0
      7941 MEMB     57       SLPC     H8R      HAL2     0.900000E-01   1.00800           0
      7942 MEMB     57       SLPC     H8S      HAL2     0.900000E-01   1.00800           0
      7943 MEMB     57       SLPC     C29      CEL1    -0.150000       12.0110           0
      7944 MEMB     57       SLPC     H9R      HEL1     0.150000       1.00800           0
      7945 MEMB     57       SLPC     C210     CEL1    -0.150000       12.0110           0
      7946 MEMB     57       SLPC     H10R     HEL1     0.150000       1.00800           0
      7947 MEMB     57       SLPC     C211     CTL2    -0.180000       12.0110           0
      7948 MEMB     57       SLPC     H11R     HAL2     0.900000E-01   1.00800           0
      7949 MEMB     57       SLPC     H11S     HAL2     0.900000E-01   1.00800           0
      7950 MEMB     57       SLPC     C212     CEL1    -0.150000       12.0110           0
      7951 MEMB     57       SLPC     H12R     HEL1     0.150000       1.00800           0
      7952 MEMB     57       SLPC     C213     CEL1    -0.150000       12.0110           0
      7953 MEMB     57       SLPC     H13R     HEL1     0.150000       1.00800           0
      7954 MEMB     57       SLPC     C214     CTL2    -0.180000       12.0110           0
      7955 MEMB     57       SLPC     H14R     HAL2     0.900000E-01   1.00800           0
      7956 MEMB     57       SLPC     H14S     HAL2     0.900000E-01   1.00800           0
      7957 MEMB     57       SLPC     C215     CTL2    -0.180000       12.0110           0
      7958 MEMB     57       SLPC     H15R     HAL2     0.900000E-01   1.00800           0
      7959 MEMB     57       SLPC     H15S     HAL2     0.900000E-01   1.00800           0
      7960 MEMB     57       SLPC     C216     CTL2    -0.180000       12.0110           0
      7961 MEMB     57       SLPC     H16R     HAL2     0.900000E-01   1.00800           0
      7962 MEMB     57       SLPC     H16S     HAL2     0.900000E-01   1.00800           0
      7963 MEMB     57       SLPC     C217     CTL2    -0.180000       12.0110           0
      7964 MEMB     57       SLPC     H17R     HAL2     0.900000E-01   1.00800           0
      7965 MEMB     57       SLPC     H17S     HAL2     0.900000E-01   1.00800           0
      7966 MEMB     57       SLPC     C218     CTL3    -0.270000       12.0110           0
      7967 MEMB     57       SLPC     H18R     HAL3     0.900000E-01   1.00800           0
      7968 MEMB     57       SLPC     H18S     HAL3     0.900000E-01   1.00800           0
      7969 MEMB     57       SLPC     H18T     HAL3     0.900000E-01   1.00800           0
      7970 MEMB     57       SLPC     C33      CTL2    -0.180000       12.0110           0
      7971 MEMB     57       SLPC     H3X      HAL2     0.900000E-01   1.00800           0
      7972 MEMB     57       SLPC     H3Y      HAL2     0.900000E-01   1.00800           0
      7973 MEMB     57       SLPC     C34      CTL2    -0.180000       12.0110           0
      7974 MEMB     57       SLPC     H4X      HAL2     0.900000E-01   1.00800           0
      7975 MEMB     57       SLPC     H4Y      HAL2     0.900000E-01   1.00800           0
      7976 MEMB     57       SLPC     C35      CTL2    -0.180000       12.0110           0
      7977 MEMB     57       SLPC     H5X      HAL2     0.900000E-01   1.00800           0
      7978 MEMB     57       SLPC     H5Y      HAL2     0.900000E-01   1.00800           0
      7979 MEMB     57       SLPC     C36      CTL2    -0.180000       12.0110           0
      7980 MEMB     57       SLPC     H6X      HAL2     0.900000E-01   1.00800           0
      7981 MEMB     57       SLPC     H6Y      HAL2     0.900000E-01   1.00800           0
      7982 MEMB     57       SLPC     C37      CTL2    -0.180000       12.0110           0
      7983 MEMB     57       SLPC     H7X      HAL2     0.900000E-01   1.00800           0
      7984 MEMB     57       SLPC     H7Y      HAL2     0.900000E-01   1.00800           0
      7985 MEMB     57       SLPC     C38      CTL2    -0.180000       12.0110           0
      7986 MEMB     57       SLPC     H8X      HAL2     0.900000E-01   1.00800           0
      7987 MEMB     57       SLPC     H8Y      HAL2     0.900000E-01   1.00800           0
      7988 MEMB     57       SLPC     C39      CTL2    -0.180000       12.0110           0
      7989 MEMB     57       SLPC     H9X      HAL2     0.900000E-01   1.00800           0
      7990 MEMB     57       SLPC     H9Y      HAL2     0.900000E-01   1.00800           0
      7991 MEMB     57       SLPC     C310     CTL2    -0.180000       12.0110           0
      7992 MEMB     57       SLPC     H10X     HAL2     0.900000E-01   1.00800           0
      7993 MEMB     57       SLPC     H10Y     HAL2     0.900000E-01   1.00800           0
      7994 MEMB     57       SLPC     C311     CTL2    -0.180000       12.0110           0
      7995 MEMB     57       SLPC     H11X     HAL2     0.900000E-01   1.00800           0
      7996 MEMB     57       SLPC     H11Y     HAL2     0.900000E-01   1.00800           0
      7997 MEMB     57       SLPC     C312     CTL2    -0.180000       12.0110           0
      7998 MEMB     57       SLPC     H12X     HAL2     0.900000E-01   1.00800           0
      7999 MEMB     57       SLPC     H12Y     HAL2     0.900000E-01   1.00800           0
      8000 MEMB     57       SLPC     C313     CTL2    -0.180000       12.0110           0
      8001 MEMB     57       SLPC     H13X     HAL2     0.900000E-01   1.00800           0
      8002 MEMB     57       SLPC     H13Y     HAL2     0.900000E-01   1.00800           0
      8003 MEMB     57       SLPC     C314     CTL2    -0.180000       12.0110           0
      8004 MEMB     57       SLPC     H14X     HAL2     0.900000E-01   1.00800           0
      8005 MEMB     57       SLPC     H14Y     HAL2     0.900000E-01   1.00800           0
      8006 MEMB     57       SLPC     C315     CTL2    -0.180000       12.0110           0
      8007 MEMB     57       SLPC     H15X     HAL2     0.900000E-01   1.00800           0
      8008 MEMB     57       SLPC     H15Y     HAL2     0.900000E-01   1.00800           0
      8009 MEMB     57       SLPC     C316     CTL2    -0.180000       12.0110           0
      8010 MEMB     57       SLPC     H16X     HAL2     0.900000E-01   1.00800           0
      8011 MEMB     57       SLPC     H16Y     HAL2     0.900000E-01   1.00800           0
      8012 MEMB     57       SLPC     C317     CTL2    -0.180000       12.0110           0
      8013 MEMB     57       SLPC     H17X     HAL2     0.900000E-01   1.00800           0
      8014 MEMB     57       SLPC     H17Y     HAL2     0.900000E-01   1.00800           0
      8015 MEMB     57       SLPC     C318     CTL3    -0.270000       12.0110           0
      8016 MEMB     57       SLPC     H18X     HAL3     0.900000E-01   1.00800           0
      8017 MEMB     57       SLPC     H18Y     HAL3     0.900000E-01   1.00800           0
      8018 MEMB     57       SLPC     H18Z     HAL3     0.900000E-01   1.00800           0
      8019 MEMB     73       SLPC     N        NTL     -0.600000       14.0070           0
      8020 MEMB     73       SLPC     C13      CTL5    -0.350000       12.0110           0
      8021 MEMB     73       SLPC     H13A     HL       0.250000       1.00800           0
      8022 MEMB     73       SLPC     H13B     HL       0.250000       1.00800           0
      8023 MEMB     73       SLPC     H13C     HL       0.250000       1.00800           0
      8024 MEMB     73       SLPC     C14      CTL5    -0.350000       12.0110           0
      8025 MEMB     73       SLPC     H14A     HL       0.250000       1.00800           0
      8026 MEMB     73       SLPC     H14B     HL       0.250000       1.00800           0
      8027 MEMB     73       SLPC     H14C     HL       0.250000       1.00800           0
      8028 MEMB     73       SLPC     C15      CTL5    -0.350000       12.0110           0
      8029 MEMB     73       SLPC     H15A     HL       0.250000       1.00800           0
      8030 MEMB     73       SLPC     H15B     HL       0.250000       1.00800           0
      8031 MEMB     73       SLPC     H15C     HL       0.250000       1.00800           0
      8032 MEMB     73       SLPC     C12      CTL2    -0.100000       12.0110           0
      8033 MEMB     73       SLPC     H12A     HL       0.250000       1.00800           0
      8034 MEMB     73       SLPC     H12B     HL       0.250000       1.00800           0
      8035 MEMB     73       SLPC     C11      CTL2    -0.800000E-01   12.0110           0
      8036 MEMB     73       SLPC     H11A     HAL2     0.900000E-01   1.00800           0
      8037 MEMB     73       SLPC     H11B     HAL2     0.900000E-01   1.00800           0
      8038 MEMB     73       SLPC     P        PL       1.500000       30.9740           0
      8039 MEMB     73       SLPC     O13      O2L     -0.780000       15.9994           0
      8040 MEMB     73       SLPC     O14      O2L     -0.780000       15.9994           0
      8041 MEMB     73       SLPC     O12      OSLP    -0.570000       15.9994           0
      8042 MEMB     73       SLPC     O11      OSLP    -0.570000       15.9994           0
      8043 MEMB     73       SLPC     C1       CTL2    -0.800000E-01   12.0110           0
      8044 MEMB     73       SLPC     HA       HAL2     0.900000E-01   1.00800           0
      8045 MEMB     73       SLPC     HB       HAL2     0.900000E-01   1.00800           0
      8046 MEMB     73       SLPC     C2       CTL1     0.170000       12.0110           0
      8047 MEMB     73       SLPC     HS       HAL1     0.900000E-01   1.00800           0
      8048 MEMB     73       SLPC     O21      OSL     -0.490000       15.9994           0
      8049 MEMB     73       SLPC     C21      CL       0.900000       12.0110           0
      8050 MEMB     73       SLPC     O22      OBL     -0.630000       15.9994           0
      8051 MEMB     73       SLPC     C22      CTL2    -0.220000       12.0110           0
      8052 MEMB     73       SLPC     H2R      HAL2     0.900000E-01   1.00800           0
      8053 MEMB     73       SLPC     H2S      HAL2     0.900000E-01   1.00800           0
      8054 MEMB     73       SLPC     C3       CTL2     0.800000E-01   12.0110           0
      8055 MEMB     73       SLPC     HX       HAL2     0.900000E-01   1.00800           0
      8056 MEMB     73       SLPC     HY       HAL2     0.900000E-01   1.00800           0
      8057 MEMB     73       SLPC     O31      OSL     -0.490000       15.9994           0
      8058 MEMB     73       SLPC     C31      CL       0.900000       12.0110           0
      8059 MEMB     73       SLPC     O32      OBL     -0.630000       15.9994           0
      8060 MEMB     73       SLPC     C32      CTL2    -0.220000       12.0110           0
      8061 MEMB     73       SLPC     H2X      HAL2     0.900000E-01   1.00800           0
      8062 MEMB     73       SLPC     H2Y      HAL2     0.900000E-01   1.00800           0
      8063 MEMB     73       SLPC     C23      CTL2    -0.180000       12.0110           0
      8064 MEMB     73       SLPC     H3R      HAL2     0.900000E-01   1.00800           0
      8065 MEMB     73       SLPC     H3S      HAL2     0.900000E-01   1.00800           0
      8066 MEMB     73       SLPC     C24      CTL2    -0.180000       12.0110           0
      8067 MEMB     73       SLPC     H4R      HAL2     0.900000E-01   1.00800           0
      8068 MEMB     73       SLPC     H4S      HAL2     0.900000E-01   1.00800           0
      8069 MEMB     73       SLPC     C25      CTL2    -0.180000       12.0110           0
      8070 MEMB     73       SLPC     H5R      HAL2     0.900000E-01   1.00800           0
      8071 MEMB     73       SLPC     H5S      HAL2     0.900000E-01   1.00800           0
      8072 MEMB     73       SLPC     C26      CTL2    -0.180000       12.0110           0
      8073 MEMB     73       SLPC     H6R      HAL2     0.900000E-01   1.00800           0
      8074 MEMB     73       SLPC     H6S      HAL2     0.900000E-01   1.00800           0
      8075 MEMB     73       SLPC     C27      CTL2    -0.180000       12.0110           0
      8076 MEMB     73       SLPC     H7R      HAL2     0.900000E-01   1.00800           0
      8077 MEMB     73       SLPC     H7S      HAL2     0.900000E-01   1.00800           0
      8078 MEMB     73       SLPC     C28      CTL2    -0.180000       12.0110           0
      8079 MEMB     73       SLPC     H8R      HAL2     0.900000E-01   1.00800           0
      8080 MEMB     73       SLPC     H8S      HAL2     0.900000E-01   1.00800           0
      8081 MEMB     73       SLPC     C29      CEL1    -0.150000       12.0110           0
      8082 MEMB     73       SLPC     H9R      HEL1     0.150000       1.00800           0
      8083 MEMB     73       SLPC     C210     CEL1    -0.150000       12.0110           0
      8084 MEMB     73       SLPC     H10R     HEL1     0.150000       1.00800           0
      8085 MEMB     73       SLPC     C211     CTL2    -0.180000       12.0110           0
      8086 MEMB     73       SLPC     H11R     HAL2     0.900000E-01   1.00800           0
      8087 MEMB     73       SLPC     H11S     HAL2     0.900000E-01   1.00800           0
      8088 MEMB     73       SLPC     C212     CEL1    -0.150000       12.0110           0
      8089 MEMB     73       SLPC     H12R     HEL1     0.150000       1.00800           0
      8090 MEMB     73       SLPC     C213     CEL1    -0.150000       12.0110           0
      8091 MEMB     73       SLPC     H13R     HEL1     0.150000       1.00800           0
      8092 MEMB     73       SLPC     C214     CTL2    -0.180000       12.0110           0
      8093 MEMB     73       SLPC     H14R     HAL2     0.900000E-01   1.00800           0
      8094 MEMB     73       SLPC     H14S     HAL2     0.900000E-01   1.00800           0
      8095 MEMB     73       SLPC     C215     CTL2    -0.180000       12.0110           0
      8096 MEMB     73       SLPC     H15R     HAL2     0.900000E-01   1.00800           0
      8097 MEMB     73       SLPC     H15S     HAL2     0.900000E-01   1.00800           0
      8098 MEMB     73       SLPC     C216     CTL2    -0.180000       12.0110           0
      8099 MEMB     73       SLPC     H16R     HAL2     0.900000E-01   1.00800           0
      8100 MEMB     73       SLPC     H16S     HAL2     0.900000E-01   1.00800           0
      8101 MEMB     73       SLPC     C217     CTL2    -0.180000       12.0110           0
      8102 MEMB     73       SLPC     H17R     HAL2     0.900000E-01   1.00800           0
      8103 MEMB     73       SLPC     H17S     HAL2     0.900000E-01   1.00800           0
      8104 MEMB     73       SLPC     C218     CTL3    -0.270000       12.0110           0
      8105 MEMB     73       SLPC     H18R     HAL3     0.900000E-01   1.00800           0
      8106 MEMB     73       SLPC     H18S     HAL3     0.900000E-01   1.00800           0
      8107 MEMB     73       SLPC     H18T     HAL3     0.900000E-01   1.00800           0
      8108 MEMB     73       SLPC     C33      CTL2    -0.180000       12.0110           0
      8109 MEMB     73       SLPC     H3X      HAL2     0.900000E-01   1.00800           0
      8110 MEMB     73       SLPC     H3Y      HAL2     0.900000E-01   1.00800           0
      8111 MEMB     73       SLPC     C34      CTL2    -0.180000       12.0110           0
      8112 MEMB     73       SLPC     H4X      HAL2     0.900000E-01   1.00800           0
      8113 MEMB     73       SLPC     H4Y      HAL2     0.900000E-01   1.00800           0
      8114 MEMB     73       SLPC     C35      CTL2    -0.180000       12.0110           0
      8115 MEMB     73       SLPC     H5X      HAL2     0.900000E-01   1.00800           0
      8116 MEMB     73       SLPC     H5Y      HAL2     0.900000E-01   1.00800           0
      8117 MEMB     73       SLPC     C36      CTL2    -0.180000       12.0110           0
      8118 MEMB     73       SLPC     H6X      HAL2     0.900000E-01   1.00800           0
      8119 MEMB     73       SLPC     H6Y      HAL2     0.900000E-01   1.00800           0
      8120 MEMB     73       SLPC     C37      CTL2    -0.180000       12.0110           0
      8121 MEMB     73       SLPC     H7X      HAL2     0.900000E-01   1.00800           0
      8122 MEMB     73       SLPC     H7Y      HAL2     0.900000E-01   1.00800           0
      8123 MEMB     73       SLPC     C38      CTL2    -0.180000       12.0110           0
      8124 MEMB     73       SLPC     H8X      HAL2     0.900000E-01   1.00800           0
      8125 MEMB     73       SLPC     H8Y      HAL2     0.900000E-01   1.00800           0
      8126 MEMB     73       SLPC     C39      CTL2    -0.180000       12.0110           0
      8127 MEMB     73       SLPC     H9X      HAL2     0.900000E-01   1.00800           0
      8128 MEMB     73       SLPC     H9Y      HAL2     0.900000E-01   1.00800           0
      8129 MEMB     73       SLPC     C310     CTL2    -0.180000       12.0110           0
      8130 MEMB     73       SLPC     H10X     HAL2     0.900000E-01   1.00800           0
      8131 MEMB     73       SLPC     H10Y     HAL2     0.900000E-01   1.00800           0
      8132 MEMB     73       SLPC     C311     CTL2    -0.180000       12.0110           0
      8133 MEMB     73       SLPC     H11X     HAL2     0.900000E-01   1.00800           0
      8134 MEMB     73       SLPC     H11Y     HAL2     0.900000E-01   1.00800           0
      8135 MEMB     73       SLPC     C312     CTL2    -0.180000       12.0110           0
      8136 MEMB     73       SLPC     H12X     HAL2     0.900000E-01   1.00800           0
      8137 MEMB     73       SLPC     H12Y     HAL2     0.900000E-01   1.00800           0
      8138 MEMB     73       SLPC     C313     CTL2    -0.180000       12.0110           0
      8139 MEMB     73       SLPC     H13X     HAL2     0.900000E-01   1.00800           0
      8140 MEMB     73       SLPC     H13Y     HAL2     0.900000E-01   1.00800           0
      8141 MEMB     73       SLPC     C314     CTL2    -0.180000       12.0110           0
      8142 MEMB     73       SLPC     H14X     HAL2     0.900000E-01   1.00800           0
      8143 MEMB     73       SLPC     H14Y     HAL2     0.900000E-01   1.00800           0
      8144 MEMB     73       SLPC     C315     CTL2    -0.180000       12.0110           0
      8145 MEMB     73       SLPC     H15X     HAL2     0.900000E-01   1.00800           0
      8146 MEMB     73       SLPC     H15Y     HAL2     0.900000E-01   1.00800           0
      8147 MEMB     73       SLPC     C316     CTL2    -0.180000       12.0110           0
      8148 MEMB     73       SLPC     H16X     HAL2     0.900000E-01   1.00800           0
      8149 MEMB     73       SLPC     H16Y     HAL2     0.900000E-01   1.00800           0
      8150 MEMB     73       SLPC     C317     CTL2    -0.180000       12.0110           0
      8151 MEMB     73       SLPC     H17X     HAL2     0.900000E-01   1.00800           0
      8152 MEMB     73       SLPC     H17Y     HAL2     0.900000E-01   1.00800           0
      8153 MEMB     73       SLPC     C318     CTL3    -0.270000       12.0110           0
      8154 MEMB     73       SLPC     H18X     HAL3     0.900000E-01   1.00800           0
      8155 MEMB     73       SLPC     H18Y     HAL3     0.900000E-01   1.00800           0
      8156 MEMB     73       SLPC     H18Z     HAL3     0.900000E-01   1.00800           0
      8157 MEMB     89       SLPC     N        NTL     -0.600000       14.0070           0
      8158 MEMB     89       SLPC     C13      CTL5    -0.350000       12.0110           0
      8159 MEMB     89       SLPC     H13A     HL       0.250000       1.00800           0
      8160 MEMB     89       SLPC     H13B     HL       0.250000       1.00800           0
      8161 MEMB     89       SLPC     H13C     HL       0.250000       1.00800           0
      8162 MEMB     89       SLPC     C14      CTL5    -0.350000       12.0110           0
      8163 MEMB     89       SLPC     H14A     HL       0.250000       1.00800           0
      8164 MEMB     89       SLPC     H14B     HL       0.250000       1.00800           0
      8165 MEMB     89       SLPC     H14C     HL       0.250000       1.00800           0
      8166 MEMB     89       SLPC     C15      CTL5    -0.350000       12.0110           0
      8167 MEMB     89       SLPC     H15A     HL       0.250000       1.00800           0
      8168 MEMB     89       SLPC     H15B     HL       0.250000       1.00800           0
      8169 MEMB     89       SLPC     H15C     HL       0.250000       1.00800           0
      8170 MEMB     89       SLPC     C12      CTL2    -0.100000       12.0110           0
      8171 MEMB     89       SLPC     H12A     HL       0.250000       1.00800           0
      8172 MEMB     89       SLPC     H12B     HL       0.250000       1.00800           0
      8173 MEMB     89       SLPC     C11      CTL2    -0.800000E-01   12.0110           0
      8174 MEMB     89       SLPC     H11A     HAL2     0.900000E-01   1.00800           0
      8175 MEMB     89       SLPC     H11B     HAL2     0.900000E-01   1.00800           0
      8176 MEMB     89       SLPC     P        PL       1.500000       30.9740           0
      8177 MEMB     89       SLPC     O13      O2L     -0.780000       15.9994           0
      8178 MEMB     89       SLPC     O14      O2L     -0.780000       15.9994           0
      8179 MEMB     89       SLPC     O12      OSLP    -0.570000       15.9994           0
      8180 MEMB     89       SLPC     O11      OSLP    -0.570000       15.9994           0
      8181 MEMB     89       SLPC     C1       CTL2    -0.800000E-01   12.0110           0
      8182 MEMB     89       SLPC     HA       HAL2     0.900000E-01   1.00800           0
      8183 MEMB     89       SLPC     HB       HAL2     0.900000E-01   1.00800           0
      8184 MEMB     89       SLPC     C2       CTL1     0.170000       12.0110           0
      8185 MEMB     89       SLPC     HS       HAL1     0.900000E-01   1.00800           0
      8186 MEMB     89       SLPC     O21      OSL     -0.490000       15.9994           0
      8187 MEMB     89       SLPC     C21      CL       0.900000       12.0110           0
      8188 MEMB     89       SLPC     O22      OBL     -0.630000       15.9994           0
      8189 MEMB     89       SLPC     C22      CTL2    -0.220000       12.0110           0
      8190 MEMB     89       SLPC     H2R      HAL2     0.900000E-01   1.00800           0
      8191 MEMB     89       SLPC     H2S      HAL2     0.900000E-01   1.00800           0
      8192 MEMB     89       SLPC     C3       CTL2     0.800000E-01   12.0110           0
      8193 MEMB     89       SLPC     HX       HAL2     0.900000E-01   1.00800           0
      8194 MEMB     89       SLPC     HY       HAL2     0.900000E-01   1.00800           0
      8195 MEMB     89       SLPC     O31      OSL     -0.490000       15.9994           0
      8196 MEMB     89       SLPC     C31      CL       0.900000       12.0110           0
      8197 MEMB     89       SLPC     O32      OBL     -0.630000       15.9994           0
      8198 MEMB     89       SLPC     C32      CTL2    -0.220000       12.0110           0
      8199 MEMB     89       SLPC     H2X      HAL2     0.900000E-01   1.00800           0
      8200 MEMB     89       SLPC     H2Y      HAL2     0.900000E-01   1.00800           0
      8201 MEMB     89       SLPC     C23      CTL2    -0.180000       12.0110           0
      8202 MEMB     89       SLPC     H3R      HAL2     0.900000E-01   1.00800           0
      8203 MEMB     89       SLPC     H3S      HAL2     0.900000E-01   1.00800           0
      8204 MEMB     89       SLPC     C24      CTL2    -0.180000       12.0110           0
      8205 MEMB     89       SLPC     H4R      HAL2     0.900000E-01   1.00800           0
      8206 MEMB     89       SLPC     H4S      HAL2     0.900000E-01   1.00800           0
      8207 MEMB     89       SLPC     C25      CTL2    -0.180000       12.0110           0
      8208 MEMB     89       SLPC     H5R      HAL2     0.900000E-01   1.00800           0
      8209 MEMB     89       SLPC     H5S      HAL2     0.900000E-01   1.00800           0
      8210 MEMB     89       SLPC     C26      CTL2    -0.180000       12.0110           0
      8211 MEMB     89       SLPC     H6R      HAL2     0.900000E-01   1.00800           0
      8212 MEMB     89       SLPC     H6S      HAL2     0.900000E-01   1.00800           0
      8213 MEMB     89       SLPC     C27      CTL2    -0.180000       12.0110           0
      8214 MEMB     89       SLPC     H7R      HAL2     0.900000E-01   1.00800           0
      8215 MEMB     89       SLPC     H7S      HAL2     0.900000E-01   1.00800           0
      8216 MEMB     89       SLPC     C28      CTL2    -0.180000       12.0110           0
      8217 MEMB     89       SLPC     H8R      HAL2     0.900000E-01   1.00800           0
      8218 MEMB     89       SLPC     H8S      HAL2     0.900000E-01   1.00800           0
      8219 MEMB     89       SLPC     C29      CEL1    -0.150000       12.0110           0
      8220 MEMB     89       SLPC     H9R      HEL1     0.150000       1.00800           0
      8221 MEMB     89       SLPC     C210     CEL1    -0.150000       12.0110           0
      8222 MEMB     89       SLPC     H10R     HEL1     0.150000       1.00800           0
      8223 MEMB     89       SLPC     C211     CTL2    -0.180000       12.0110           0
      8224 MEMB     89       SLPC     H11R     HAL2     0.900000E-01   1.00800           0
      8225 MEMB     89       SLPC     H11S     HAL2     0.900000E-01   1.00800           0
      8226 MEMB     89       SLPC     C212     CEL1    -0.150000       12.0110           0
      8227 MEMB     89       SLPC     H12R     HEL1     0.150000       1.00800           0
      8228 MEMB     89       SLPC     C213     CEL1    -0.150000       12.0110           0
      8229 MEMB     89       SLPC     H13R     HEL1     0.150000       1.00800           0
      8230 MEMB     89       SLPC     C214     CTL2    -0.180000       12.0110           0
      8231 MEMB     89       SLPC     H14R     HAL2     0.900000E-01   1.00800           0
      8232 MEMB     89       SLPC     H14S     HAL2     0.900000E-01   1.00800           0
      8233 MEMB     89       SLPC     C215     CTL2    -0.180000       12.0110           0
      8234 MEMB     89       SLPC     H15R     HAL2     0.900000E-01   1.00800           0
      8235 MEMB     89       SLPC     H15S     HAL2     0.900000E-01   1.00800           0
      8236 MEMB     89       SLPC     C216     CTL2    -0.180000       12.0110           0
      8237 MEMB     89       SLPC     H16R     HAL2     0.900000E-01   1.00800           0
      8238 MEMB     89       SLPC     H16S     HAL2     0.900000E-01   1.00800           0
      8239 MEMB     89       SLPC     C217     CTL2    -0.180000       12.0110           0
      8240 MEMB     89       SLPC     H17R     HAL2     0.900000E-01   1.00800           0
      8241 MEMB     89       SLPC     H17S     HAL2     0.900000E-01   1.00800           0
      8242 MEMB     89       SLPC     C218     CTL3    -0.270000       12.0110           0
      8243 MEMB     89       SLPC     H18R     HAL3     0.900000E-01   1.00800           0
      8244 MEMB     89       SLPC     H18S     HAL3     0.900000E-01   1.00800           0
      8245 MEMB     89       SLPC     H18T     HAL3     0.900000E-01   1.00800           0
      8246 MEMB     89       SLPC     C33      CTL2    -0.180000       12.0110           0
      8247 MEMB     89       SLPC     H3X      HAL2     0.900000E-01   1.00800           0
      8248 MEMB     89       SLPC     H3Y      HAL2     0.900000E-01   1.00800           0
      8249 MEMB     89       SLPC     C34      CTL2    -0.180000       12.0110           0
      8250 MEMB     89       SLPC     H4X      HAL2     0.900000E-01   1.00800           0
      8251 MEMB     89       SLPC     H4Y      HAL2     0.900000E-01   1.00800           0
      8252 MEMB     89       SLPC     C35      CTL2    -0.180000       12.0110           0
      8253 MEMB     89       SLPC     H5X      HAL2     0.900000E-01   1.00800           0
      8254 MEMB     89       SLPC     H5Y      HAL2     0.900000E-01   1.00800           0
      8255 MEMB     89       SLPC     C36      CTL2    -0.180000       12.0110           0
      8256 MEMB     89       SLPC     H6X      HAL2     0.900000E-01   1.00800           0
      8257 MEMB     89       SLPC     H6Y      HAL2     0.900000E-01   1.00800           0
      8258 MEMB     89       SLPC     C37      CTL2    -0.180000       12.0110           0
      8259 MEMB     89       SLPC     H7X      HAL2     0.900000E-01   1.00800           0
      8260 MEMB     89       SLPC     H7Y      HAL2     0.900000E-01   1.00800           0
      8261 MEMB     89       SLPC     C38      CTL2    -0.180000       12.0110           0
      8262 MEMB     89       SLPC     H8X      HAL2     0.900000E-01   1.00800           0
      8263 MEMB     89       SLPC     H8Y      HAL2     0.900000E-01   1.00800           0
      8264 MEMB     89       SLPC     C39      CTL2    -0.180000       12.0110           0
      8265 MEMB     89       SLPC     H9X      HAL2     0.900000E-01   1.00800           0
      8266 MEMB     89       SLPC     H9Y      HAL2     0.900000E-01   1.00800           0
      8267 MEMB     89       SLPC     C310     CTL2    -0.180000       12.0110           0
      8268 MEMB     89       SLPC     H10X     HAL2     0.900000E-01   1.00800           0
      8269 MEMB     89       SLPC     H10Y     HAL2     0.900000E-01   1.00800           0
      8270 MEMB     89       SLPC     C311     CTL2    -0.180000       12.0110           0
      8271 MEMB     89       SLPC     H11X     HAL2     0.900000E-01   1.00800           0
      8272 MEMB     89       SLPC     H11Y     HAL2     0.900000E-01   1.00800           0
      8273 MEMB     89       SLPC     C312     CTL2    -0.180000       12.0110           0
      8274 MEMB     89       SLPC     H12X     HAL2     0.900000E-01   1.00800           0
      8275 MEMB     89       SLPC     H12Y     HAL2     0.900000E-01   1.00800           0
      8276 MEMB     89       SLPC     C313     CTL2    -0.180000       12.0110           0
      8277 MEMB     89       SLPC     H13X     HAL2     0.900000E-01   1.00800           0
      8278 MEMB     89       SLPC     H13Y     HAL2     0.900000E-01   1.00800           0
      8279 MEMB     89       SLPC     C314     CTL2    -0.180000       12.0110           0
      8280 MEMB     89       SLPC     H14X     HAL2     0.900000E-01   1.00800           0
      8281 MEMB     89       SLPC     H14Y     HAL2     0.900000E-01   1.00800           0
      8282 MEMB     89       SLPC     C315     CTL2    -0.180000       12.0110           0
      8283 MEMB     89       SLPC     H15X     HAL2     0.900000E-01   1.00800           0
      8284 MEMB     89       SLPC     H15Y     HAL2     0.900000E-01   1.00800           0
      8285 MEMB     89       SLPC     C316     CTL2    -0.180000       12.0110           0
      8286 MEMB     89       SLPC     H16X     HAL2     0.900000E-01   1.00800           0
      8287 MEMB     89       SLPC     H16Y     HAL2     0.900000E-01   1.00800           0
      8288 MEMB     89       SLPC     C317     CTL2    -0.180000       12.0110           0
      8289 MEMB     89       SLPC     H17X     HAL2     0.900000E-01   1.00800           0
      8290 MEMB     89       SLPC     H17Y     HAL2     0.900000E-01   1.00800           0
      8291 MEMB     89       SLPC     C318     CTL3    -0.270000       12.0110           0
      8292 MEMB     89       SLPC     H18X     HAL3     0.900000E-01   1.00800           0
      8293 MEMB     89       SLPC     H18Y     HAL3     0.900000E-01   1.00800           0
      8294 MEMB     89       SLPC     H18Z     HAL3     0.900000E-01   1.00800           0
      8295 MEMB     96       SLPC     N        NTL     -0.600000       14.0070           0
      8296 MEMB     96       SLPC     C13      CTL5    -0.350000       12.0110           0
      8297 MEMB     96       SLPC     H13A     HL       0.250000       1.00800           0
      8298 MEMB     96       SLPC     H13B     HL       0.250000       1.00800           0
      8299 MEMB     96       SLPC     H13C     HL       0.250000       1.00800           0
      8300 MEMB     96       SLPC     C14      CTL5    -0.350000       12.0110           0
      8301 MEMB     96       SLPC     H14A     HL       0.250000       1.00800           0
      8302 MEMB     96       SLPC     H14B     HL       0.250000       1.00800           0
      8303 MEMB     96       SLPC     H14C     HL       0.250000       1.00800           0
      8304 MEMB     96       SLPC     C15      CTL5    -0.350000       12.0110           0
      8305 MEMB     96       SLPC     H15A     HL       0.250000       1.00800           0
      8306 MEMB     96       SLPC     H15B     HL       0.250000       1.00800           0
      8307 MEMB     96       SLPC     H15C     HL       0.250000       1.00800           0
      8308 MEMB     96       SLPC     C12      CTL2    -0.100000       12.0110           0
      8309 MEMB     96       SLPC     H12A     HL       0.250000       1.00800           0
      8310 MEMB     96       SLPC     H12B     HL       0.250000       1.00800           0
      8311 MEMB     96       SLPC     C11      CTL2    -0.800000E-01   12.0110           0
      8312 MEMB     96       SLPC     H11A     HAL2     0.900000E-01   1.00800           0
      8313 MEMB     96       SLPC     H11B     HAL2     0.900000E-01   1.00800           0
      8314 MEMB     96       SLPC     P        PL       1.500000       30.9740           0
      8315 MEMB     96       SLPC     O13      O2L     -0.780000       15.9994           0
      8316 MEMB     96       SLPC     O14      O2L     -0.780000       15.9994           0
      8317 MEMB     96       SLPC     O12      OSLP    -0.570000       15.9994           0
      8318 MEMB     96       SLPC     O11      OSLP    -0.570000       15.9994           0
      8319 MEMB     96       SLPC     C1       CTL2    -0.800000E-01   12.0110           0
      8320 MEMB     96       SLPC     HA       HAL2     0.900000E-01   1.00800           0
      8321 MEMB     96       SLPC     HB       HAL2     0.900000E-01   1.00800           0
      8322 MEMB     96       SLPC     C2       CTL1     0.170000       12.0110           0
      8323 MEMB     96       SLPC     HS       HAL1     0.900000E-01   1.00800           0
      8324 MEMB     96       SLPC     O21      OSL     -0.490000       15.9994           0
      8325 MEMB     96       SLPC     C21      CL       0.900000       12.0110           0
      8326 MEMB     96       SLPC     O22      OBL     -0.630000       15.9994           0
      8327 MEMB     96       SLPC     C22      CTL2    -0.220000       12.0110           0
      8328 MEMB     96       SLPC     H2R      HAL2     0.900000E-01   1.00800           0
      8329 MEMB     96       SLPC     H2S      HAL2     0.900000E-01   1.00800           0
      8330 MEMB     96       SLPC     C3       CTL2     0.800000E-01   12.0110           0
      8331 MEMB     96       SLPC     HX       HAL2     0.900000E-01   1.00800           0
      8332 MEMB     96       SLPC     HY       HAL2     0.900000E-01   1.00800           0
      8333 MEMB     96       SLPC     O31      OSL     -0.490000       15.9994           0
      8334 MEMB     96       SLPC     C31      CL       0.900000       12.0110           0
      8335 MEMB     96       SLPC     O32      OBL     -0.630000       15.9994           0
      8336 MEMB     96       SLPC     C32      CTL2    -0.220000       12.0110           0
      8337 MEMB     96       SLPC     H2X      HAL2     0.900000E-01   1.00800           0
      8338 MEMB     96       SLPC     H2Y      HAL2     0.900000E-01   1.00800           0
      8339 MEMB     96       SLPC     C23      CTL2    -0.180000       12.0110           0
      8340 MEMB     96       SLPC     H3R      HAL2     0.900000E-01   1.00800           0
      8341 MEMB     96       SLPC     H3S      HAL2     0.900000E-01   1.00800           0
      8342 MEMB     96       SLPC     C24      CTL2    -0.180000       12.0110           0
      8343 MEMB     96       SLPC     H4R      HAL2     0.900000E-01   1.00800           0
      8344 MEMB     96       SLPC     H4S      HAL2     0.900000E-01   1.00800           0
      8345 MEMB     96       SLPC     C25      CTL2    -0.180000       12.0110           0
      8346 MEMB     96       SLPC     H5R      HAL2     0.900000E-01   1.00800           0
      8347 MEMB     96       SLPC     H5S      HAL2     0.900000E-01   1.00800           0
      8348 MEMB     96       SLPC     C26      CTL2    -0.180000       12.0110           0
      8349 MEMB     96       SLPC     H6R      HAL2     0.900000E-01   1.00800           0
      8350 MEMB     96       SLPC     H6S      HAL2     0.900000E-01   1.00800           0
      8351 MEMB     96       SLPC     C27      CTL2    -0.180000       12.0110           0
      8352 MEMB     96       SLPC     H7R      HAL2     0.900000E-01   1.00800           0
      8353 MEMB     96       SLPC     H7S      HAL2     0.900000E-01   1.00800           0
      8354 MEMB     96       SLPC     C28      CTL2    -0.180000       12.0110           0
      8355 MEMB     96       SLPC     H8R      HAL2     0.900000E-01   1.00800           0
      8356 MEMB     96       SLPC     H8S      HAL2     0.900000E-01   1.00800           0
      8357 MEMB     96       SLPC     C29      CEL1    -0.150000       12.0110           0
      8358 MEMB     96       SLPC     H9R      HEL1     0.150000       1.00800           0
      8359 MEMB     96       SLPC     C210     CEL1    -0.150000       12.0110           0
      8360 MEMB     96       SLPC     H10R     HEL1     0.150000       1.00800           0
      8361 MEMB     96       SLPC     C211     CTL2    -0.180000       12.0110           0
      8362 MEMB     96       SLPC     H11R     HAL2     0.900000E-01   1.00800           0
      8363 MEMB     96       SLPC     H11S     HAL2     0.900000E-01   1.00800           0
      8364 MEMB     96       SLPC     C212     CEL1    -0.150000       12.0110           0
      8365 MEMB     96       SLPC     H12R     HEL1     0.150000       1.00800           0
      8366 MEMB     96       SLPC     C213     CEL1    -0.150000       12.0110           0
      8367 MEMB     96       SLPC     H13R     HEL1     0.150000       1.00800           0
      8368 MEMB     96       SLPC     C214     CTL2    -0.180000       12.0110           0
      8369 MEMB     96       SLPC     H14R     HAL2     0.900000E-01   1.00800           0
      8370 MEMB     96       SLPC     H14S     HAL2     0.900000E-01   1.00800           0
      8371 MEMB     96       SLPC     C215     CTL2    -0.180000       12.0110           0
      8372 MEMB     96       SLPC     H15R     HAL2     0.900000E-01   1.00800           0
      8373 MEMB     96       SLPC     H15S     HAL2     0.900000E-01   1.00800           0
      8374 MEMB     96       SLPC     C216     CTL2    -0.180000       12.0110           0
      8375 MEMB     96       SLPC     H16R     HAL2     0.900000E-01   1.00800           0
      8376 MEMB     96       SLPC     H16S     HAL2     0.900000E-01   1.00800           0
      8377 MEMB     96       SLPC     C217     CTL2    -0.180000       12.0110           0
      8378 MEMB     96       SLPC     H17R     HAL2     0.900000E-01   1.00800           0
      8379 MEMB     96       SLPC     H17S     HAL2     0.900000E-01   1.00800           0
      8380 MEMB     96       SLPC     C218     CTL3    -0.270000       12.0110           0
      8381 MEMB     96       SLPC     H18R     HAL3     0.900000E-01   1.00800           0
      8382 MEMB     96       SLPC     H18S     HAL3     0.900000E-01   1.00800           0
      8383 MEMB     96       SLPC     H18T     HAL3     0.900000E-01   1.00800           0
      8384 MEMB     96       SLPC     C33      CTL2    -0.180000       12.0110           0
      8385 MEMB     96       SLPC     H3X      HAL2     0.900000E-01   1.00800           0
      8386 MEMB     96       SLPC     H3Y      HAL2     0.900000E-01   1.00800           0
      8387 MEMB     96       SLPC     C34      CTL2    -0.180000       12.0110           0
      8388 MEMB     96       SLPC     H4X      HAL2     0.900000E-01   1.00800           0
      8389 MEMB     96       SLPC     H4Y      HAL2     0.900000E-01   1.00800           0
      8390 MEMB     96       SLPC     C35      CTL2    -0.180000       12.0110           0
      8391 MEMB     96       SLPC     H5X      HAL2     0.900000E-01   1.00800           0
      8392 MEMB     96       SLPC     H5Y      HAL2     0.900000E-01   1.00800           0
      8393 MEMB     96       SLPC     C36      CTL2    -0.180000       12.0110           0
      8394 MEMB     96       SLPC     H6X      HAL2     0.900000E-01   1.00800           0
      8395 MEMB     96       SLPC     H6Y      HAL2     0.900000E-01   1.00800           0
      8396 MEMB     96       SLPC     C37      CTL2    -0.180000       12.0110           0
      8397 MEMB     96       SLPC     H7X      HAL2     0.900000E-01   1.00800           0
      8398 MEMB     96       SLPC     H7Y      HAL2     0.900000E-01   1.00800           0
      8399 MEMB     96       SLPC     C38      CTL2    -0.180000       12.0110           0
      8400 MEMB     96       SLPC     H8X      HAL2     0.900000E-01   1.00800           0
      8401 MEMB     96       SLPC     H8Y      HAL2     0.900000E-01   1.00800           0
      8402 MEMB     96       SLPC     C39      CTL2    -0.180000       12.0110           0
      8403 MEMB     96       SLPC     H9X      HAL2     0.900000E-01   1.00800           0
      8404 MEMB     96       SLPC     H9Y      HAL2     0.900000E-01   1.00800           0
      8405 MEMB     96       SLPC     C310     CTL2    -0.180000       12.0110           0
      8406 MEMB     96       SLPC     H10X     HAL2     0.900000E-01   1.00800           0
      8407 MEMB     96       SLPC     H10Y     HAL2     0.900000E-01   1.00800           0
      8408 MEMB     96       SLPC     C311     CTL2    -0.180000       12.0110           0
      8409 MEMB     96       SLPC     H11X     HAL2     0.900000E-01   1.00800           0
      8410 MEMB     96       SLPC     H11Y     HAL2     0.900000E-01   1.00800           0
      8411 MEMB     96       SLPC     C312     CTL2    -0.180000       12.0110           0
      8412 MEMB     96       SLPC     H12X     HAL2     0.900000E-01   1.00800           0
      8413 MEMB     96       SLPC     H12Y     HAL2     0.900000E-01   1.00800           0
      8414 MEMB     96       SLPC     C313     CTL2    -0.180000       12.0110           0
      8415 MEMB     96       SLPC     H13X     HAL2     0.900000E-01   1.00800           0
      8416 MEMB     96       SLPC     H13Y     HAL2     0.900000E-01   1.00800           0
      8417 MEMB     96       SLPC     C314     CTL2    -0.180000       12.0110           0
      8418 MEMB     96       SLPC     H14X     HAL2     0.900000E-01   1.00800           0
      8419 MEMB     96       SLPC     H14Y     HAL2     0.900000E-01   1.00800           0
      8420 MEMB     96       SLPC     C315     CTL2    -0.180000       12.0110           0
      8421 MEMB     96       SLPC     H15X     HAL2     0.900000E-01   1.00800           0
      8422 MEMB     96       SLPC     H15Y     HAL2     0.900000E-01   1.00800           0
      8423 MEMB     96       SLPC     C316     CTL2    -0.180000       12.0110           0
      8424 MEMB     96       SLPC     H16X     HAL2     0.900000E-01   1.00800           0
      8425 MEMB     96       SLPC     H16Y     HAL2     0.900000E-01   1.00800           0
      8426 MEMB     96       SLPC     C317     CTL2    -0.180000       12.0110           0
      8427 MEMB     96       SLPC     H17X     HAL2     0.900000E-01   1.00800           0
      8428 MEMB     96       SLPC     H17Y     HAL2     0.900000E-01   1.00800           0
      8429 MEMB     96       SLPC     C318     CTL3    -0.270000       12.0110           0
      8430 MEMB     96       SLPC     H18X     HAL3     0.900000E-01   1.00800           0
      8431 MEMB     96       SLPC     H18Y     HAL3     0.900000E-01   1.00800           0
      8432 MEMB     96       SLPC     H18Z     HAL3     0.900000E-01   1.00800           0
      8433 MEMB     15       SAPC     N        NTL     -0.600000       14.0070           0
      8434 MEMB     15       SAPC     C12      CTL2    -0.100000       12.0110           0
      8435 MEMB     15       SAPC     H12A     HL       0.250000       1.00800           0
      8436 MEMB     15       SAPC     H12B     HL       0.250000       1.00800           0
      8437 MEMB     15       SAPC     C13      CTL5    -0.350000       12.0110           0
      8438 MEMB     15       SAPC     H13A     HL       0.250000       1.00800           0
      8439 MEMB     15       SAPC     H13B     HL       0.250000       1.00800           0
      8440 MEMB     15       SAPC     H13C     HL       0.250000       1.00800           0
      8441 MEMB     15       SAPC     C14      CTL5    -0.350000       12.0110           0
      8442 MEMB     15       SAPC     H14A     HL       0.250000       1.00800           0
      8443 MEMB     15       SAPC     H14B     HL       0.250000       1.00800           0
      8444 MEMB     15       SAPC     H14C     HL       0.250000       1.00800           0
      8445 MEMB     15       SAPC     C15      CTL5    -0.350000       12.0110           0
      8446 MEMB     15       SAPC     H15A     HL       0.250000       1.00800           0
      8447 MEMB     15       SAPC     H15B     HL       0.250000       1.00800           0
      8448 MEMB     15       SAPC     H15C     HL       0.250000       1.00800           0
      8449 MEMB     15       SAPC     C11      CTL2    -0.800000E-01   12.0110           0
      8450 MEMB     15       SAPC     H11A     HAL2     0.900000E-01   1.00800           0
      8451 MEMB     15       SAPC     H11B     HAL2     0.900000E-01   1.00800           0
      8452 MEMB     15       SAPC     P        PL       1.500000       30.9740           0
      8453 MEMB     15       SAPC     O13      O2L     -0.780000       15.9994           0
      8454 MEMB     15       SAPC     O14      O2L     -0.780000       15.9994           0
      8455 MEMB     15       SAPC     O12      OSLP    -0.570000       15.9994           0
      8456 MEMB     15       SAPC     O11      OSLP    -0.570000       15.9994           0
      8457 MEMB     15       SAPC     C1       CTL2    -0.800000E-01   12.0110           0
      8458 MEMB     15       SAPC     HA       HAL2     0.900000E-01   1.00800           0
      8459 MEMB     15       SAPC     HB       HAL2     0.900000E-01   1.00800           0
      8460 MEMB     15       SAPC     C2       CTL1     0.170000       12.0110           0
      8461 MEMB     15       SAPC     HS       HAL1     0.900000E-01   1.00800           0
      8462 MEMB     15       SAPC     O21      OSL     -0.490000       15.9994           0
      8463 MEMB     15       SAPC     C21      CL       0.900000       12.0110           0
      8464 MEMB     15       SAPC     O22      OBL     -0.630000       15.9994           0
      8465 MEMB     15       SAPC     C22      CTL2    -0.220000       12.0110           0
      8466 MEMB     15       SAPC     H2R      HAL2     0.900000E-01   1.00800           0
      8467 MEMB     15       SAPC     H2S      HAL2     0.900000E-01   1.00800           0
      8468 MEMB     15       SAPC     C3       CTL2     0.800000E-01   12.0110           0
      8469 MEMB     15       SAPC     HX       HAL2     0.900000E-01   1.00800           0
      8470 MEMB     15       SAPC     HY       HAL2     0.900000E-01   1.00800           0
      8471 MEMB     15       SAPC     O31      OSL     -0.490000       15.9994           0
      8472 MEMB     15       SAPC     C31      CL       0.900000       12.0110           0
      8473 MEMB     15       SAPC     O32      OBL     -0.630000       15.9994           0
      8474 MEMB     15       SAPC     C32      CTL2    -0.220000       12.0110           0
      8475 MEMB     15       SAPC     H2X      HAL2     0.900000E-01   1.00800           0
      8476 MEMB     15       SAPC     H2Y      HAL2     0.900000E-01   1.00800           0
      8477 MEMB     15       SAPC     C23      CTL2    -0.180000       12.0110           0
      8478 MEMB     15       SAPC     H3R      HAL2     0.900000E-01   1.00800           0
      8479 MEMB     15       SAPC     H3S      HAL2     0.900000E-01   1.00800           0
      8480 MEMB     15       SAPC     C24      CTL2    -0.180000       12.0110           0
      8481 MEMB     15       SAPC     H4R      HAL2     0.900000E-01   1.00800           0
      8482 MEMB     15       SAPC     H4S      HAL2     0.900000E-01   1.00800           0
      8483 MEMB     15       SAPC     C25      CEL1    -0.150000       12.0110           0
      8484 MEMB     15       SAPC     H5R      HEL1     0.150000       1.00800           0
      8485 MEMB     15       SAPC     C26      CEL1    -0.150000       12.0110           0
      8486 MEMB     15       SAPC     H6R      HEL1     0.150000       1.00800           0
      8487 MEMB     15       SAPC     C27      CTL2    -0.180000       12.0110           0
      8488 MEMB     15       SAPC     H7R      HAL2     0.900000E-01   1.00800           0
      8489 MEMB     15       SAPC     H7S      HAL2     0.900000E-01   1.00800           0
      8490 MEMB     15       SAPC     C28      CEL1    -0.150000       12.0110           0
      8491 MEMB     15       SAPC     H8R      HEL1     0.150000       1.00800           0
      8492 MEMB     15       SAPC     C29      CEL1    -0.150000       12.0110           0
      8493 MEMB     15       SAPC     H9R      HEL1     0.150000       1.00800           0
      8494 MEMB     15       SAPC     C210     CTL2    -0.180000       12.0110           0
      8495 MEMB     15       SAPC     H10R     HAL2     0.900000E-01   1.00800           0
      8496 MEMB     15       SAPC     H10S     HAL2     0.900000E-01   1.00800           0
      8497 MEMB     15       SAPC     C211     CEL1    -0.150000       12.0110           0
      8498 MEMB     15       SAPC     H11R     HEL1     0.150000       1.00800           0
      8499 MEMB     15       SAPC     C212     CEL1    -0.150000       12.0110           0
      8500 MEMB     15       SAPC     H12R     HEL1     0.150000       1.00800           0
      8501 MEMB     15       SAPC     C213     CTL2    -0.180000       12.0110           0
      8502 MEMB     15       SAPC     H13R     HAL2     0.900000E-01   1.00800           0
      8503 MEMB     15       SAPC     H13S     HAL2     0.900000E-01   1.00800           0
      8504 MEMB     15       SAPC     C214     CEL1    -0.150000       12.0110           0
      8505 MEMB     15       SAPC     H14R     HEL1     0.150000       1.00800           0
      8506 MEMB     15       SAPC     C215     CEL1    -0.150000       12.0110           0
      8507 MEMB     15       SAPC     H15R     HEL1     0.150000       1.00800           0
      8508 MEMB     15       SAPC     C216     CTL2    -0.180000       12.0110           0
      8509 MEMB     15       SAPC     H16R     HAL2     0.900000E-01   1.00800           0
      8510 MEMB     15       SAPC     H16S     HAL2     0.900000E-01   1.00800           0
      8511 MEMB     15       SAPC     C217     CTL2    -0.180000       12.0110           0
      8512 MEMB     15       SAPC     H17R     HAL2     0.900000E-01   1.00800           0
      8513 MEMB     15       SAPC     H17S     HAL2     0.900000E-01   1.00800           0
      8514 MEMB     15       SAPC     C218     CTL2    -0.270000       12.0110           0
      8515 MEMB     15       SAPC     H18R     HAL2     0.900000E-01   1.00800           0
      8516 MEMB     15       SAPC     H18S     HAL2     0.900000E-01   1.00800           0
      8517 MEMB     15       SAPC     C219     CTL2    -0.180000       12.0110           0
      8518 MEMB     15       SAPC     H19R     HAL2     0.900000E-01   1.00800           0
      8519 MEMB     15       SAPC     H19S     HAL2     0.900000E-01   1.00800           0
      8520 MEMB     15       SAPC     C220     CTL3    -0.180000       12.0110           0
      8521 MEMB     15       SAPC     H20R     HAL3     0.900000E-01   1.00800           0
      8522 MEMB     15       SAPC     H20S     HAL3     0.900000E-01   1.00800           0
      8523 MEMB     15       SAPC     H20T     HAL3     0.900000E-01   1.00800           0
      8524 MEMB     15       SAPC     C33      CTL2    -0.180000       12.0110           0
      8525 MEMB     15       SAPC     H3X      HAL2     0.900000E-01   1.00800           0
      8526 MEMB     15       SAPC     H3Y      HAL2     0.900000E-01   1.00800           0
      8527 MEMB     15       SAPC     C34      CTL2    -0.180000       12.0110           0
      8528 MEMB     15       SAPC     H4X      HAL2     0.900000E-01   1.00800           0
      8529 MEMB     15       SAPC     H4Y      HAL2     0.900000E-01   1.00800           0
      8530 MEMB     15       SAPC     C35      CTL2    -0.180000       12.0110           0
      8531 MEMB     15       SAPC     H5X      HAL2     0.900000E-01   1.00800           0
      8532 MEMB     15       SAPC     H5Y      HAL2     0.900000E-01   1.00800           0
      8533 MEMB     15       SAPC     C36      CTL2    -0.180000       12.0110           0
      8534 MEMB     15       SAPC     H6X      HAL2     0.900000E-01   1.00800           0
      8535 MEMB     15       SAPC     H6Y      HAL2     0.900000E-01   1.00800           0
      8536 MEMB     15       SAPC     C37      CTL2    -0.180000       12.0110           0
      8537 MEMB     15       SAPC     H7X      HAL2     0.900000E-01   1.00800           0
      8538 MEMB     15       SAPC     H7Y      HAL2     0.900000E-01   1.00800           0
      8539 MEMB     15       SAPC     C38      CTL2    -0.180000       12.0110           0
      8540 MEMB     15       SAPC     H8X      HAL2     0.900000E-01   1.00800           0
      8541 MEMB     15       SAPC     H8Y      HAL2     0.900000E-01   1.00800           0
      8542 MEMB     15       SAPC     C39      CTL2    -0.180000       12.0110           0
      8543 MEMB     15       SAPC     H9X      HAL2     0.900000E-01   1.00800           0
      8544 MEMB     15       SAPC     H9Y      HAL2     0.900000E-01   1.00800           0
      8545 MEMB     15       SAPC     C310     CTL2    -0.180000       12.0110           0
      8546 MEMB     15       SAPC     H10X     HAL2     0.900000E-01   1.00800           0
      8547 MEMB     15       SAPC     H10Y     HAL2     0.900000E-01   1.00800           0
      8548 MEMB     15       SAPC     C311     CTL2    -0.180000       12.0110           0
      8549 MEMB     15       SAPC     H11X     HAL2     0.900000E-01   1.00800           0
      8550 MEMB     15       SAPC     H11Y     HAL2     0.900000E-01   1.00800           0
      8551 MEMB     15       SAPC     C312     CTL2    -0.180000       12.0110           0
      8552 MEMB     15       SAPC     H12X     HAL2     0.900000E-01   1.00800           0
      8553 MEMB     15       SAPC     H12Y     HAL2     0.900000E-01   1.00800           0
      8554 MEMB     15       SAPC     C313     CTL2    -0.180000       12.0110           0
      8555 MEMB     15       SAPC     H13X     HAL2     0.900000E-01   1.00800           0
      8556 MEMB     15       SAPC     H13Y     HAL2     0.900000E-01   1.00800           0
      8557 MEMB     15       SAPC     C314     CTL2    -0.180000       12.0110           0
      8558 MEMB     15       SAPC     H14X     HAL2     0.900000E-01   1.00800           0
      8559 MEMB     15       SAPC     H14Y     HAL2     0.900000E-01   1.00800           0
      8560 MEMB     15       SAPC     C315     CTL2    -0.180000       12.0110           0
      8561 MEMB     15       SAPC     H15X     HAL2     0.900000E-01   1.00800           0
      8562 MEMB     15       SAPC     H15Y     HAL2     0.900000E-01   1.00800           0
      8563 MEMB     15       SAPC     C316     CTL2    -0.180000       12.0110           0
      8564 MEMB     15       SAPC     H16X     HAL2     0.900000E-01   1.00800           0
      8565 MEMB     15       SAPC     H16Y     HAL2     0.900000E-01   1.00800           0
      8566 MEMB     15       SAPC     C317     CTL2    -0.180000       12.0110           0
      8567 MEMB     15       SAPC     H17X     HAL2     0.900000E-01   1.00800           0
      8568 MEMB     15       SAPC     H17Y     HAL2     0.900000E-01   1.00800           0
      8569 MEMB     15       SAPC     C318     CTL3    -0.270000       12.0110           0
      8570 MEMB     15       SAPC     H18X     HAL3     0.900000E-01   1.00800           0
      8571 MEMB     15       SAPC     H18Y     HAL3     0.900000E-01   1.00800           0
      8572 MEMB     15       SAPC     H18Z     HAL3     0.900000E-01   1.00800           0
      8573 MEMB     16       SAPC     N        NTL     -0.600000       14.0070           0
      8574 MEMB     16       SAPC     C12      CTL2    -0.100000       12.0110           0
      8575 MEMB     16       SAPC     H12A     HL       0.250000       1.00800           0
      8576 MEMB     16       SAPC     H12B     HL       0.250000       1.00800           0
      8577 MEMB     16       SAPC     C13      CTL5    -0.350000       12.0110           0
      8578 MEMB     16       SAPC     H13A     HL       0.250000       1.00800           0
      8579 MEMB     16       SAPC     H13B     HL       0.250000       1.00800           0
      8580 MEMB     16       SAPC     H13C     HL       0.250000       1.00800           0
      8581 MEMB     16       SAPC     C14      CTL5    -0.350000       12.0110           0
      8582 MEMB     16       SAPC     H14A     HL       0.250000       1.00800           0
      8583 MEMB     16       SAPC     H14B     HL       0.250000       1.00800           0
      8584 MEMB     16       SAPC     H14C     HL       0.250000       1.00800           0
      8585 MEMB     16       SAPC     C15      CTL5    -0.350000       12.0110           0
      8586 MEMB     16       SAPC     H15A     HL       0.250000       1.00800           0
      8587 MEMB     16       SAPC     H15B     HL       0.250000       1.00800           0
      8588 MEMB     16       SAPC     H15C     HL       0.250000       1.00800           0
      8589 MEMB     16       SAPC     C11      CTL2    -0.800000E-01   12.0110           0
      8590 MEMB     16       SAPC     H11A     HAL2     0.900000E-01   1.00800           0
      8591 MEMB     16       SAPC     H11B     HAL2     0.900000E-01   1.00800           0
      8592 MEMB     16       SAPC     P        PL       1.500000       30.9740           0
      8593 MEMB     16       SAPC     O13      O2L     -0.780000       15.9994           0
      8594 MEMB     16       SAPC     O14      O2L     -0.780000       15.9994           0
      8595 MEMB     16       SAPC     O12      OSLP    -0.570000       15.9994           0
      8596 MEMB     16       SAPC     O11      OSLP    -0.570000       15.9994           0
      8597 MEMB     16       SAPC     C1       CTL2    -0.800000E-01   12.0110           0
      8598 MEMB     16       SAPC     HA       HAL2     0.900000E-01   1.00800           0
      8599 MEMB     16       SAPC     HB       HAL2     0.900000E-01   1.00800           0
      8600 MEMB     16       SAPC     C2       CTL1     0.170000       12.0110           0
      8601 MEMB     16       SAPC     HS       HAL1     0.900000E-01   1.00800           0
      8602 MEMB     16       SAPC     O21      OSL     -0.490000       15.9994           0
      8603 MEMB     16       SAPC     C21      CL       0.900000       12.0110           0
      8604 MEMB     16       SAPC     O22      OBL     -0.630000       15.9994           0
      8605 MEMB     16       SAPC     C22      CTL2    -0.220000       12.0110           0
      8606 MEMB     16       SAPC     H2R      HAL2     0.900000E-01   1.00800           0
      8607 MEMB     16       SAPC     H2S      HAL2     0.900000E-01   1.00800           0
      8608 MEMB     16       SAPC     C3       CTL2     0.800000E-01   12.0110           0
      8609 MEMB     16       SAPC     HX       HAL2     0.900000E-01   1.00800           0
      8610 MEMB     16       SAPC     HY       HAL2     0.900000E-01   1.00800           0
      8611 MEMB     16       SAPC     O31      OSL     -0.490000       15.9994           0
      8612 MEMB     16       SAPC     C31      CL       0.900000       12.0110           0
      8613 MEMB     16       SAPC     O32      OBL     -0.630000       15.9994           0
      8614 MEMB     16       SAPC     C32      CTL2    -0.220000       12.0110           0
      8615 MEMB     16       SAPC     H2X      HAL2     0.900000E-01   1.00800           0
      8616 MEMB     16       SAPC     H2Y      HAL2     0.900000E-01   1.00800           0
      8617 MEMB     16       SAPC     C23      CTL2    -0.180000       12.0110           0
      8618 MEMB     16       SAPC     H3R      HAL2     0.900000E-01   1.00800           0
      8619 MEMB     16       SAPC     H3S      HAL2     0.900000E-01   1.00800           0
      8620 MEMB     16       SAPC     C24      CTL2    -0.180000       12.0110           0
      8621 MEMB     16       SAPC     H4R      HAL2     0.900000E-01   1.00800           0
      8622 MEMB     16       SAPC     H4S      HAL2     0.900000E-01   1.00800           0
      8623 MEMB     16       SAPC     C25      CEL1    -0.150000       12.0110           0
      8624 MEMB     16       SAPC     H5R      HEL1     0.150000       1.00800           0
      8625 MEMB     16       SAPC     C26      CEL1    -0.150000       12.0110           0
      8626 MEMB     16       SAPC     H6R      HEL1     0.150000       1.00800           0
      8627 MEMB     16       SAPC     C27      CTL2    -0.180000       12.0110           0
      8628 MEMB     16       SAPC     H7R      HAL2     0.900000E-01   1.00800           0
      8629 MEMB     16       SAPC     H7S      HAL2     0.900000E-01   1.00800           0
      8630 MEMB     16       SAPC     C28      CEL1    -0.150000       12.0110           0
      8631 MEMB     16       SAPC     H8R      HEL1     0.150000       1.00800           0
      8632 MEMB     16       SAPC     C29      CEL1    -0.150000       12.0110           0
      8633 MEMB     16       SAPC     H9R      HEL1     0.150000       1.00800           0
      8634 MEMB     16       SAPC     C210     CTL2    -0.180000       12.0110           0
      8635 MEMB     16       SAPC     H10R     HAL2     0.900000E-01   1.00800           0
      8636 MEMB     16       SAPC     H10S     HAL2     0.900000E-01   1.00800           0
      8637 MEMB     16       SAPC     C211     CEL1    -0.150000       12.0110           0
      8638 MEMB     16       SAPC     H11R     HEL1     0.150000       1.00800           0
      8639 MEMB     16       SAPC     C212     CEL1    -0.150000       12.0110           0
      8640 MEMB     16       SAPC     H12R     HEL1     0.150000       1.00800           0
      8641 MEMB     16       SAPC     C213     CTL2    -0.180000       12.0110           0
      8642 MEMB     16       SAPC     H13R     HAL2     0.900000E-01   1.00800           0
      8643 MEMB     16       SAPC     H13S     HAL2     0.900000E-01   1.00800           0
      8644 MEMB     16       SAPC     C214     CEL1    -0.150000       12.0110           0
      8645 MEMB     16       SAPC     H14R     HEL1     0.150000       1.00800           0
      8646 MEMB     16       SAPC     C215     CEL1    -0.150000       12.0110           0
      8647 MEMB     16       SAPC     H15R     HEL1     0.150000       1.00800           0
      8648 MEMB     16       SAPC     C216     CTL2    -0.180000       12.0110           0
      8649 MEMB     16       SAPC     H16R     HAL2     0.900000E-01   1.00800           0
      8650 MEMB     16       SAPC     H16S     HAL2     0.900000E-01   1.00800           0
      8651 MEMB     16       SAPC     C217     CTL2    -0.180000       12.0110           0
      8652 MEMB     16       SAPC     H17R     HAL2     0.900000E-01   1.00800           0
      8653 MEMB     16       SAPC     H17S     HAL2     0.900000E-01   1.00800           0
      8654 MEMB     16       SAPC     C218     CTL2    -0.270000       12.0110           0
      8655 MEMB     16       SAPC     H18R     HAL2     0.900000E-01   1.00800           0
      8656 MEMB     16       SAPC     H18S     HAL2     0.900000E-01   1.00800           0
      8657 MEMB     16       SAPC     C219     CTL2    -0.180000       12.0110           0
      8658 MEMB     16       SAPC     H19R     HAL2     0.900000E-01   1.00800           0
      8659 MEMB     16       SAPC     H19S     HAL2     0.900000E-01   1.00800           0
      8660 MEMB     16       SAPC     C220     CTL3    -0.180000       12.0110           0
      8661 MEMB     16       SAPC     H20R     HAL3     0.900000E-01   1.00800           0
      8662 MEMB     16       SAPC     H20S     HAL3     0.900000E-01   1.00800           0
      8663 MEMB     16       SAPC     H20T     HAL3     0.900000E-01   1.00800           0
      8664 MEMB     16       SAPC     C33      CTL2    -0.180000       12.0110           0
      8665 MEMB     16       SAPC     H3X      HAL2     0.900000E-01   1.00800           0
      8666 MEMB     16       SAPC     H3Y      HAL2     0.900000E-01   1.00800           0
      8667 MEMB     16       SAPC     C34      CTL2    -0.180000       12.0110           0
      8668 MEMB     16       SAPC     H4X      HAL2     0.900000E-01   1.00800           0
      8669 MEMB     16       SAPC     H4Y      HAL2     0.900000E-01   1.00800           0
      8670 MEMB     16       SAPC     C35      CTL2    -0.180000       12.0110           0
      8671 MEMB     16       SAPC     H5X      HAL2     0.900000E-01   1.00800           0
      8672 MEMB     16       SAPC     H5Y      HAL2     0.900000E-01   1.00800           0
      8673 MEMB     16       SAPC     C36      CTL2    -0.180000       12.0110           0
      8674 MEMB     16       SAPC     H6X      HAL2     0.900000E-01   1.00800           0
      8675 MEMB     16       SAPC     H6Y      HAL2     0.900000E-01   1.00800           0
      8676 MEMB     16       SAPC     C37      CTL2    -0.180000       12.0110           0
      8677 MEMB     16       SAPC     H7X      HAL2     0.900000E-01   1.00800           0
      8678 MEMB     16       SAPC     H7Y      HAL2     0.900000E-01   1.00800           0
      8679 MEMB     16       SAPC     C38      CTL2    -0.180000       12.0110           0
      8680 MEMB     16       SAPC     H8X      HAL2     0.900000E-01   1.00800           0
      8681 MEMB     16       SAPC     H8Y      HAL2     0.900000E-01   1.00800           0
      8682 MEMB     16       SAPC     C39      CTL2    -0.180000       12.0110           0
      8683 MEMB     16       SAPC     H9X      HAL2     0.900000E-01   1.00800           0
      8684 MEMB     16       SAPC     H9Y      HAL2     0.900000E-01   1.00800           0
      8685 MEMB     16       SAPC     C310     CTL2    -0.180000       12.0110           0
      8686 MEMB     16       SAPC     H10X     HAL2     0.900000E-01   1.00800           0
      8687 MEMB     16       SAPC     H10Y     HAL2     0.900000E-01   1.00800           0
      8688 MEMB     16       SAPC     C311     CTL2    -0.180000       12.0110           0
      8689 MEMB     16       SAPC     H11X     HAL2     0.900000E-01   1.00800           0
      8690 MEMB     16       SAPC     H11Y     HAL2     0.900000E-01   1.00800           0
      8691 MEMB     16       SAPC     C312     CTL2    -0.180000       12.0110           0
      8692 MEMB     16       SAPC     H12X     HAL2     0.900000E-01   1.00800           0
      8693 MEMB     16       SAPC     H12Y     HAL2     0.900000E-01   1.00800           0
      8694 MEMB     16       SAPC     C313     CTL2    -0.180000       12.0110           0
      8695 MEMB     16       SAPC     H13X     HAL2     0.900000E-01   1.00800           0
      8696 MEMB     16       SAPC     H13Y     HAL2     0.900000E-01   1.00800           0
      8697 MEMB     16       SAPC     C314     CTL2    -0.180000       12.0110           0
      8698 MEMB     16       SAPC     H14X     HAL2     0.900000E-01   1.00800           0
      8699 MEMB     16       SAPC     H14Y     HAL2     0.900000E-01   1.00800           0
      8700 MEMB     16       SAPC     C315     CTL2    -0.180000       12.0110           0
      8701 MEMB     16       SAPC     H15X     HAL2     0.900000E-01   1.00800           0
      8702 MEMB     16       SAPC     H15Y     HAL2     0.900000E-01   1.00800           0
      8703 MEMB     16       SAPC     C316     CTL2    -0.180000       12.0110           0
      8704 MEMB     16       SAPC     H16X     HAL2     0.900000E-01   1.00800           0
      8705 MEMB     16       SAPC     H16Y     HAL2     0.900000E-01   1.00800           0
      8706 MEMB     16       SAPC     C317     CTL2    -0.180000       12.0110           0
      8707 MEMB     16       SAPC     H17X     HAL2     0.900000E-01   1.00800           0
      8708 MEMB     16       SAPC     H17Y     HAL2     0.900000E-01   1.00800           0
      8709 MEMB     16       SAPC     C318     CTL3    -0.270000       12.0110           0
      8710 MEMB     16       SAPC     H18X     HAL3     0.900000E-01   1.00800           0
      8711 MEMB     16       SAPC     H18Y     HAL3     0.900000E-01   1.00800           0
      8712 MEMB     16       SAPC     H18Z     HAL3     0.900000E-01   1.00800           0
      8713 MEMB     35       SAPC     N        NTL     -0.600000       14.0070           0
      8714 MEMB     35       SAPC     C12      CTL2    -0.100000       12.0110           0
      8715 MEMB     35       SAPC     H12A     HL       0.250000       1.00800           0
      8716 MEMB     35       SAPC     H12B     HL       0.250000       1.00800           0
      8717 MEMB     35       SAPC     C13      CTL5    -0.350000       12.0110           0
      8718 MEMB     35       SAPC     H13A     HL       0.250000       1.00800           0
      8719 MEMB     35       SAPC     H13B     HL       0.250000       1.00800           0
      8720 MEMB     35       SAPC     H13C     HL       0.250000       1.00800           0
      8721 MEMB     35       SAPC     C14      CTL5    -0.350000       12.0110           0
      8722 MEMB     35       SAPC     H14A     HL       0.250000       1.00800           0
      8723 MEMB     35       SAPC     H14B     HL       0.250000       1.00800           0
      8724 MEMB     35       SAPC     H14C     HL       0.250000       1.00800           0
      8725 MEMB     35       SAPC     C15      CTL5    -0.350000       12.0110           0
      8726 MEMB     35       SAPC     H15A     HL       0.250000       1.00800           0
      8727 MEMB     35       SAPC     H15B     HL       0.250000       1.00800           0
      8728 MEMB     35       SAPC     H15C     HL       0.250000       1.00800           0
      8729 MEMB     35       SAPC     C11      CTL2    -0.800000E-01   12.0110           0
      8730 MEMB     35       SAPC     H11A     HAL2     0.900000E-01   1.00800           0
      8731 MEMB     35       SAPC     H11B     HAL2     0.900000E-01   1.00800           0
      8732 MEMB     35       SAPC     P        PL       1.500000       30.9740           0
      8733 MEMB     35       SAPC     O13      O2L     -0.780000       15.9994           0
      8734 MEMB     35       SAPC     O14      O2L     -0.780000       15.9994           0
      8735 MEMB     35       SAPC     O12      OSLP    -0.570000       15.9994           0
      8736 MEMB     35       SAPC     O11      OSLP    -0.570000       15.9994           0
      8737 MEMB     35       SAPC     C1       CTL2    -0.800000E-01   12.0110           0
      8738 MEMB     35       SAPC     HA       HAL2     0.900000E-01   1.00800           0
      8739 MEMB     35       SAPC     HB       HAL2     0.900000E-01   1.00800           0
      8740 MEMB     35       SAPC     C2       CTL1     0.170000       12.0110           0
      8741 MEMB     35       SAPC     HS       HAL1     0.900000E-01   1.00800           0
      8742 MEMB     35       SAPC     O21      OSL     -0.490000       15.9994           0
      8743 MEMB     35       SAPC     C21      CL       0.900000       12.0110           0
      8744 MEMB     35       SAPC     O22      OBL     -0.630000       15.9994           0
      8745 MEMB     35       SAPC     C22      CTL2    -0.220000       12.0110           0
      8746 MEMB     35       SAPC     H2R      HAL2     0.900000E-01   1.00800           0
      8747 MEMB     35       SAPC     H2S      HAL2     0.900000E-01   1.00800           0
      8748 MEMB     35       SAPC     C3       CTL2     0.800000E-01   12.0110           0
      8749 MEMB     35       SAPC     HX       HAL2     0.900000E-01   1.00800           0
      8750 MEMB     35       SAPC     HY       HAL2     0.900000E-01   1.00800           0
      8751 MEMB     35       SAPC     O31      OSL     -0.490000       15.9994           0
      8752 MEMB     35       SAPC     C31      CL       0.900000       12.0110           0
      8753 MEMB     35       SAPC     O32      OBL     -0.630000       15.9994           0
      8754 MEMB     35       SAPC     C32      CTL2    -0.220000       12.0110           0
      8755 MEMB     35       SAPC     H2X      HAL2     0.900000E-01   1.00800           0
      8756 MEMB     35       SAPC     H2Y      HAL2     0.900000E-01   1.00800           0
      8757 MEMB     35       SAPC     C23      CTL2    -0.180000       12.0110           0
      8758 MEMB     35       SAPC     H3R      HAL2     0.900000E-01   1.00800           0
      8759 MEMB     35       SAPC     H3S      HAL2     0.900000E-01   1.00800           0
      8760 MEMB     35       SAPC     C24      CTL2    -0.180000       12.0110           0
      8761 MEMB     35       SAPC     H4R      HAL2     0.900000E-01   1.00800           0
      8762 MEMB     35       SAPC     H4S      HAL2     0.900000E-01   1.00800           0
      8763 MEMB     35       SAPC     C25      CEL1    -0.150000       12.0110           0
      8764 MEMB     35       SAPC     H5R      HEL1     0.150000       1.00800           0
      8765 MEMB     35       SAPC     C26      CEL1    -0.150000       12.0110           0
      8766 MEMB     35       SAPC     H6R      HEL1     0.150000       1.00800           0
      8767 MEMB     35       SAPC     C27      CTL2    -0.180000       12.0110           0
      8768 MEMB     35       SAPC     H7R      HAL2     0.900000E-01   1.00800           0
      8769 MEMB     35       SAPC     H7S      HAL2     0.900000E-01   1.00800           0
      8770 MEMB     35       SAPC     C28      CEL1    -0.150000       12.0110           0
      8771 MEMB     35       SAPC     H8R      HEL1     0.150000       1.00800           0
      8772 MEMB     35       SAPC     C29      CEL1    -0.150000       12.0110           0
      8773 MEMB     35       SAPC     H9R      HEL1     0.150000       1.00800           0
      8774 MEMB     35       SAPC     C210     CTL2    -0.180000       12.0110           0
      8775 MEMB     35       SAPC     H10R     HAL2     0.900000E-01   1.00800           0
      8776 MEMB     35       SAPC     H10S     HAL2     0.900000E-01   1.00800           0
      8777 MEMB     35       SAPC     C211     CEL1    -0.150000       12.0110           0
      8778 MEMB     35       SAPC     H11R     HEL1     0.150000       1.00800           0
      8779 MEMB     35       SAPC     C212     CEL1    -0.150000       12.0110           0
      8780 MEMB     35       SAPC     H12R     HEL1     0.150000       1.00800           0
      8781 MEMB     35       SAPC     C213     CTL2    -0.180000       12.0110           0
      8782 MEMB     35       SAPC     H13R     HAL2     0.900000E-01   1.00800           0
      8783 MEMB     35       SAPC     H13S     HAL2     0.900000E-01   1.00800           0
      8784 MEMB     35       SAPC     C214     CEL1    -0.150000       12.0110           0
      8785 MEMB     35       SAPC     H14R     HEL1     0.150000       1.00800           0
      8786 MEMB     35       SAPC     C215     CEL1    -0.150000       12.0110           0
      8787 MEMB     35       SAPC     H15R     HEL1     0.150000       1.00800           0
      8788 MEMB     35       SAPC     C216     CTL2    -0.180000       12.0110           0
      8789 MEMB     35       SAPC     H16R     HAL2     0.900000E-01   1.00800           0
      8790 MEMB     35       SAPC     H16S     HAL2     0.900000E-01   1.00800           0
      8791 MEMB     35       SAPC     C217     CTL2    -0.180000       12.0110           0
      8792 MEMB     35       SAPC     H17R     HAL2     0.900000E-01   1.00800           0
      8793 MEMB     35       SAPC     H17S     HAL2     0.900000E-01   1.00800           0
      8794 MEMB     35       SAPC     C218     CTL2    -0.270000       12.0110           0
      8795 MEMB     35       SAPC     H18R     HAL2     0.900000E-01   1.00800           0
      8796 MEMB     35       SAPC     H18S     HAL2     0.900000E-01   1.00800           0
      8797 MEMB     35       SAPC     C219     CTL2    -0.180000       12.0110           0
      8798 MEMB     35       SAPC     H19R     HAL2     0.900000E-01   1.00800           0
      8799 MEMB     35       SAPC     H19S     HAL2     0.900000E-01   1.00800           0
      8800 MEMB     35       SAPC     C220     CTL3    -0.180000       12.0110           0
      8801 MEMB     35       SAPC     H20R     HAL3     0.900000E-01   1.00800           0
      8802 MEMB     35       SAPC     H20S     HAL3     0.900000E-01   1.00800           0
      8803 MEMB     35       SAPC     H20T     HAL3     0.900000E-01   1.00800           0
      8804 MEMB     35       SAPC     C33      CTL2    -0.180000       12.0110           0
      8805 MEMB     35       SAPC     H3X      HAL2     0.900000E-01   1.00800           0
      8806 MEMB     35       SAPC     H3Y      HAL2     0.900000E-01   1.00800           0
      8807 MEMB     35       SAPC     C34      CTL2    -0.180000       12.0110           0
      8808 MEMB     35       SAPC     H4X      HAL2     0.900000E-01   1.00800           0
      8809 MEMB     35       SAPC     H4Y      HAL2     0.900000E-01   1.00800           0
      8810 MEMB     35       SAPC     C35      CTL2    -0.180000       12.0110           0
      8811 MEMB     35       SAPC     H5X      HAL2     0.900000E-01   1.00800           0
      8812 MEMB     35       SAPC     H5Y      HAL2     0.900000E-01   1.00800           0
      8813 MEMB     35       SAPC     C36      CTL2    -0.180000       12.0110           0
      8814 MEMB     35       SAPC     H6X      HAL2     0.900000E-01   1.00800           0
      8815 MEMB     35       SAPC     H6Y      HAL2     0.900000E-01   1.00800           0
      8816 MEMB     35       SAPC     C37      CTL2    -0.180000       12.0110           0
      8817 MEMB     35       SAPC     H7X      HAL2     0.900000E-01   1.00800           0
      8818 MEMB     35       SAPC     H7Y      HAL2     0.900000E-01   1.00800           0
      8819 MEMB     35       SAPC     C38      CTL2    -0.180000       12.0110           0
      8820 MEMB     35       SAPC     H8X      HAL2     0.900000E-01   1.00800           0
      8821 MEMB     35       SAPC     H8Y      HAL2     0.900000E-01   1.00800           0
      8822 MEMB     35       SAPC     C39      CTL2    -0.180000       12.0110           0
      8823 MEMB     35       SAPC     H9X      HAL2     0.900000E-01   1.00800           0
      8824 MEMB     35       SAPC     H9Y      HAL2     0.900000E-01   1.00800           0
      8825 MEMB     35       SAPC     C310     CTL2    -0.180000       12.0110           0
      8826 MEMB     35       SAPC     H10X     HAL2     0.900000E-01   1.00800           0
      8827 MEMB     35       SAPC     H10Y     HAL2     0.900000E-01   1.00800           0
      8828 MEMB     35       SAPC     C311     CTL2    -0.180000       12.0110           0
      8829 MEMB     35       SAPC     H11X     HAL2     0.900000E-01   1.00800           0
      8830 MEMB     35       SAPC     H11Y     HAL2     0.900000E-01   1.00800           0
      8831 MEMB     35       SAPC     C312     CTL2    -0.180000       12.0110           0
      8832 MEMB     35       SAPC     H12X     HAL2     0.900000E-01   1.00800           0
      8833 MEMB     35       SAPC     H12Y     HAL2     0.900000E-01   1.00800           0
      8834 MEMB     35       SAPC     C313     CTL2    -0.180000       12.0110           0
      8835 MEMB     35       SAPC     H13X     HAL2     0.900000E-01   1.00800           0
      8836 MEMB     35       SAPC     H13Y     HAL2     0.900000E-01   1.00800           0
      8837 MEMB     35       SAPC     C314     CTL2    -0.180000       12.0110           0
      8838 MEMB     35       SAPC     H14X     HAL2     0.900000E-01   1.00800           0
      8839 MEMB     35       SAPC     H14Y     HAL2     0.900000E-01   1.00800           0
      8840 MEMB     35       SAPC     C315     CTL2    -0.180000       12.0110           0
      8841 MEMB     35       SAPC     H15X     HAL2     0.900000E-01   1.00800           0
      8842 MEMB     35       SAPC     H15Y     HAL2     0.900000E-01   1.00800           0
      8843 MEMB     35       SAPC     C316     CTL2    -0.180000       12.0110           0
      8844 MEMB     35       SAPC     H16X     HAL2     0.900000E-01   1.00800           0
      8845 MEMB     35       SAPC     H16Y     HAL2     0.900000E-01   1.00800           0
      8846 MEMB     35       SAPC     C317     CTL2    -0.180000       12.0110           0
      8847 MEMB     35       SAPC     H17X     HAL2     0.900000E-01   1.00800           0
      8848 MEMB     35       SAPC     H17Y     HAL2     0.900000E-01   1.00800           0
      8849 MEMB     35       SAPC     C318     CTL3    -0.270000       12.0110           0
      8850 MEMB     35       SAPC     H18X     HAL3     0.900000E-01   1.00800           0
      8851 MEMB     35       SAPC     H18Y     HAL3     0.900000E-01   1.00800           0
      8852 MEMB     35       SAPC     H18Z     HAL3     0.900000E-01   1.00800           0
      8853 MEMB     43       SAPC     N        NTL     -0.600000       14.0070           0
      8854 MEMB     43       SAPC     C12      CTL2    -0.100000       12.0110           0
      8855 MEMB     43       SAPC     H12A     HL       0.250000       1.00800           0
      8856 MEMB     43       SAPC     H12B     HL       0.250000       1.00800           0
      8857 MEMB     43       SAPC     C13      CTL5    -0.350000       12.0110           0
      8858 MEMB     43       SAPC     H13A     HL       0.250000       1.00800           0
      8859 MEMB     43       SAPC     H13B     HL       0.250000       1.00800           0
      8860 MEMB     43       SAPC     H13C     HL       0.250000       1.00800           0
      8861 MEMB     43       SAPC     C14      CTL5    -0.350000       12.0110           0
      8862 MEMB     43       SAPC     H14A     HL       0.250000       1.00800           0
      8863 MEMB     43       SAPC     H14B     HL       0.250000       1.00800           0
      8864 MEMB     43       SAPC     H14C     HL       0.250000       1.00800           0
      8865 MEMB     43       SAPC     C15      CTL5    -0.350000       12.0110           0
      8866 MEMB     43       SAPC     H15A     HL       0.250000       1.00800           0
      8867 MEMB     43       SAPC     H15B     HL       0.250000       1.00800           0
      8868 MEMB     43       SAPC     H15C     HL       0.250000       1.00800           0
      8869 MEMB     43       SAPC     C11      CTL2    -0.800000E-01   12.0110           0
      8870 MEMB     43       SAPC     H11A     HAL2     0.900000E-01   1.00800           0
      8871 MEMB     43       SAPC     H11B     HAL2     0.900000E-01   1.00800           0
      8872 MEMB     43       SAPC     P        PL       1.500000       30.9740           0
      8873 MEMB     43       SAPC     O13      O2L     -0.780000       15.9994           0
      8874 MEMB     43       SAPC     O14      O2L     -0.780000       15.9994           0
      8875 MEMB     43       SAPC     O12      OSLP    -0.570000       15.9994           0
      8876 MEMB     43       SAPC     O11      OSLP    -0.570000       15.9994           0
      8877 MEMB     43       SAPC     C1       CTL2    -0.800000E-01   12.0110           0
      8878 MEMB     43       SAPC     HA       HAL2     0.900000E-01   1.00800           0
      8879 MEMB     43       SAPC     HB       HAL2     0.900000E-01   1.00800           0
      8880 MEMB     43       SAPC     C2       CTL1     0.170000       12.0110           0
      8881 MEMB     43       SAPC     HS       HAL1     0.900000E-01   1.00800           0
      8882 MEMB     43       SAPC     O21      OSL     -0.490000       15.9994           0
      8883 MEMB     43       SAPC     C21      CL       0.900000       12.0110           0
      8884 MEMB     43       SAPC     O22      OBL     -0.630000       15.9994           0
      8885 MEMB     43       SAPC     C22      CTL2    -0.220000       12.0110           0
      8886 MEMB     43       SAPC     H2R      HAL2     0.900000E-01   1.00800           0
      8887 MEMB     43       SAPC     H2S      HAL2     0.900000E-01   1.00800           0
      8888 MEMB     43       SAPC     C3       CTL2     0.800000E-01   12.0110           0
      8889 MEMB     43       SAPC     HX       HAL2     0.900000E-01   1.00800           0
      8890 MEMB     43       SAPC     HY       HAL2     0.900000E-01   1.00800           0
      8891 MEMB     43       SAPC     O31      OSL     -0.490000       15.9994           0
      8892 MEMB     43       SAPC     C31      CL       0.900000       12.0110           0
      8893 MEMB     43       SAPC     O32      OBL     -0.630000       15.9994           0
      8894 MEMB     43       SAPC     C32      CTL2    -0.220000       12.0110           0
      8895 MEMB     43       SAPC     H2X      HAL2     0.900000E-01   1.00800           0
      8896 MEMB     43       SAPC     H2Y      HAL2     0.900000E-01   1.00800           0
      8897 MEMB     43       SAPC     C23      CTL2    -0.180000       12.0110           0
      8898 MEMB     43       SAPC     H3R      HAL2     0.900000E-01   1.00800           0
      8899 MEMB     43       SAPC     H3S      HAL2     0.900000E-01   1.00800           0
      8900 MEMB     43       SAPC     C24      CTL2    -0.180000       12.0110           0
      8901 MEMB     43       SAPC     H4R      HAL2     0.900000E-01   1.00800           0
      8902 MEMB     43       SAPC     H4S      HAL2     0.900000E-01   1.00800           0
      8903 MEMB     43       SAPC     C25      CEL1    -0.150000       12.0110           0
      8904 MEMB     43       SAPC     H5R      HEL1     0.150000       1.00800           0
      8905 MEMB     43       SAPC     C26      CEL1    -0.150000       12.0110           0
      8906 MEMB     43       SAPC     H6R      HEL1     0.150000       1.00800           0
      8907 MEMB     43       SAPC     C27      CTL2    -0.180000       12.0110           0
      8908 MEMB     43       SAPC     H7R      HAL2     0.900000E-01   1.00800           0
      8909 MEMB     43       SAPC     H7S      HAL2     0.900000E-01   1.00800           0
      8910 MEMB     43       SAPC     C28      CEL1    -0.150000       12.0110           0
      8911 MEMB     43       SAPC     H8R      HEL1     0.150000       1.00800           0
      8912 MEMB     43       SAPC     C29      CEL1    -0.150000       12.0110           0
      8913 MEMB     43       SAPC     H9R      HEL1     0.150000       1.00800           0
      8914 MEMB     43       SAPC     C210     CTL2    -0.180000       12.0110           0
      8915 MEMB     43       SAPC     H10R     HAL2     0.900000E-01   1.00800           0
      8916 MEMB     43       SAPC     H10S     HAL2     0.900000E-01   1.00800           0
      8917 MEMB     43       SAPC     C211     CEL1    -0.150000       12.0110           0
      8918 MEMB     43       SAPC     H11R     HEL1     0.150000       1.00800           0
      8919 MEMB     43       SAPC     C212     CEL1    -0.150000       12.0110           0
      8920 MEMB     43       SAPC     H12R     HEL1     0.150000       1.00800           0
      8921 MEMB     43       SAPC     C213     CTL2    -0.180000       12.0110           0
      8922 MEMB     43       SAPC     H13R     HAL2     0.900000E-01   1.00800           0
      8923 MEMB     43       SAPC     H13S     HAL2     0.900000E-01   1.00800           0
      8924 MEMB     43       SAPC     C214     CEL1    -0.150000       12.0110           0
      8925 MEMB     43       SAPC     H14R     HEL1     0.150000       1.00800           0
      8926 MEMB     43       SAPC     C215     CEL1    -0.150000       12.0110           0
      8927 MEMB     43       SAPC     H15R     HEL1     0.150000       1.00800           0
      8928 MEMB     43       SAPC     C216     CTL2    -0.180000       12.0110           0
      8929 MEMB     43       SAPC     H16R     HAL2     0.900000E-01   1.00800           0
      8930 MEMB     43       SAPC     H16S     HAL2     0.900000E-01   1.00800           0
      8931 MEMB     43       SAPC     C217     CTL2    -0.180000       12.0110           0
      8932 MEMB     43       SAPC     H17R     HAL2     0.900000E-01   1.00800           0
      8933 MEMB     43       SAPC     H17S     HAL2     0.900000E-01   1.00800           0
      8934 MEMB     43       SAPC     C218     CTL2    -0.270000       12.0110           0
      8935 MEMB     43       SAPC     H18R     HAL2     0.900000E-01   1.00800           0
      8936 MEMB     43       SAPC     H18S     HAL2     0.900000E-01   1.00800           0
      8937 MEMB     43       SAPC     C219     CTL2    -0.180000       12.0110           0
      8938 MEMB     43       SAPC     H19R     HAL2     0.900000E-01   1.00800           0
      8939 MEMB     43       SAPC     H19S     HAL2     0.900000E-01   1.00800           0
      8940 MEMB     43       SAPC     C220     CTL3    -0.180000       12.0110           0
      8941 MEMB     43       SAPC     H20R     HAL3     0.900000E-01   1.00800           0
      8942 MEMB     43       SAPC     H20S     HAL3     0.900000E-01   1.00800           0
      8943 MEMB     43       SAPC     H20T     HAL3     0.900000E-01   1.00800           0
      8944 MEMB     43       SAPC     C33      CTL2    -0.180000       12.0110           0
      8945 MEMB     43       SAPC     H3X      HAL2     0.900000E-01   1.00800           0
      8946 MEMB     43       SAPC     H3Y      HAL2     0.900000E-01   1.00800           0
      8947 MEMB     43       SAPC     C34      CTL2    -0.180000       12.0110           0
      8948 MEMB     43       SAPC     H4X      HAL2     0.900000E-01   1.00800           0
      8949 MEMB     43       SAPC     H4Y      HAL2     0.900000E-01   1.00800           0
      8950 MEMB     43       SAPC     C35      CTL2    -0.180000       12.0110           0
      8951 MEMB     43       SAPC     H5X      HAL2     0.900000E-01   1.00800           0
      8952 MEMB     43       SAPC     H5Y      HAL2     0.900000E-01   1.00800           0
      8953 MEMB     43       SAPC     C36      CTL2    -0.180000       12.0110           0
      8954 MEMB     43       SAPC     H6X      HAL2     0.900000E-01   1.00800           0
      8955 MEMB     43       SAPC     H6Y      HAL2     0.900000E-01   1.00800           0
      8956 MEMB     43       SAPC     C37      CTL2    -0.180000       12.0110           0
      8957 MEMB     43       SAPC     H7X      HAL2     0.900000E-01   1.00800           0
      8958 MEMB     43       SAPC     H7Y      HAL2     0.900000E-01   1.00800           0
      8959 MEMB     43       SAPC     C38      CTL2    -0.180000       12.0110           0
      8960 MEMB     43       SAPC     H8X      HAL2     0.900000E-01   1.00800           0
      8961 MEMB     43       SAPC     H8Y      HAL2     0.900000E-01   1.00800           0
      8962 MEMB     43       SAPC     C39      CTL2    -0.180000       12.0110           0
      8963 MEMB     43       SAPC     H9X      HAL2     0.900000E-01   1.00800           0
      8964 MEMB     43       SAPC     H9Y      HAL2     0.900000E-01   1.00800           0
      8965 MEMB     43       SAPC     C310     CTL2    -0.180000       12.0110           0
      8966 MEMB     43       SAPC     H10X     HAL2     0.900000E-01   1.00800           0
      8967 MEMB     43       SAPC     H10Y     HAL2     0.900000E-01   1.00800           0
      8968 MEMB     43       SAPC     C311     CTL2    -0.180000       12.0110           0
      8969 MEMB     43       SAPC     H11X     HAL2     0.900000E-01   1.00800           0
      8970 MEMB     43       SAPC     H11Y     HAL2     0.900000E-01   1.00800           0
      8971 MEMB     43       SAPC     C312     CTL2    -0.180000       12.0110           0
      8972 MEMB     43       SAPC     H12X     HAL2     0.900000E-01   1.00800           0
      8973 MEMB     43       SAPC     H12Y     HAL2     0.900000E-01   1.00800           0
      8974 MEMB     43       SAPC     C313     CTL2    -0.180000       12.0110           0
      8975 MEMB     43       SAPC     H13X     HAL2     0.900000E-01   1.00800           0
      8976 MEMB     43       SAPC     H13Y     HAL2     0.900000E-01   1.00800           0
      8977 MEMB     43       SAPC     C314     CTL2    -0.180000       12.0110           0
      8978 MEMB     43       SAPC     H14X     HAL2     0.900000E-01   1.00800           0
      8979 MEMB     43       SAPC     H14Y     HAL2     0.900000E-01   1.00800           0
      8980 MEMB     43       SAPC     C315     CTL2    -0.180000       12.0110           0
      8981 MEMB     43       SAPC     H15X     HAL2     0.900000E-01   1.00800           0
      8982 MEMB     43       SAPC     H15Y     HAL2     0.900000E-01   1.00800           0
      8983 MEMB     43       SAPC     C316     CTL2    -0.180000       12.0110           0
      8984 MEMB     43       SAPC     H16X     HAL2     0.900000E-01   1.00800           0
      8985 MEMB     43       SAPC     H16Y     HAL2     0.900000E-01   1.00800           0
      8986 MEMB     43       SAPC     C317     CTL2    -0.180000       12.0110           0
      8987 MEMB     43       SAPC     H17X     HAL2     0.900000E-01   1.00800           0
      8988 MEMB     43       SAPC     H17Y     HAL2     0.900000E-01   1.00800           0
      8989 MEMB     43       SAPC     C318     CTL3    -0.270000       12.0110           0
      8990 MEMB     43       SAPC     H18X     HAL3     0.900000E-01   1.00800           0
      8991 MEMB     43       SAPC     H18Y     HAL3     0.900000E-01   1.00800           0
      8992 MEMB     43       SAPC     H18Z     HAL3     0.900000E-01   1.00800           0
      8993 MEMB     55       SAPC     N        NTL     -0.600000       14.0070           0
      8994 MEMB     55       SAPC     C12      CTL2    -0.100000       12.0110           0
      8995 MEMB     55       SAPC     H12A     HL       0.250000       1.00800           0
      8996 MEMB     55       SAPC     H12B     HL       0.250000       1.00800           0
      8997 MEMB     55       SAPC     C13      CTL5    -0.350000       12.0110           0
      8998 MEMB     55       SAPC     H13A     HL       0.250000       1.00800           0
      8999 MEMB     55       SAPC     H13B     HL       0.250000       1.00800           0
      9000 MEMB     55       SAPC     H13C     HL       0.250000       1.00800           0
      9001 MEMB     55       SAPC     C14      CTL5    -0.350000       12.0110           0
      9002 MEMB     55       SAPC     H14A     HL       0.250000       1.00800           0
      9003 MEMB     55       SAPC     H14B     HL       0.250000       1.00800           0
      9004 MEMB     55       SAPC     H14C     HL       0.250000       1.00800           0
      9005 MEMB     55       SAPC     C15      CTL5    -0.350000       12.0110           0
      9006 MEMB     55       SAPC     H15A     HL       0.250000       1.00800           0
      9007 MEMB     55       SAPC     H15B     HL       0.250000       1.00800           0
      9008 MEMB     55       SAPC     H15C     HL       0.250000       1.00800           0
      9009 MEMB     55       SAPC     C11      CTL2    -0.800000E-01   12.0110           0
      9010 MEMB     55       SAPC     H11A     HAL2     0.900000E-01   1.00800           0
      9011 MEMB     55       SAPC     H11B     HAL2     0.900000E-01   1.00800           0
      9012 MEMB     55       SAPC     P        PL       1.500000       30.9740           0
      9013 MEMB     55       SAPC     O13      O2L     -0.780000       15.9994           0
      9014 MEMB     55       SAPC     O14      O2L     -0.780000       15.9994           0
      9015 MEMB     55       SAPC     O12      OSLP    -0.570000       15.9994           0
      9016 MEMB     55       SAPC     O11      OSLP    -0.570000       15.9994           0
      9017 MEMB     55       SAPC     C1       CTL2    -0.800000E-01   12.0110           0
      9018 MEMB     55       SAPC     HA       HAL2     0.900000E-01   1.00800           0
      9019 MEMB     55       SAPC     HB       HAL2     0.900000E-01   1.00800           0
      9020 MEMB     55       SAPC     C2       CTL1     0.170000       12.0110           0
      9021 MEMB     55       SAPC     HS       HAL1     0.900000E-01   1.00800           0
      9022 MEMB     55       SAPC     O21      OSL     -0.490000       15.9994           0
      9023 MEMB     55       SAPC     C21      CL       0.900000       12.0110           0
      9024 MEMB     55       SAPC     O22      OBL     -0.630000       15.9994           0
      9025 MEMB     55       SAPC     C22      CTL2    -0.220000       12.0110           0
      9026 MEMB     55       SAPC     H2R      HAL2     0.900000E-01   1.00800           0
      9027 MEMB     55       SAPC     H2S      HAL2     0.900000E-01   1.00800           0
      9028 MEMB     55       SAPC     C3       CTL2     0.800000E-01   12.0110           0
      9029 MEMB     55       SAPC     HX       HAL2     0.900000E-01   1.00800           0
      9030 MEMB     55       SAPC     HY       HAL2     0.900000E-01   1.00800           0
      9031 MEMB     55       SAPC     O31      OSL     -0.490000       15.9994           0
      9032 MEMB     55       SAPC     C31      CL       0.900000       12.0110           0
      9033 MEMB     55       SAPC     O32      OBL     -0.630000       15.9994           0
      9034 MEMB     55       SAPC     C32      CTL2    -0.220000       12.0110           0
      9035 MEMB     55       SAPC     H2X      HAL2     0.900000E-01   1.00800           0
      9036 MEMB     55       SAPC     H2Y      HAL2     0.900000E-01   1.00800           0
      9037 MEMB     55       SAPC     C23      CTL2    -0.180000       12.0110           0
      9038 MEMB     55       SAPC     H3R      HAL2     0.900000E-01   1.00800           0
      9039 MEMB     55       SAPC     H3S      HAL2     0.900000E-01   1.00800           0
      9040 MEMB     55       SAPC     C24      CTL2    -0.180000       12.0110           0
      9041 MEMB     55       SAPC     H4R      HAL2     0.900000E-01   1.00800           0
      9042 MEMB     55       SAPC     H4S      HAL2     0.900000E-01   1.00800           0
      9043 MEMB     55       SAPC     C25      CEL1    -0.150000       12.0110           0
      9044 MEMB     55       SAPC     H5R      HEL1     0.150000       1.00800           0
      9045 MEMB     55       SAPC     C26      CEL1    -0.150000       12.0110           0
      9046 MEMB     55       SAPC     H6R      HEL1     0.150000       1.00800           0
      9047 MEMB     55       SAPC     C27      CTL2    -0.180000       12.0110           0
      9048 MEMB     55       SAPC     H7R      HAL2     0.900000E-01   1.00800           0
      9049 MEMB     55       SAPC     H7S      HAL2     0.900000E-01   1.00800           0
      9050 MEMB     55       SAPC     C28      CEL1    -0.150000       12.0110           0
      9051 MEMB     55       SAPC     H8R      HEL1     0.150000       1.00800           0
      9052 MEMB     55       SAPC     C29      CEL1    -0.150000       12.0110           0
      9053 MEMB     55       SAPC     H9R      HEL1     0.150000       1.00800           0
      9054 MEMB     55       SAPC     C210     CTL2    -0.180000       12.0110           0
      9055 MEMB     55       SAPC     H10R     HAL2     0.900000E-01   1.00800           0
      9056 MEMB     55       SAPC     H10S     HAL2     0.900000E-01   1.00800           0
      9057 MEMB     55       SAPC     C211     CEL1    -0.150000       12.0110           0
      9058 MEMB     55       SAPC     H11R     HEL1     0.150000       1.00800           0
      9059 MEMB     55       SAPC     C212     CEL1    -0.150000       12.0110           0
      9060 MEMB     55       SAPC     H12R     HEL1     0.150000       1.00800           0
      9061 MEMB     55       SAPC     C213     CTL2    -0.180000       12.0110           0
      9062 MEMB     55       SAPC     H13R     HAL2     0.900000E-01   1.00800           0
      9063 MEMB     55       SAPC     H13S     HAL2     0.900000E-01   1.00800           0
      9064 MEMB     55       SAPC     C214     CEL1    -0.150000       12.0110           0
      9065 MEMB     55       SAPC     H14R     HEL1     0.150000       1.00800           0
      9066 MEMB     55       SAPC     C215     CEL1    -0.150000       12.0110           0
      9067 MEMB     55       SAPC     H15R     HEL1     0.150000       1.00800           0
      9068 MEMB     55       SAPC     C216     CTL2    -0.180000       12.0110           0
      9069 MEMB     55       SAPC     H16R     HAL2     0.900000E-01   1.00800           0
      9070 MEMB     55       SAPC     H16S     HAL2     0.900000E-01   1.00800           0
      9071 MEMB     55       SAPC     C217     CTL2    -0.180000       12.0110           0
      9072 MEMB     55       SAPC     H17R     HAL2     0.900000E-01   1.00800           0
      9073 MEMB     55       SAPC     H17S     HAL2     0.900000E-01   1.00800           0
      9074 MEMB     55       SAPC     C218     CTL2    -0.270000       12.0110           0
      9075 MEMB     55       SAPC     H18R     HAL2     0.900000E-01   1.00800           0
      9076 MEMB     55       SAPC     H18S     HAL2     0.900000E-01   1.00800           0
      9077 MEMB     55       SAPC     C219     CTL2    -0.180000       12.0110           0
      9078 MEMB     55       SAPC     H19R     HAL2     0.900000E-01   1.00800           0
      9079 MEMB     55       SAPC     H19S     HAL2     0.900000E-01   1.00800           0
      9080 MEMB     55       SAPC     C220     CTL3    -0.180000       12.0110           0
      9081 MEMB     55       SAPC     H20R     HAL3     0.900000E-01   1.00800           0
      9082 MEMB     55       SAPC     H20S     HAL3     0.900000E-01   1.00800           0
      9083 MEMB     55       SAPC     H20T     HAL3     0.900000E-01   1.00800           0
      9084 MEMB     55       SAPC     C33      CTL2    -0.180000       12.0110           0
      9085 MEMB     55       SAPC     H3X      HAL2     0.900000E-01   1.00800           0
      9086 MEMB     55       SAPC     H3Y      HAL2     0.900000E-01   1.00800           0
      9087 MEMB     55       SAPC     C34      CTL2    -0.180000       12.0110           0
      9088 MEMB     55       SAPC     H4X      HAL2     0.900000E-01   1.00800           0
      9089 MEMB     55       SAPC     H4Y      HAL2     0.900000E-01   1.00800           0
      9090 MEMB     55       SAPC     C35      CTL2    -0.180000       12.0110           0
      9091 MEMB     55       SAPC     H5X      HAL2     0.900000E-01   1.00800           0
      9092 MEMB     55       SAPC     H5Y      HAL2     0.900000E-01   1.00800           0
      9093 MEMB     55       SAPC     C36      CTL2    -0.180000       12.0110           0
      9094 MEMB     55       SAPC     H6X      HAL2     0.900000E-01   1.00800           0
      9095 MEMB     55       SAPC     H6Y      HAL2     0.900000E-01   1.00800           0
      9096 MEMB     55       SAPC     C37      CTL2    -0.180000       12.0110           0
      9097 MEMB     55       SAPC     H7X      HAL2     0.900000E-01   1.00800           0
      9098 MEMB     55       SAPC     H7Y      HAL2     0.900000E-01   1.00800           0
      9099 MEMB     55       SAPC     C38      CTL2    -0.180000       12.0110           0
      9100 MEMB     55       SAPC     H8X      HAL2     0.900000E-01   1.00800           0
      9101 MEMB     55       SAPC     H8Y      HAL2     0.900000E-01   1.00800           0
      9102 MEMB     55       SAPC     C39      CTL2    -0.180000       12.0110           0
      9103 MEMB     55       SAPC     H9X      HAL2     0.900000E-01   1.00800           0
      9104 MEMB     55       SAPC     H9Y      HAL2     0.900000E-01   1.00800           0
      9105 MEMB     55       SAPC     C310     CTL2    -0.180000       12.0110           0
      9106 MEMB     55       SAPC     H10X     HAL2     0.900000E-01   1.00800           0
      9107 MEMB     55       SAPC     H10Y     HAL2     0.900000E-01   1.00800           0
      9108 MEMB     55       SAPC     C311     CTL2    -0.180000       12.0110           0
      9109 MEMB     55       SAPC     H11X     HAL2     0.900000E-01   1.00800           0
      9110 MEMB     55       SAPC     H11Y     HAL2     0.900000E-01   1.00800           0
      9111 MEMB     55       SAPC     C312     CTL2    -0.180000       12.0110           0
      9112 MEMB     55       SAPC     H12X     HAL2     0.900000E-01   1.00800           0
      9113 MEMB     55       SAPC     H12Y     HAL2     0.900000E-01   1.00800           0
      9114 MEMB     55       SAPC     C313     CTL2    -0.180000       12.0110           0
      9115 MEMB     55       SAPC     H13X     HAL2     0.900000E-01   1.00800           0
      9116 MEMB     55       SAPC     H13Y     HAL2     0.900000E-01   1.00800           0
      9117 MEMB     55       SAPC     C314     CTL2    -0.180000       12.0110           0
      9118 MEMB     55       SAPC     H14X     HAL2     0.900000E-01   1.00800           0
      9119 MEMB     55       SAPC     H14Y     HAL2     0.900000E-01   1.00800           0
      9120 MEMB     55       SAPC     C315     CTL2    -0.180000       12.0110           0
      9121 MEMB     55       SAPC     H15X     HAL2     0.900000E-01   1.00800           0
      9122 MEMB     55       SAPC     H15Y     HAL2     0.900000E-01   1.00800           0
      9123 MEMB     55       SAPC     C316     CTL2    -0.180000       12.0110           0
      9124 MEMB     55       SAPC     H16X     HAL2     0.900000E-01   1.00800           0
      9125 MEMB     55       SAPC     H16Y     HAL2     0.900000E-01   1.00800           0
      9126 MEMB     55       SAPC     C317     CTL2    -0.180000       12.0110           0
      9127 MEMB     55       SAPC     H17X     HAL2     0.900000E-01   1.00800           0
      9128 MEMB     55       SAPC     H17Y     HAL2     0.900000E-01   1.00800           0
      9129 MEMB     55       SAPC     C318     CTL3    -0.270000       12.0110           0
      9130 MEMB     55       SAPC     H18X     HAL3     0.900000E-01   1.00800           0
      9131 MEMB     55       SAPC     H18Y     HAL3     0.900000E-01   1.00800           0
      9132 MEMB     55       SAPC     H18Z     HAL3     0.900000E-01   1.00800           0
      9133 MEMB     62       SAPC     N        NTL     -0.600000       14.0070           0
      9134 MEMB     62       SAPC     C12      CTL2    -0.100000       12.0110           0
      9135 MEMB     62       SAPC     H12A     HL       0.250000       1.00800           0
      9136 MEMB     62       SAPC     H12B     HL       0.250000       1.00800           0
      9137 MEMB     62       SAPC     C13      CTL5    -0.350000       12.0110           0
      9138 MEMB     62       SAPC     H13A     HL       0.250000       1.00800           0
      9139 MEMB     62       SAPC     H13B     HL       0.250000       1.00800           0
      9140 MEMB     62       SAPC     H13C     HL       0.250000       1.00800           0
      9141 MEMB     62       SAPC     C14      CTL5    -0.350000       12.0110           0
      9142 MEMB     62       SAPC     H14A     HL       0.250000       1.00800           0
      9143 MEMB     62       SAPC     H14B     HL       0.250000       1.00800           0
      9144 MEMB     62       SAPC     H14C     HL       0.250000       1.00800           0
      9145 MEMB     62       SAPC     C15      CTL5    -0.350000       12.0110           0
      9146 MEMB     62       SAPC     H15A     HL       0.250000       1.00800           0
      9147 MEMB     62       SAPC     H15B     HL       0.250000       1.00800           0
      9148 MEMB     62       SAPC     H15C     HL       0.250000       1.00800           0
      9149 MEMB     62       SAPC     C11      CTL2    -0.800000E-01   12.0110           0
      9150 MEMB     62       SAPC     H11A     HAL2     0.900000E-01   1.00800           0
      9151 MEMB     62       SAPC     H11B     HAL2     0.900000E-01   1.00800           0
      9152 MEMB     62       SAPC     P        PL       1.500000       30.9740           0
      9153 MEMB     62       SAPC     O13      O2L     -0.780000       15.9994           0
      9154 MEMB     62       SAPC     O14      O2L     -0.780000       15.9994           0
      9155 MEMB     62       SAPC     O12      OSLP    -0.570000       15.9994           0
      9156 MEMB     62       SAPC     O11      OSLP    -0.570000       15.9994           0
      9157 MEMB     62       SAPC     C1       CTL2    -0.800000E-01   12.0110           0
      9158 MEMB     62       SAPC     HA       HAL2     0.900000E-01   1.00800           0
      9159 MEMB     62       SAPC     HB       HAL2     0.900000E-01   1.00800           0
      9160 MEMB     62       SAPC     C2       CTL1     0.170000       12.0110           0
      9161 MEMB     62       SAPC     HS       HAL1     0.900000E-01   1.00800           0
      9162 MEMB     62       SAPC     O21      OSL     -0.490000       15.9994           0
      9163 MEMB     62       SAPC     C21      CL       0.900000       12.0110           0
      9164 MEMB     62       SAPC     O22      OBL     -0.630000       15.9994           0
      9165 MEMB     62       SAPC     C22      CTL2    -0.220000       12.0110           0
      9166 MEMB     62       SAPC     H2R      HAL2     0.900000E-01   1.00800           0
      9167 MEMB     62       SAPC     H2S      HAL2     0.900000E-01   1.00800           0
      9168 MEMB     62       SAPC     C3       CTL2     0.800000E-01   12.0110           0
      9169 MEMB     62       SAPC     HX       HAL2     0.900000E-01   1.00800           0
      9170 MEMB     62       SAPC     HY       HAL2     0.900000E-01   1.00800           0
      9171 MEMB     62       SAPC     O31      OSL     -0.490000       15.9994           0
      9172 MEMB     62       SAPC     C31      CL       0.900000       12.0110           0
      9173 MEMB     62       SAPC     O32      OBL     -0.630000       15.9994           0
      9174 MEMB     62       SAPC     C32      CTL2    -0.220000       12.0110           0
      9175 MEMB     62       SAPC     H2X      HAL2     0.900000E-01   1.00800           0
      9176 MEMB     62       SAPC     H2Y      HAL2     0.900000E-01   1.00800           0
      9177 MEMB     62       SAPC     C23      CTL2    -0.180000       12.0110           0
      9178 MEMB     62       SAPC     H3R      HAL2     0.900000E-01   1.00800           0
      9179 MEMB     62       SAPC     H3S      HAL2     0.900000E-01   1.00800           0
      9180 MEMB     62       SAPC     C24      CTL2    -0.180000       12.0110           0
      9181 MEMB     62       SAPC     H4R      HAL2     0.900000E-01   1.00800           0
      9182 MEMB     62       SAPC     H4S      HAL2     0.900000E-01   1.00800           0
      9183 MEMB     62       SAPC     C25      CEL1    -0.150000       12.0110           0
      9184 MEMB     62       SAPC     H5R      HEL1     0.150000       1.00800           0
      9185 MEMB     62       SAPC     C26      CEL1    -0.150000       12.0110           0
      9186 MEMB     62       SAPC     H6R      HEL1     0.150000       1.00800           0
      9187 MEMB     62       SAPC     C27      CTL2    -0.180000       12.0110           0
      9188 MEMB     62       SAPC     H7R      HAL2     0.900000E-01   1.00800           0
      9189 MEMB     62       SAPC     H7S      HAL2     0.900000E-01   1.00800           0
      9190 MEMB     62       SAPC     C28      CEL1    -0.150000       12.0110           0
      9191 MEMB     62       SAPC     H8R      HEL1     0.150000       1.00800           0
      9192 MEMB     62       SAPC     C29      CEL1    -0.150000       12.0110           0
      9193 MEMB     62       SAPC     H9R      HEL1     0.150000       1.00800           0
      9194 MEMB     62       SAPC     C210     CTL2    -0.180000       12.0110           0
      9195 MEMB     62       SAPC     H10R     HAL2     0.900000E-01   1.00800           0
      9196 MEMB     62       SAPC     H10S     HAL2     0.900000E-01   1.00800           0
      9197 MEMB     62       SAPC     C211     CEL1    -0.150000       12.0110           0
      9198 MEMB     62       SAPC     H11R     HEL1     0.150000       1.00800           0
      9199 MEMB     62       SAPC     C212     CEL1    -0.150000       12.0110           0
      9200 MEMB     62       SAPC     H12R     HEL1     0.150000       1.00800           0
      9201 MEMB     62       SAPC     C213     CTL2    -0.180000       12.0110           0
      9202 MEMB     62       SAPC     H13R     HAL2     0.900000E-01   1.00800           0
      9203 MEMB     62       SAPC     H13S     HAL2     0.900000E-01   1.00800           0
      9204 MEMB     62       SAPC     C214     CEL1    -0.150000       12.0110           0
      9205 MEMB     62       SAPC     H14R     HEL1     0.150000       1.00800           0
      9206 MEMB     62       SAPC     C215     CEL1    -0.150000       12.0110           0
      9207 MEMB     62       SAPC     H15R     HEL1     0.150000       1.00800           0
      9208 MEMB     62       SAPC     C216     CTL2    -0.180000       12.0110           0
      9209 MEMB     62       SAPC     H16R     HAL2     0.900000E-01   1.00800           0
      9210 MEMB     62       SAPC     H16S     HAL2     0.900000E-01   1.00800           0
      9211 MEMB     62       SAPC     C217     CTL2    -0.180000       12.0110           0
      9212 MEMB     62       SAPC     H17R     HAL2     0.900000E-01   1.00800           0
      9213 MEMB     62       SAPC     H17S     HAL2     0.900000E-01   1.00800           0
      9214 MEMB     62       SAPC     C218     CTL2    -0.270000       12.0110           0
      9215 MEMB     62       SAPC     H18R     HAL2     0.900000E-01   1.00800           0
      9216 MEMB     62       SAPC     H18S     HAL2     0.900000E-01   1.00800           0
      9217 MEMB     62       SAPC     C219     CTL2    -0.180000       12.0110           0
      9218 MEMB     62       SAPC     H19R     HAL2     0.900000E-01   1.00800           0
      9219 MEMB     62       SAPC     H19S     HAL2     0.900000E-01   1.00800           0
      9220 MEMB     62       SAPC     C220     CTL3    -0.180000       12.0110           0
      9221 MEMB     62       SAPC     H20R     HAL3     0.900000E-01   1.00800           0
      9222 MEMB     62       SAPC     H20S     HAL3     0.900000E-01   1.00800           0
      9223 MEMB     62       SAPC     H20T     HAL3     0.900000E-01   1.00800           0
      9224 MEMB     62       SAPC     C33      CTL2    -0.180000       12.0110           0
      9225 MEMB     62       SAPC     H3X      HAL2     0.900000E-01   1.00800           0
      9226 MEMB     62       SAPC     H3Y      HAL2     0.900000E-01   1.00800           0
      9227 MEMB     62       SAPC     C34      CTL2    -0.180000       12.0110           0
      9228 MEMB     62       SAPC     H4X      HAL2     0.900000E-01   1.00800           0
      9229 MEMB     62       SAPC     H4Y      HAL2     0.900000E-01   1.00800           0
      9230 MEMB     62       SAPC     C35      CTL2    -0.180000       12.0110           0
      9231 MEMB     62       SAPC     H5X      HAL2     0.900000E-01   1.00800           0
      9232 MEMB     62       SAPC     H5Y      HAL2     0.900000E-01   1.00800           0
      9233 MEMB     62       SAPC     C36      CTL2    -0.180000       12.0110           0
      9234 MEMB     62       SAPC     H6X      HAL2     0.900000E-01   1.00800           0
      9235 MEMB     62       SAPC     H6Y      HAL2     0.900000E-01   1.00800           0
      9236 MEMB     62       SAPC     C37      CTL2    -0.180000       12.0110           0
      9237 MEMB     62       SAPC     H7X      HAL2     0.900000E-01   1.00800           0
      9238 MEMB     62       SAPC     H7Y      HAL2     0.900000E-01   1.00800           0
      9239 MEMB     62       SAPC     C38      CTL2    -0.180000       12.0110           0
      9240 MEMB     62       SAPC     H8X      HAL2     0.900000E-01   1.00800           0
      9241 MEMB     62       SAPC     H8Y      HAL2     0.900000E-01   1.00800           0
      9242 MEMB     62       SAPC     C39      CTL2    -0.180000       12.0110           0
      9243 MEMB     62       SAPC     H9X      HAL2     0.900000E-01   1.00800           0
      9244 MEMB     62       SAPC     H9Y      HAL2     0.900000E-01   1.00800           0
      9245 MEMB     62       SAPC     C310     CTL2    -0.180000       12.0110           0
      9246 MEMB     62       SAPC     H10X     HAL2     0.900000E-01   1.00800           0
      9247 MEMB     62       SAPC     H10Y     HAL2     0.900000E-01   1.00800           0
      9248 MEMB     62       SAPC     C311     CTL2    -0.180000       12.0110           0
      9249 MEMB     62       SAPC     H11X     HAL2     0.900000E-01   1.00800           0
      9250 MEMB     62       SAPC     H11Y     HAL2     0.900000E-01   1.00800           0
      9251 MEMB     62       SAPC     C312     CTL2    -0.180000       12.0110           0
      9252 MEMB     62       SAPC     H12X     HAL2     0.900000E-01   1.00800           0
      9253 MEMB     62       SAPC     H12Y     HAL2     0.900000E-01   1.00800           0
      9254 MEMB     62       SAPC     C313     CTL2    -0.180000       12.0110           0
      9255 MEMB     62       SAPC     H13X     HAL2     0.900000E-01   1.00800           0
      9256 MEMB     62       SAPC     H13Y     HAL2     0.900000E-01   1.00800           0
      9257 MEMB     62       SAPC     C314     CTL2    -0.180000       12.0110           0
      9258 MEMB     62       SAPC     H14X     HAL2     0.900000E-01   1.00800           0
      9259 MEMB     62       SAPC     H14Y     HAL2     0.900000E-01   1.00800           0
      9260 MEMB     62       SAPC     C315     CTL2    -0.180000       12.0110           0
      9261 MEMB     62       SAPC     H15X     HAL2     0.900000E-01   1.00800           0
      9262 MEMB     62       SAPC     H15Y     HAL2     0.900000E-01   1.00800           0
      9263 MEMB     62       SAPC     C316     CTL2    -0.180000       12.0110           0
      9264 MEMB     62       SAPC     H16X     HAL2     0.900000E-01   1.00800           0
      9265 MEMB     62       SAPC     H16Y     HAL2     0.900000E-01   1.00800           0
      9266 MEMB     62       SAPC     C317     CTL2    -0.180000       12.0110           0
      9267 MEMB     62       SAPC     H17X     HAL2     0.900000E-01   1.00800           0
      9268 MEMB     62       SAPC     H17Y     HAL2     0.900000E-01   1.00800           0
      9269 MEMB     62       SAPC     C318     CTL3    -0.270000       12.0110           0
      9270 MEMB     62       SAPC     H18X     HAL3     0.900000E-01   1.00800           0
      9271 MEMB     62       SAPC     H18Y     HAL3     0.900000E-01   1.00800           0
      9272 MEMB     62       SAPC     H18Z     HAL3     0.900000E-01   1.00800           0
      9273 MEMB     70       SAPC     N        NTL     -0.600000       14.0070           0
      9274 MEMB     70       SAPC     C12      CTL2    -0.100000       12.0110           0
      9275 MEMB     70       SAPC     H12A     HL       0.250000       1.00800           0
      9276 MEMB     70       SAPC     H12B     HL       0.250000       1.00800           0
      9277 MEMB     70       SAPC     C13      CTL5    -0.350000       12.0110           0
      9278 MEMB     70       SAPC     H13A     HL       0.250000       1.00800           0
      9279 MEMB     70       SAPC     H13B     HL       0.250000       1.00800           0
      9280 MEMB     70       SAPC     H13C     HL       0.250000       1.00800           0
      9281 MEMB     70       SAPC     C14      CTL5    -0.350000       12.0110           0
      9282 MEMB     70       SAPC     H14A     HL       0.250000       1.00800           0
      9283 MEMB     70       SAPC     H14B     HL       0.250000       1.00800           0
      9284 MEMB     70       SAPC     H14C     HL       0.250000       1.00800           0
      9285 MEMB     70       SAPC     C15      CTL5    -0.350000       12.0110           0
      9286 MEMB     70       SAPC     H15A     HL       0.250000       1.00800           0
      9287 MEMB     70       SAPC     H15B     HL       0.250000       1.00800           0
      9288 MEMB     70       SAPC     H15C     HL       0.250000       1.00800           0
      9289 MEMB     70       SAPC     C11      CTL2    -0.800000E-01   12.0110           0
      9290 MEMB     70       SAPC     H11A     HAL2     0.900000E-01   1.00800           0
      9291 MEMB     70       SAPC     H11B     HAL2     0.900000E-01   1.00800           0
      9292 MEMB     70       SAPC     P        PL       1.500000       30.9740           0
      9293 MEMB     70       SAPC     O13      O2L     -0.780000       15.9994           0
      9294 MEMB     70       SAPC     O14      O2L     -0.780000       15.9994           0
      9295 MEMB     70       SAPC     O12      OSLP    -0.570000       15.9994           0
      9296 MEMB     70       SAPC     O11      OSLP    -0.570000       15.9994           0
      9297 MEMB     70       SAPC     C1       CTL2    -0.800000E-01   12.0110           0
      9298 MEMB     70       SAPC     HA       HAL2     0.900000E-01   1.00800           0
      9299 MEMB     70       SAPC     HB       HAL2     0.900000E-01   1.00800           0
      9300 MEMB     70       SAPC     C2       CTL1     0.170000       12.0110           0
      9301 MEMB     70       SAPC     HS       HAL1     0.900000E-01   1.00800           0
      9302 MEMB     70       SAPC     O21      OSL     -0.490000       15.9994           0
      9303 MEMB     70       SAPC     C21      CL       0.900000       12.0110           0
      9304 MEMB     70       SAPC     O22      OBL     -0.630000       15.9994           0
      9305 MEMB     70       SAPC     C22      CTL2    -0.220000       12.0110           0
      9306 MEMB     70       SAPC     H2R      HAL2     0.900000E-01   1.00800           0
      9307 MEMB     70       SAPC     H2S      HAL2     0.900000E-01   1.00800           0
      9308 MEMB     70       SAPC     C3       CTL2     0.800000E-01   12.0110           0
      9309 MEMB     70       SAPC     HX       HAL2     0.900000E-01   1.00800           0
      9310 MEMB     70       SAPC     HY       HAL2     0.900000E-01   1.00800           0
      9311 MEMB     70       SAPC     O31      OSL     -0.490000       15.9994           0
      9312 MEMB     70       SAPC     C31      CL       0.900000       12.0110           0
      9313 MEMB     70       SAPC     O32      OBL     -0.630000       15.9994           0
      9314 MEMB     70       SAPC     C32      CTL2    -0.220000       12.0110           0
      9315 MEMB     70       SAPC     H2X      HAL2     0.900000E-01   1.00800           0
      9316 MEMB     70       SAPC     H2Y      HAL2     0.900000E-01   1.00800           0
      9317 MEMB     70       SAPC     C23      CTL2    -0.180000       12.0110           0
      9318 MEMB     70       SAPC     H3R      HAL2     0.900000E-01   1.00800           0
      9319 MEMB     70       SAPC     H3S      HAL2     0.900000E-01   1.00800           0
      9320 MEMB     70       SAPC     C24      CTL2    -0.180000       12.0110           0
      9321 MEMB     70       SAPC     H4R      HAL2     0.900000E-01   1.00800           0
      9322 MEMB     70       SAPC     H4S      HAL2     0.900000E-01   1.00800           0
      9323 MEMB     70       SAPC     C25      CEL1    -0.150000       12.0110           0
      9324 MEMB     70       SAPC     H5R      HEL1     0.150000       1.00800           0
      9325 MEMB     70       SAPC     C26      CEL1    -0.150000       12.0110           0
      9326 MEMB     70       SAPC     H6R      HEL1     0.150000       1.00800           0
      9327 MEMB     70       SAPC     C27      CTL2    -0.180000       12.0110           0
      9328 MEMB     70       SAPC     H7R      HAL2     0.900000E-01   1.00800           0
      9329 MEMB     70       SAPC     H7S      HAL2     0.900000E-01   1.00800           0
      9330 MEMB     70       SAPC     C28      CEL1    -0.150000       12.0110           0
      9331 MEMB     70       SAPC     H8R      HEL1     0.150000       1.00800           0
      9332 MEMB     70       SAPC     C29      CEL1    -0.150000       12.0110           0
      9333 MEMB     70       SAPC     H9R      HEL1     0.150000       1.00800           0
      9334 MEMB     70       SAPC     C210     CTL2    -0.180000       12.0110           0
      9335 MEMB     70       SAPC     H10R     HAL2     0.900000E-01   1.00800           0
      9336 MEMB     70       SAPC     H10S     HAL2     0.900000E-01   1.00800           0
      9337 MEMB     70       SAPC     C211     CEL1    -0.150000       12.0110           0
      9338 MEMB     70       SAPC     H11R     HEL1     0.150000       1.00800           0
      9339 MEMB     70       SAPC     C212     CEL1    -0.150000       12.0110           0
      9340 MEMB     70       SAPC     H12R     HEL1     0.150000       1.00800           0
      9341 MEMB     70       SAPC     C213     CTL2    -0.180000       12.0110           0
      9342 MEMB     70       SAPC     H13R     HAL2     0.900000E-01   1.00800           0
      9343 MEMB     70       SAPC     H13S     HAL2     0.900000E-01   1.00800           0
      9344 MEMB     70       SAPC     C214     CEL1    -0.150000       12.0110           0
      9345 MEMB     70       SAPC     H14R     HEL1     0.150000       1.00800           0
      9346 MEMB     70       SAPC     C215     CEL1    -0.150000       12.0110           0
      9347 MEMB     70       SAPC     H15R     HEL1     0.150000       1.00800           0
      9348 MEMB     70       SAPC     C216     CTL2    -0.180000       12.0110           0
      9349 MEMB     70       SAPC     H16R     HAL2     0.900000E-01   1.00800           0
      9350 MEMB     70       SAPC     H16S     HAL2     0.900000E-01   1.00800           0
      9351 MEMB     70       SAPC     C217     CTL2    -0.180000       12.0110           0
      9352 MEMB     70       SAPC     H17R     HAL2     0.900000E-01   1.00800           0
      9353 MEMB     70       SAPC     H17S     HAL2     0.900000E-01   1.00800           0
      9354 MEMB     70       SAPC     C218     CTL2    -0.270000       12.0110           0
      9355 MEMB     70       SAPC     H18R     HAL2     0.900000E-01   1.00800           0
      9356 MEMB     70       SAPC     H18S     HAL2     0.900000E-01   1.00800           0
      9357 MEMB     70       SAPC     C219     CTL2    -0.180000       12.0110           0
      9358 MEMB     70       SAPC     H19R     HAL2     0.900000E-01   1.00800           0
      9359 MEMB     70       SAPC     H19S     HAL2     0.900000E-01   1.00800           0
      9360 MEMB     70       SAPC     C220     CTL3    -0.180000       12.0110           0
      9361 MEMB     70       SAPC     H20R     HAL3     0.900000E-01   1.00800           0
      9362 MEMB     70       SAPC     H20S     HAL3     0.900000E-01   1.00800           0
      9363 MEMB     70       SAPC     H20T     HAL3     0.900000E-01   1.00800           0
      9364 MEMB     70       SAPC     C33      CTL2    -0.180000       12.0110           0
      9365 MEMB     70       SAPC     H3X      HAL2     0.900000E-01   1.00800           0
      9366 MEMB     70       SAPC     H3Y      HAL2     0.900000E-01   1.00800           0
      9367 MEMB     70       SAPC     C34      CTL2    -0.180000       12.0110           0
      9368 MEMB     70       SAPC     H4X      HAL2     0.900000E-01   1.00800           0
      9369 MEMB     70       SAPC     H4Y      HAL2     0.900000E-01   1.00800           0
      9370 MEMB     70       SAPC     C35      CTL2    -0.180000       12.0110           0
      9371 MEMB     70       SAPC     H5X      HAL2     0.900000E-01   1.00800           0
      9372 MEMB     70       SAPC     H5Y      HAL2     0.900000E-01   1.00800           0
      9373 MEMB     70       SAPC     C36      CTL2    -0.180000       12.0110           0
      9374 MEMB     70       SAPC     H6X      HAL2     0.900000E-01   1.00800           0
      9375 MEMB     70       SAPC     H6Y      HAL2     0.900000E-01   1.00800           0
      9376 MEMB     70       SAPC     C37      CTL2    -0.180000       12.0110           0
      9377 MEMB     70       SAPC     H7X      HAL2     0.900000E-01   1.00800           0
      9378 MEMB     70       SAPC     H7Y      HAL2     0.900000E-01   1.00800           0
      9379 MEMB     70       SAPC     C38      CTL2    -0.180000       12.0110           0
      9380 MEMB     70       SAPC     H8X      HAL2     0.900000E-01   1.00800           0
      9381 MEMB     70       SAPC     H8Y      HAL2     0.900000E-01   1.00800           0
      9382 MEMB     70       SAPC     C39      CTL2    -0.180000       12.0110           0
      9383 MEMB     70       SAPC     H9X      HAL2     0.900000E-01   1.00800           0
      9384 MEMB     70       SAPC     H9Y      HAL2     0.900000E-01   1.00800           0
      9385 MEMB     70       SAPC     C310     CTL2    -0.180000       12.0110           0
      9386 MEMB     70       SAPC     H10X     HAL2     0.900000E-01   1.00800           0
      9387 MEMB     70       SAPC     H10Y     HAL2     0.900000E-01   1.00800           0
      9388 MEMB     70       SAPC     C311     CTL2    -0.180000       12.0110           0
      9389 MEMB     70       SAPC     H11X     HAL2     0.900000E-01   1.00800           0
      9390 MEMB     70       SAPC     H11Y     HAL2     0.900000E-01   1.00800           0
      9391 MEMB     70       SAPC     C312     CTL2    -0.180000       12.0110           0
      9392 MEMB     70       SAPC     H12X     HAL2     0.900000E-01   1.00800           0
      9393 MEMB     70       SAPC     H12Y     HAL2     0.900000E-01   1.00800           0
      9394 MEMB     70       SAPC     C313     CTL2    -0.180000       12.0110           0
      9395 MEMB     70       SAPC     H13X     HAL2     0.900000E-01   1.00800           0
      9396 MEMB     70       SAPC     H13Y     HAL2     0.900000E-01   1.00800           0
      9397 MEMB     70       SAPC     C314     CTL2    -0.180000       12.0110           0
      9398 MEMB     70       SAPC     H14X     HAL2     0.900000E-01   1.00800           0
      9399 MEMB     70       SAPC     H14Y     HAL2     0.900000E-01   1.00800           0
      9400 MEMB     70       SAPC     C315     CTL2    -0.180000       12.0110           0
      9401 MEMB     70       SAPC     H15X     HAL2     0.900000E-01   1.00800           0
      9402 MEMB     70       SAPC     H15Y     HAL2     0.900000E-01   1.00800           0
      9403 MEMB     70       SAPC     C316     CTL2    -0.180000       12.0110           0
      9404 MEMB     70       SAPC     H16X     HAL2     0.900000E-01   1.00800           0
      9405 MEMB     70       SAPC     H16Y     HAL2     0.900000E-01   1.00800           0
      9406 MEMB     70       SAPC     C317     CTL2    -0.180000       12.0110           0
      9407 MEMB     70       SAPC     H17X     HAL2     0.900000E-01   1.00800           0
      9408 MEMB     70       SAPC     H17Y     HAL2     0.900000E-01   1.00800           0
      9409 MEMB     70       SAPC     C318     CTL3    -0.270000       12.0110           0
      9410 MEMB     70       SAPC     H18X     HAL3     0.900000E-01   1.00800           0
      9411 MEMB     70       SAPC     H18Y     HAL3     0.900000E-01   1.00800           0
      9412 MEMB     70       SAPC     H18Z     HAL3     0.900000E-01   1.00800           0
      9413 MEMB     90       SAPC     N        NTL     -0.600000       14.0070           0
      9414 MEMB     90       SAPC     C12      CTL2    -0.100000       12.0110           0
      9415 MEMB     90       SAPC     H12A     HL       0.250000       1.00800           0
      9416 MEMB     90       SAPC     H12B     HL       0.250000       1.00800           0
      9417 MEMB     90       SAPC     C13      CTL5    -0.350000       12.0110           0
      9418 MEMB     90       SAPC     H13A     HL       0.250000       1.00800           0
      9419 MEMB     90       SAPC     H13B     HL       0.250000       1.00800           0
      9420 MEMB     90       SAPC     H13C     HL       0.250000       1.00800           0
      9421 MEMB     90       SAPC     C14      CTL5    -0.350000       12.0110           0
      9422 MEMB     90       SAPC     H14A     HL       0.250000       1.00800           0
      9423 MEMB     90       SAPC     H14B     HL       0.250000       1.00800           0
      9424 MEMB     90       SAPC     H14C     HL       0.250000       1.00800           0
      9425 MEMB     90       SAPC     C15      CTL5    -0.350000       12.0110           0
      9426 MEMB     90       SAPC     H15A     HL       0.250000       1.00800           0
      9427 MEMB     90       SAPC     H15B     HL       0.250000       1.00800           0
      9428 MEMB     90       SAPC     H15C     HL       0.250000       1.00800           0
      9429 MEMB     90       SAPC     C11      CTL2    -0.800000E-01   12.0110           0
      9430 MEMB     90       SAPC     H11A     HAL2     0.900000E-01   1.00800           0
      9431 MEMB     90       SAPC     H11B     HAL2     0.900000E-01   1.00800           0
      9432 MEMB     90       SAPC     P        PL       1.500000       30.9740           0
      9433 MEMB     90       SAPC     O13      O2L     -0.780000       15.9994           0
      9434 MEMB     90       SAPC     O14      O2L     -0.780000       15.9994           0
      9435 MEMB     90       SAPC     O12      OSLP    -0.570000       15.9994           0
      9436 MEMB     90       SAPC     O11      OSLP    -0.570000       15.9994           0
      9437 MEMB     90       SAPC     C1       CTL2    -0.800000E-01   12.0110           0
      9438 MEMB     90       SAPC     HA       HAL2     0.900000E-01   1.00800           0
      9439 MEMB     90       SAPC     HB       HAL2     0.900000E-01   1.00800           0
      9440 MEMB     90       SAPC     C2       CTL1     0.170000       12.0110           0
      9441 MEMB     90       SAPC     HS       HAL1     0.900000E-01   1.00800           0
      9442 MEMB     90       SAPC     O21      OSL     -0.490000       15.9994           0
      9443 MEMB     90       SAPC     C21      CL       0.900000       12.0110           0
      9444 MEMB     90       SAPC     O22      OBL     -0.630000       15.9994           0
      9445 MEMB     90       SAPC     C22      CTL2    -0.220000       12.0110           0
      9446 MEMB     90       SAPC     H2R      HAL2     0.900000E-01   1.00800           0
      9447 MEMB     90       SAPC     H2S      HAL2     0.900000E-01   1.00800           0
      9448 MEMB     90       SAPC     C3       CTL2     0.800000E-01   12.0110           0
      9449 MEMB     90       SAPC     HX       HAL2     0.900000E-01   1.00800           0
      9450 MEMB     90       SAPC     HY       HAL2     0.900000E-01   1.00800           0
      9451 MEMB     90       SAPC     O31      OSL     -0.490000       15.9994           0
      9452 MEMB     90       SAPC     C31      CL       0.900000       12.0110           0
      9453 MEMB     90       SAPC     O32      OBL     -0.630000       15.9994           0
      9454 MEMB     90       SAPC     C32      CTL2    -0.220000       12.0110           0
      9455 MEMB     90       SAPC     H2X      HAL2     0.900000E-01   1.00800           0
      9456 MEMB     90       SAPC     H2Y      HAL2     0.900000E-01   1.00800           0
      9457 MEMB     90       SAPC     C23      CTL2    -0.180000       12.0110           0
      9458 MEMB     90       SAPC     H3R      HAL2     0.900000E-01   1.00800           0
      9459 MEMB     90       SAPC     H3S      HAL2     0.900000E-01   1.00800           0
      9460 MEMB     90       SAPC     C24      CTL2    -0.180000       12.0110           0
      9461 MEMB     90       SAPC     H4R      HAL2     0.900000E-01   1.00800           0
      9462 MEMB     90       SAPC     H4S      HAL2     0.900000E-01   1.00800           0
      9463 MEMB     90       SAPC     C25      CEL1    -0.150000       12.0110           0
      9464 MEMB     90       SAPC     H5R      HEL1     0.150000       1.00800           0
      9465 MEMB     90       SAPC     C26      CEL1    -0.150000       12.0110           0
      9466 MEMB     90       SAPC     H6R      HEL1     0.150000       1.00800           0
      9467 MEMB     90       SAPC     C27      CTL2    -0.180000       12.0110           0
      9468 MEMB     90       SAPC     H7R      HAL2     0.900000E-01   1.00800           0
      9469 MEMB     90       SAPC     H7S      HAL2     0.900000E-01   1.00800           0
      9470 MEMB     90       SAPC     C28      CEL1    -0.150000       12.0110           0
      9471 MEMB     90       SAPC     H8R      HEL1     0.150000       1.00800           0
      9472 MEMB     90       SAPC     C29      CEL1    -0.150000       12.0110           0
      9473 MEMB     90       SAPC     H9R      HEL1     0.150000       1.00800           0
      9474 MEMB     90       SAPC     C210     CTL2    -0.180000       12.0110           0
      9475 MEMB     90       SAPC     H10R     HAL2     0.900000E-01   1.00800           0
      9476 MEMB     90       SAPC     H10S     HAL2     0.900000E-01   1.00800           0
      9477 MEMB     90       SAPC     C211     CEL1    -0.150000       12.0110           0
      9478 MEMB     90       SAPC     H11R     HEL1     0.150000       1.00800           0
      9479 MEMB     90       SAPC     C212     CEL1    -0.150000       12.0110           0
      9480 MEMB     90       SAPC     H12R     HEL1     0.150000       1.00800           0
      9481 MEMB     90       SAPC     C213     CTL2    -0.180000       12.0110           0
      9482 MEMB     90       SAPC     H13R     HAL2     0.900000E-01   1.00800           0
      9483 MEMB     90       SAPC     H13S     HAL2     0.900000E-01   1.00800           0
      9484 MEMB     90       SAPC     C214     CEL1    -0.150000       12.0110           0
      9485 MEMB     90       SAPC     H14R     HEL1     0.150000       1.00800           0
      9486 MEMB     90       SAPC     C215     CEL1    -0.150000       12.0110           0
      9487 MEMB     90       SAPC     H15R     HEL1     0.150000       1.00800           0
      9488 MEMB     90       SAPC     C216     CTL2    -0.180000       12.0110           0
      9489 MEMB     90       SAPC     H16R     HAL2     0.900000E-01   1.00800           0
      9490 MEMB     90       SAPC     H16S     HAL2     0.900000E-01   1.00800           0
      9491 MEMB     90       SAPC     C217     CTL2    -0.180000       12.0110           0
      9492 MEMB     90       SAPC     H17R     HAL2     0.900000E-01   1.00800           0
      9493 MEMB     90       SAPC     H17S     HAL2     0.900000E-01   1.00800           0
      9494 MEMB     90       SAPC     C218     CTL2    -0.270000       12.0110           0
      9495 MEMB     90       SAPC     H18R     HAL2     0.900000E-01   1.00800           0
      9496 MEMB     90       SAPC     H18S     HAL2     0.900000E-01   1.00800           0
      9497 MEMB     90       SAPC     C219     CTL2    -0.180000       12.0110           0
      9498 MEMB     90       SAPC     H19R     HAL2     0.900000E-01   1.00800           0
      9499 MEMB     90       SAPC     H19S     HAL2     0.900000E-01   1.00800           0
      9500 MEMB     90       SAPC     C220     CTL3    -0.180000       12.0110           0
      9501 MEMB     90       SAPC     H20R     HAL3     0.900000E-01   1.00800           0
      9502 MEMB     90       SAPC     H20S     HAL3     0.900000E-01   1.00800           0
      9503 MEMB     90       SAPC     H20T     HAL3     0.900000E-01   1.00800           0
      9504 MEMB     90       SAPC     C33      CTL2    -0.180000       12.0110           0
      9505 MEMB     90       SAPC     H3X      HAL2     0.900000E-01   1.00800           0
      9506 MEMB     90       SAPC     H3Y      HAL2     0.900000E-01   1.00800           0
      9507 MEMB     90       SAPC     C34      CTL2    -0.180000       12.0110           0
      9508 MEMB     90       SAPC     H4X      HAL2     0.900000E-01   1.00800           0
      9509 MEMB     90       SAPC     H4Y      HAL2     0.900000E-01   1.00800           0
      9510 MEMB     90       SAPC     C35      CTL2    -0.180000       12.0110           0
      9511 MEMB     90       SAPC     H5X      HAL2     0.900000E-01   1.00800           0
      9512 MEMB     90       SAPC     H5Y      HAL2     0.900000E-01   1.00800           0
      9513 MEMB     90       SAPC     C36      CTL2    -0.180000       12.0110           0
      9514 MEMB     90       SAPC     H6X      HAL2     0.900000E-01   1.00800           0
      9515 MEMB     90       SAPC     H6Y      HAL2     0.900000E-01   1.00800           0
      9516 MEMB     90       SAPC     C37      CTL2    -0.180000       12.0110           0
      9517 MEMB     90       SAPC     H7X      HAL2     0.900000E-01   1.00800           0
      9518 MEMB     90       SAPC     H7Y      HAL2     0.900000E-01   1.00800           0
      9519 MEMB     90       SAPC     C38      CTL2    -0.180000       12.0110           0
      9520 MEMB     90       SAPC     H8X      HAL2     0.900000E-01   1.00800           0
      9521 MEMB     90       SAPC     H8Y      HAL2     0.900000E-01   1.00800           0
      9522 MEMB     90       SAPC     C39      CTL2    -0.180000       12.0110           0
      9523 MEMB     90       SAPC     H9X      HAL2     0.900000E-01   1.00800           0
      9524 MEMB     90       SAPC     H9Y      HAL2     0.900000E-01   1.00800           0
      9525 MEMB     90       SAPC     C310     CTL2    -0.180000       12.0110           0
      9526 MEMB     90       SAPC     H10X     HAL2     0.900000E-01   1.00800           0
      9527 MEMB     90       SAPC     H10Y     HAL2     0.900000E-01   1.00800           0
      9528 MEMB     90       SAPC     C311     CTL2    -0.180000       12.0110           0
      9529 MEMB     90       SAPC     H11X     HAL2     0.900000E-01   1.00800           0
      9530 MEMB     90       SAPC     H11Y     HAL2     0.900000E-01   1.00800           0
      9531 MEMB     90       SAPC     C312     CTL2    -0.180000       12.0110           0
      9532 MEMB     90       SAPC     H12X     HAL2     0.900000E-01   1.00800           0
      9533 MEMB     90       SAPC     H12Y     HAL2     0.900000E-01   1.00800           0
      9534 MEMB     90       SAPC     C313     CTL2    -0.180000       12.0110           0
      9535 MEMB     90       SAPC     H13X     HAL2     0.900000E-01   1.00800           0
      9536 MEMB     90       SAPC     H13Y     HAL2     0.900000E-01   1.00800           0
      9537 MEMB     90       SAPC     C314     CTL2    -0.180000       12.0110           0
      9538 MEMB     90       SAPC     H14X     HAL2     0.900000E-01   1.00800           0
      9539 MEMB     90       SAPC     H14Y     HAL2     0.900000E-01   1.00800           0
      9540 MEMB     90       SAPC     C315     CTL2    -0.180000       12.0110           0
      9541 MEMB     90       SAPC     H15X     HAL2     0.900000E-01   1.00800           0
      9542 MEMB     90       SAPC     H15Y     HAL2     0.900000E-01   1.00800           0
      9543 MEMB     90       SAPC     C316     CTL2    -0.180000       12.0110           0
      9544 MEMB     90       SAPC     H16X     HAL2     0.900000E-01   1.00800           0
      9545 MEMB     90       SAPC     H16Y     HAL2     0.900000E-01   1.00800           0
      9546 MEMB     90       SAPC     C317     CTL2    -0.180000       12.0110           0
      9547 MEMB     90       SAPC     H17X     HAL2     0.900000E-01   1.00800           0
      9548 MEMB     90       SAPC     H17Y     HAL2     0.900000E-01   1.00800           0
      9549 MEMB     90       SAPC     C318     CTL3    -0.270000       12.0110           0
      9550 MEMB     90       SAPC     H18X     HAL3     0.900000E-01   1.00800           0
      9551 MEMB     90       SAPC     H18Y     HAL3     0.900000E-01   1.00800           0
      9552 MEMB     90       SAPC     H18Z     HAL3     0.900000E-01   1.00800           0
      9553 MEMB     22       POPC     N        NTL     -0.600000       14.0070           0
      9554 MEMB     22       POPC     C12      CTL2    -0.100000       12.0110           0
      9555 MEMB     22       POPC     H12A     HL       0.250000       1.00800           0
      9556 MEMB     22       POPC     H12B     HL       0.250000       1.00800           0
      9557 MEMB     22       POPC     C13      CTL5    -0.350000       12.0110           0
      9558 MEMB     22       POPC     H13A     HL       0.250000       1.00800           0
      9559 MEMB     22       POPC     H13B     HL       0.250000       1.00800           0
      9560 MEMB     22       POPC     H13C     HL       0.250000       1.00800           0
      9561 MEMB     22       POPC     C14      CTL5    -0.350000       12.0110           0
      9562 MEMB     22       POPC     H14A     HL       0.250000       1.00800           0
      9563 MEMB     22       POPC     H14B     HL       0.250000       1.00800           0
      9564 MEMB     22       POPC     H14C     HL       0.250000       1.00800           0
      9565 MEMB     22       POPC     C15      CTL5    -0.350000       12.0110           0
      9566 MEMB     22       POPC     H15A     HL       0.250000       1.00800           0
      9567 MEMB     22       POPC     H15B     HL       0.250000       1.00800           0
      9568 MEMB     22       POPC     H15C     HL       0.250000       1.00800           0
      9569 MEMB     22       POPC     C11      CTL2    -0.800000E-01   12.0110           0
      9570 MEMB     22       POPC     H11A     HAL2     0.900000E-01   1.00800           0
      9571 MEMB     22       POPC     H11B     HAL2     0.900000E-01   1.00800           0
      9572 MEMB     22       POPC     P        PL       1.500000       30.9740           0
      9573 MEMB     22       POPC     O13      O2L     -0.780000       15.9994           0
      9574 MEMB     22       POPC     O14      O2L     -0.780000       15.9994           0
      9575 MEMB     22       POPC     O12      OSLP    -0.570000       15.9994           0
      9576 MEMB     22       POPC     O11      OSLP    -0.570000       15.9994           0
      9577 MEMB     22       POPC     C1       CTL2    -0.800000E-01   12.0110           0
      9578 MEMB     22       POPC     HA       HAL2     0.900000E-01   1.00800           0
      9579 MEMB     22       POPC     HB       HAL2     0.900000E-01   1.00800           0
      9580 MEMB     22       POPC     C2       CTL1     0.170000       12.0110           0
      9581 MEMB     22       POPC     HS       HAL1     0.900000E-01   1.00800           0
      9582 MEMB     22       POPC     O21      OSL     -0.490000       15.9994           0
      9583 MEMB     22       POPC     C21      CL       0.900000       12.0110           0
      9584 MEMB     22       POPC     O22      OBL     -0.630000       15.9994           0
      9585 MEMB     22       POPC     C22      CTL2    -0.220000       12.0110           0
      9586 MEMB     22       POPC     H2R      HAL2     0.900000E-01   1.00800           0
      9587 MEMB     22       POPC     H2S      HAL2     0.900000E-01   1.00800           0
      9588 MEMB     22       POPC     C3       CTL2     0.800000E-01   12.0110           0
      9589 MEMB     22       POPC     HX       HAL2     0.900000E-01   1.00800           0
      9590 MEMB     22       POPC     HY       HAL2     0.900000E-01   1.00800           0
      9591 MEMB     22       POPC     O31      OSL     -0.490000       15.9994           0
      9592 MEMB     22       POPC     C31      CL       0.900000       12.0110           0
      9593 MEMB     22       POPC     O32      OBL     -0.630000       15.9994           0
      9594 MEMB     22       POPC     C32      CTL2    -0.220000       12.0110           0
      9595 MEMB     22       POPC     H2X      HAL2     0.900000E-01   1.00800           0
      9596 MEMB     22       POPC     H2Y      HAL2     0.900000E-01   1.00800           0
      9597 MEMB     22       POPC     C23      CTL2    -0.180000       12.0110           0
      9598 MEMB     22       POPC     H3R      HAL2     0.900000E-01   1.00800           0
      9599 MEMB     22       POPC     H3S      HAL2     0.900000E-01   1.00800           0
      9600 MEMB     22       POPC     C24      CTL2    -0.180000       12.0110           0
      9601 MEMB     22       POPC     H4R      HAL2     0.900000E-01   1.00800           0
      9602 MEMB     22       POPC     H4S      HAL2     0.900000E-01   1.00800           0
      9603 MEMB     22       POPC     C25      CTL2    -0.180000       12.0110           0
      9604 MEMB     22       POPC     H5R      HAL2     0.900000E-01   1.00800           0
      9605 MEMB     22       POPC     H5S      HAL2     0.900000E-01   1.00800           0
      9606 MEMB     22       POPC     C26      CTL2    -0.180000       12.0110           0
      9607 MEMB     22       POPC     H6R      HAL2     0.900000E-01   1.00800           0
      9608 MEMB     22       POPC     H6S      HAL2     0.900000E-01   1.00800           0
      9609 MEMB     22       POPC     C27      CTL2    -0.180000       12.0110           0
      9610 MEMB     22       POPC     H7R      HAL2     0.900000E-01   1.00800           0
      9611 MEMB     22       POPC     H7S      HAL2     0.900000E-01   1.00800           0
      9612 MEMB     22       POPC     C28      CTL2    -0.180000       12.0110           0
      9613 MEMB     22       POPC     H8R      HAL2     0.900000E-01   1.00800           0
      9614 MEMB     22       POPC     H8S      HAL2     0.900000E-01   1.00800           0
      9615 MEMB     22       POPC     C29      CEL1    -0.150000       12.0110           0
      9616 MEMB     22       POPC     H91      HEL1     0.150000       1.00800           0
      9617 MEMB     22       POPC     C210     CEL1    -0.150000       12.0110           0
      9618 MEMB     22       POPC     H101     HEL1     0.150000       1.00800           0
      9619 MEMB     22       POPC     C211     CTL2    -0.180000       12.0110           0
      9620 MEMB     22       POPC     H11R     HAL2     0.900000E-01   1.00800           0
      9621 MEMB     22       POPC     H11S     HAL2     0.900000E-01   1.00800           0
      9622 MEMB     22       POPC     C212     CTL2    -0.180000       12.0110           0
      9623 MEMB     22       POPC     H12R     HAL2     0.900000E-01   1.00800           0
      9624 MEMB     22       POPC     H12S     HAL2     0.900000E-01   1.00800           0
      9625 MEMB     22       POPC     C213     CTL2    -0.180000       12.0110           0
      9626 MEMB     22       POPC     H13R     HAL2     0.900000E-01   1.00800           0
      9627 MEMB     22       POPC     H13S     HAL2     0.900000E-01   1.00800           0
      9628 MEMB     22       POPC     C214     CTL2    -0.180000       12.0110           0
      9629 MEMB     22       POPC     H14R     HAL2     0.900000E-01   1.00800           0
      9630 MEMB     22       POPC     H14S     HAL2     0.900000E-01   1.00800           0
      9631 MEMB     22       POPC     C215     CTL2    -0.180000       12.0110           0
      9632 MEMB     22       POPC     H15R     HAL2     0.900000E-01   1.00800           0
      9633 MEMB     22       POPC     H15S     HAL2     0.900000E-01   1.00800           0
      9634 MEMB     22       POPC     C216     CTL2    -0.180000       12.0110           0
      9635 MEMB     22       POPC     H16R     HAL2     0.900000E-01   1.00800           0
      9636 MEMB     22       POPC     H16S     HAL2     0.900000E-01   1.00800           0
      9637 MEMB     22       POPC     C217     CTL2    -0.180000       12.0110           0
      9638 MEMB     22       POPC     H17R     HAL2     0.900000E-01   1.00800           0
      9639 MEMB     22       POPC     H17S     HAL2     0.900000E-01   1.00800           0
      9640 MEMB     22       POPC     C218     CTL3    -0.270000       12.0110           0
      9641 MEMB     22       POPC     H18R     HAL3     0.900000E-01   1.00800           0
      9642 MEMB     22       POPC     H18S     HAL3     0.900000E-01   1.00800           0
      9643 MEMB     22       POPC     H18T     HAL3     0.900000E-01   1.00800           0
      9644 MEMB     22       POPC     C33      CTL2    -0.180000       12.0110           0
      9645 MEMB     22       POPC     H3X      HAL2     0.900000E-01   1.00800           0
      9646 MEMB     22       POPC     H3Y      HAL2     0.900000E-01   1.00800           0
      9647 MEMB     22       POPC     C34      CTL2    -0.180000       12.0110           0
      9648 MEMB     22       POPC     H4X      HAL2     0.900000E-01   1.00800           0
      9649 MEMB     22       POPC     H4Y      HAL2     0.900000E-01   1.00800           0
      9650 MEMB     22       POPC     C35      CTL2    -0.180000       12.0110           0
      9651 MEMB     22       POPC     H5X      HAL2     0.900000E-01   1.00800           0
      9652 MEMB     22       POPC     H5Y      HAL2     0.900000E-01   1.00800           0
      9653 MEMB     22       POPC     C36      CTL2    -0.180000       12.0110           0
      9654 MEMB     22       POPC     H6X      HAL2     0.900000E-01   1.00800           0
      9655 MEMB     22       POPC     H6Y      HAL2     0.900000E-01   1.00800           0
      9656 MEMB     22       POPC     C37      CTL2    -0.180000       12.0110           0
      9657 MEMB     22       POPC     H7X      HAL2     0.900000E-01   1.00800           0
      9658 MEMB     22       POPC     H7Y      HAL2     0.900000E-01   1.00800           0
      9659 MEMB     22       POPC     C38      CTL2    -0.180000       12.0110           0
      9660 MEMB     22       POPC     H8X      HAL2     0.900000E-01   1.00800           0
      9661 MEMB     22       POPC     H8Y      HAL2     0.900000E-01   1.00800           0
      9662 MEMB     22       POPC     C39      CTL2    -0.180000       12.0110           0
      9663 MEMB     22       POPC     H9X      HAL2     0.900000E-01   1.00800           0
      9664 MEMB     22       POPC     H9Y      HAL2     0.900000E-01   1.00800           0
      9665 MEMB     22       POPC     C310     CTL2    -0.180000       12.0110           0
      9666 MEMB     22       POPC     H10X     HAL2     0.900000E-01   1.00800           0
      9667 MEMB     22       POPC     H10Y     HAL2     0.900000E-01   1.00800           0
      9668 MEMB     22       POPC     C311     CTL2    -0.180000       12.0110           0
      9669 MEMB     22       POPC     H11X     HAL2     0.900000E-01   1.00800           0
      9670 MEMB     22       POPC     H11Y     HAL2     0.900000E-01   1.00800           0
      9671 MEMB     22       POPC     C312     CTL2    -0.180000       12.0110           0
      9672 MEMB     22       POPC     H12X     HAL2     0.900000E-01   1.00800           0
      9673 MEMB     22       POPC     H12Y     HAL2     0.900000E-01   1.00800           0
      9674 MEMB     22       POPC     C313     CTL2    -0.180000       12.0110           0
      9675 MEMB     22       POPC     H13X     HAL2     0.900000E-01   1.00800           0
      9676 MEMB     22       POPC     H13Y     HAL2     0.900000E-01   1.00800           0
      9677 MEMB     22       POPC     C314     CTL2    -0.180000       12.0110           0
      9678 MEMB     22       POPC     H14X     HAL2     0.900000E-01   1.00800           0
      9679 MEMB     22       POPC     H14Y     HAL2     0.900000E-01   1.00800           0
      9680 MEMB     22       POPC     C315     CTL2    -0.180000       12.0110           0
      9681 MEMB     22       POPC     H15X     HAL2     0.900000E-01   1.00800           0
      9682 MEMB     22       POPC     H15Y     HAL2     0.900000E-01   1.00800           0
      9683 MEMB     22       POPC     C316     CTL3    -0.270000       12.0110           0
      9684 MEMB     22       POPC     H16X     HAL3     0.900000E-01   1.00800           0
      9685 MEMB     22       POPC     H16Y     HAL3     0.900000E-01   1.00800           0
      9686 MEMB     22       POPC     H16Z     HAL3     0.900000E-01   1.00800           0
      9687 MEMB     36       POPC     N        NTL     -0.600000       14.0070           0
      9688 MEMB     36       POPC     C12      CTL2    -0.100000       12.0110           0
      9689 MEMB     36       POPC     H12A     HL       0.250000       1.00800           0
      9690 MEMB     36       POPC     H12B     HL       0.250000       1.00800           0
      9691 MEMB     36       POPC     C13      CTL5    -0.350000       12.0110           0
      9692 MEMB     36       POPC     H13A     HL       0.250000       1.00800           0
      9693 MEMB     36       POPC     H13B     HL       0.250000       1.00800           0
      9694 MEMB     36       POPC     H13C     HL       0.250000       1.00800           0
      9695 MEMB     36       POPC     C14      CTL5    -0.350000       12.0110           0
      9696 MEMB     36       POPC     H14A     HL       0.250000       1.00800           0
      9697 MEMB     36       POPC     H14B     HL       0.250000       1.00800           0
      9698 MEMB     36       POPC     H14C     HL       0.250000       1.00800           0
      9699 MEMB     36       POPC     C15      CTL5    -0.350000       12.0110           0
      9700 MEMB     36       POPC     H15A     HL       0.250000       1.00800           0
      9701 MEMB     36       POPC     H15B     HL       0.250000       1.00800           0
      9702 MEMB     36       POPC     H15C     HL       0.250000       1.00800           0
      9703 MEMB     36       POPC     C11      CTL2    -0.800000E-01   12.0110           0
      9704 MEMB     36       POPC     H11A     HAL2     0.900000E-01   1.00800           0
      9705 MEMB     36       POPC     H11B     HAL2     0.900000E-01   1.00800           0
      9706 MEMB     36       POPC     P        PL       1.500000       30.9740           0
      9707 MEMB     36       POPC     O13      O2L     -0.780000       15.9994           0
      9708 MEMB     36       POPC     O14      O2L     -0.780000       15.9994           0
      9709 MEMB     36       POPC     O12      OSLP    -0.570000       15.9994           0
      9710 MEMB     36       POPC     O11      OSLP    -0.570000       15.9994           0
      9711 MEMB     36       POPC     C1       CTL2    -0.800000E-01   12.0110           0
      9712 MEMB     36       POPC     HA       HAL2     0.900000E-01   1.00800           0
      9713 MEMB     36       POPC     HB       HAL2     0.900000E-01   1.00800           0
      9714 MEMB     36       POPC     C2       CTL1     0.170000       12.0110           0
      9715 MEMB     36       POPC     HS       HAL1     0.900000E-01   1.00800           0
      9716 MEMB     36       POPC     O21      OSL     -0.490000       15.9994           0
      9717 MEMB     36       POPC     C21      CL       0.900000       12.0110           0
      9718 MEMB     36       POPC     O22      OBL     -0.630000       15.9994           0
      9719 MEMB     36       POPC     C22      CTL2    -0.220000       12.0110           0
      9720 MEMB     36       POPC     H2R      HAL2     0.900000E-01   1.00800           0
      9721 MEMB     36       POPC     H2S      HAL2     0.900000E-01   1.00800           0
      9722 MEMB     36       POPC     C3       CTL2     0.800000E-01   12.0110           0
      9723 MEMB     36       POPC     HX       HAL2     0.900000E-01   1.00800           0
      9724 MEMB     36       POPC     HY       HAL2     0.900000E-01   1.00800           0
      9725 MEMB     36       POPC     O31      OSL     -0.490000       15.9994           0
      9726 MEMB     36       POPC     C31      CL       0.900000       12.0110           0
      9727 MEMB     36       POPC     O32      OBL     -0.630000       15.9994           0
      9728 MEMB     36       POPC     C32      CTL2    -0.220000       12.0110           0
      9729 MEMB     36       POPC     H2X      HAL2     0.900000E-01   1.00800           0
      9730 MEMB     36       POPC     H2Y      HAL2     0.900000E-01   1.00800           0
      9731 MEMB     36       POPC     C23      CTL2    -0.180000       12.0110           0
      9732 MEMB     36       POPC     H3R      HAL2     0.900000E-01   1.00800           0
      9733 MEMB     36       POPC     H3S      HAL2     0.900000E-01   1.00800           0
      9734 MEMB     36       POPC     C24      CTL2    -0.180000       12.0110           0
      9735 MEMB     36       POPC     H4R      HAL2     0.900000E-01   1.00800           0
      9736 MEMB     36       POPC     H4S      HAL2     0.900000E-01   1.00800           0
      9737 MEMB     36       POPC     C25      CTL2    -0.180000       12.0110           0
      9738 MEMB     36       POPC     H5R      HAL2     0.900000E-01   1.00800           0
      9739 MEMB     36       POPC     H5S      HAL2     0.900000E-01   1.00800           0
      9740 MEMB     36       POPC     C26      CTL2    -0.180000       12.0110           0
      9741 MEMB     36       POPC     H6R      HAL2     0.900000E-01   1.00800           0
      9742 MEMB     36       POPC     H6S      HAL2     0.900000E-01   1.00800           0
      9743 MEMB     36       POPC     C27      CTL2    -0.180000       12.0110           0
      9744 MEMB     36       POPC     H7R      HAL2     0.900000E-01   1.00800           0
      9745 MEMB     36       POPC     H7S      HAL2     0.900000E-01   1.00800           0
      9746 MEMB     36       POPC     C28      CTL2    -0.180000       12.0110           0
      9747 MEMB     36       POPC     H8R      HAL2     0.900000E-01   1.00800           0
      9748 MEMB     36       POPC     H8S      HAL2     0.900000E-01   1.00800           0
      9749 MEMB     36       POPC     C29      CEL1    -0.150000       12.0110           0
      9750 MEMB     36       POPC     H91      HEL1     0.150000       1.00800           0
      9751 MEMB     36       POPC     C210     CEL1    -0.150000       12.0110           0
      9752 MEMB     36       POPC     H101     HEL1     0.150000       1.00800           0
      9753 MEMB     36       POPC     C211     CTL2    -0.180000       12.0110           0
      9754 MEMB     36       POPC     H11R     HAL2     0.900000E-01   1.00800           0
      9755 MEMB     36       POPC     H11S     HAL2     0.900000E-01   1.00800           0
      9756 MEMB     36       POPC     C212     CTL2    -0.180000       12.0110           0
      9757 MEMB     36       POPC     H12R     HAL2     0.900000E-01   1.00800           0
      9758 MEMB     36       POPC     H12S     HAL2     0.900000E-01   1.00800           0
      9759 MEMB     36       POPC     C213     CTL2    -0.180000       12.0110           0
      9760 MEMB     36       POPC     H13R     HAL2     0.900000E-01   1.00800           0
      9761 MEMB     36       POPC     H13S     HAL2     0.900000E-01   1.00800           0
      9762 MEMB     36       POPC     C214     CTL2    -0.180000       12.0110           0
      9763 MEMB     36       POPC     H14R     HAL2     0.900000E-01   1.00800           0
      9764 MEMB     36       POPC     H14S     HAL2     0.900000E-01   1.00800           0
      9765 MEMB     36       POPC     C215     CTL2    -0.180000       12.0110           0
      9766 MEMB     36       POPC     H15R     HAL2     0.900000E-01   1.00800           0
      9767 MEMB     36       POPC     H15S     HAL2     0.900000E-01   1.00800           0
      9768 MEMB     36       POPC     C216     CTL2    -0.180000       12.0110           0
      9769 MEMB     36       POPC     H16R     HAL2     0.900000E-01   1.00800           0
      9770 MEMB     36       POPC     H16S     HAL2     0.900000E-01   1.00800           0
      9771 MEMB     36       POPC     C217     CTL2    -0.180000       12.0110           0
      9772 MEMB     36       POPC     H17R     HAL2     0.900000E-01   1.00800           0
      9773 MEMB     36       POPC     H17S     HAL2     0.900000E-01   1.00800           0
      9774 MEMB     36       POPC     C218     CTL3    -0.270000       12.0110           0
      9775 MEMB     36       POPC     H18R     HAL3     0.900000E-01   1.00800           0
      9776 MEMB     36       POPC     H18S     HAL3     0.900000E-01   1.00800           0
      9777 MEMB     36       POPC     H18T     HAL3     0.900000E-01   1.00800           0
      9778 MEMB     36       POPC     C33      CTL2    -0.180000       12.0110           0
      9779 MEMB     36       POPC     H3X      HAL2     0.900000E-01   1.00800           0
      9780 MEMB     36       POPC     H3Y      HAL2     0.900000E-01   1.00800           0
      9781 MEMB     36       POPC     C34      CTL2    -0.180000       12.0110           0
      9782 MEMB     36       POPC     H4X      HAL2     0.900000E-01   1.00800           0
      9783 MEMB     36       POPC     H4Y      HAL2     0.900000E-01   1.00800           0
      9784 MEMB     36       POPC     C35      CTL2    -0.180000       12.0110           0
      9785 MEMB     36       POPC     H5X      HAL2     0.900000E-01   1.00800           0
      9786 MEMB     36       POPC     H5Y      HAL2     0.900000E-01   1.00800           0
      9787 MEMB     36       POPC     C36      CTL2    -0.180000       12.0110           0
      9788 MEMB     36       POPC     H6X      HAL2     0.900000E-01   1.00800           0
      9789 MEMB     36       POPC     H6Y      HAL2     0.900000E-01   1.00800           0
      9790 MEMB     36       POPC     C37      CTL2    -0.180000       12.0110           0
      9791 MEMB     36       POPC     H7X      HAL2     0.900000E-01   1.00800           0
      9792 MEMB     36       POPC     H7Y      HAL2     0.900000E-01   1.00800           0
      9793 MEMB     36       POPC     C38      CTL2    -0.180000       12.0110           0
      9794 MEMB     36       POPC     H8X      HAL2     0.900000E-01   1.00800           0
      9795 MEMB     36       POPC     H8Y      HAL2     0.900000E-01   1.00800           0
      9796 MEMB     36       POPC     C39      CTL2    -0.180000       12.0110           0
      9797 MEMB     36       POPC     H9X      HAL2     0.900000E-01   1.00800           0
      9798 MEMB     36       POPC     H9Y      HAL2     0.900000E-01   1.00800           0
      9799 MEMB     36       POPC     C310     CTL2    -0.180000       12.0110           0
      9800 MEMB     36       POPC     H10X     HAL2     0.900000E-01   1.00800           0
      9801 MEMB     36       POPC     H10Y     HAL2     0.900000E-01   1.00800           0
      9802 MEMB     36       POPC     C311     CTL2    -0.180000       12.0110           0
      9803 MEMB     36       POPC     H11X     HAL2     0.900000E-01   1.00800           0
      9804 MEMB     36       POPC     H11Y     HAL2     0.900000E-01   1.00800           0
      9805 MEMB     36       POPC     C312     CTL2    -0.180000       12.0110           0
      9806 MEMB     36       POPC     H12X     HAL2     0.900000E-01   1.00800           0
      9807 MEMB     36       POPC     H12Y     HAL2     0.900000E-01   1.00800           0
      9808 MEMB     36       POPC     C313     CTL2    -0.180000       12.0110           0
      9809 MEMB     36       POPC     H13X     HAL2     0.900000E-01   1.00800           0
      9810 MEMB     36       POPC     H13Y     HAL2     0.900000E-01   1.00800           0
      9811 MEMB     36       POPC     C314     CTL2    -0.180000       12.0110           0
      9812 MEMB     36       POPC     H14X     HAL2     0.900000E-01   1.00800           0
      9813 MEMB     36       POPC     H14Y     HAL2     0.900000E-01   1.00800           0
      9814 MEMB     36       POPC     C315     CTL2    -0.180000       12.0110           0
      9815 MEMB     36       POPC     H15X     HAL2     0.900000E-01   1.00800           0
      9816 MEMB     36       POPC     H15Y     HAL2     0.900000E-01   1.00800           0
      9817 MEMB     36       POPC     C316     CTL3    -0.270000       12.0110           0
      9818 MEMB     36       POPC     H16X     HAL3     0.900000E-01   1.00800           0
      9819 MEMB     36       POPC     H16Y     HAL3     0.900000E-01   1.00800           0
      9820 MEMB     36       POPC     H16Z     HAL3     0.900000E-01   1.00800           0
      9821 MEMB     76       POPC     N        NTL     -0.600000       14.0070           0
      9822 MEMB     76       POPC     C12      CTL2    -0.100000       12.0110           0
      9823 MEMB     76       POPC     H12A     HL       0.250000       1.00800           0
      9824 MEMB     76       POPC     H12B     HL       0.250000       1.00800           0
      9825 MEMB     76       POPC     C13      CTL5    -0.350000       12.0110           0
      9826 MEMB     76       POPC     H13A     HL       0.250000       1.00800           0
      9827 MEMB     76       POPC     H13B     HL       0.250000       1.00800           0
      9828 MEMB     76       POPC     H13C     HL       0.250000       1.00800           0
      9829 MEMB     76       POPC     C14      CTL5    -0.350000       12.0110           0
      9830 MEMB     76       POPC     H14A     HL       0.250000       1.00800           0
      9831 MEMB     76       POPC     H14B     HL       0.250000       1.00800           0
      9832 MEMB     76       POPC     H14C     HL       0.250000       1.00800           0
      9833 MEMB     76       POPC     C15      CTL5    -0.350000       12.0110           0
      9834 MEMB     76       POPC     H15A     HL       0.250000       1.00800           0
      9835 MEMB     76       POPC     H15B     HL       0.250000       1.00800           0
      9836 MEMB     76       POPC     H15C     HL       0.250000       1.00800           0
      9837 MEMB     76       POPC     C11      CTL2    -0.800000E-01   12.0110           0
      9838 MEMB     76       POPC     H11A     HAL2     0.900000E-01   1.00800           0
      9839 MEMB     76       POPC     H11B     HAL2     0.900000E-01   1.00800           0
      9840 MEMB     76       POPC     P        PL       1.500000       30.9740           0
      9841 MEMB     76       POPC     O13      O2L     -0.780000       15.9994           0
      9842 MEMB     76       POPC     O14      O2L     -0.780000       15.9994           0
      9843 MEMB     76       POPC     O12      OSLP    -0.570000       15.9994           0
      9844 MEMB     76       POPC     O11      OSLP    -0.570000       15.9994           0
      9845 MEMB     76       POPC     C1       CTL2    -0.800000E-01   12.0110           0
      9846 MEMB     76       POPC     HA       HAL2     0.900000E-01   1.00800           0
      9847 MEMB     76       POPC     HB       HAL2     0.900000E-01   1.00800           0
      9848 MEMB     76       POPC     C2       CTL1     0.170000       12.0110           0
      9849 MEMB     76       POPC     HS       HAL1     0.900000E-01   1.00800           0
      9850 MEMB     76       POPC     O21      OSL     -0.490000       15.9994           0
      9851 MEMB     76       POPC     C21      CL       0.900000       12.0110           0
      9852 MEMB     76       POPC     O22      OBL     -0.630000       15.9994           0
      9853 MEMB     76       POPC     C22      CTL2    -0.220000       12.0110           0
      9854 MEMB     76       POPC     H2R      HAL2     0.900000E-01   1.00800           0
      9855 MEMB     76       POPC     H2S      HAL2     0.900000E-01   1.00800           0
      9856 MEMB     76       POPC     C3       CTL2     0.800000E-01   12.0110           0
      9857 MEMB     76       POPC     HX       HAL2     0.900000E-01   1.00800           0
      9858 MEMB     76       POPC     HY       HAL2     0.900000E-01   1.00800           0
      9859 MEMB     76       POPC     O31      OSL     -0.490000       15.9994           0
      9860 MEMB     76       POPC     C31      CL       0.900000       12.0110           0
      9861 MEMB     76       POPC     O32      OBL     -0.630000       15.9994           0
      9862 MEMB     76       POPC     C32      CTL2    -0.220000       12.0110           0
      9863 MEMB     76       POPC     H2X      HAL2     0.900000E-01   1.00800           0
      9864 MEMB     76       POPC     H2Y      HAL2     0.900000E-01   1.00800           0
      9865 MEMB     76       POPC     C23      CTL2    -0.180000       12.0110           0
      9866 MEMB     76       POPC     H3R      HAL2     0.900000E-01   1.00800           0
      9867 MEMB     76       POPC     H3S      HAL2     0.900000E-01   1.00800           0
      9868 MEMB     76       POPC     C24      CTL2    -0.180000       12.0110           0
      9869 MEMB     76       POPC     H4R      HAL2     0.900000E-01   1.00800           0
      9870 MEMB     76       POPC     H4S      HAL2     0.900000E-01   1.00800           0
      9871 MEMB     76       POPC     C25      CTL2    -0.180000       12.0110           0
      9872 MEMB     76       POPC     H5R      HAL2     0.900000E-01   1.00800           0
      9873 MEMB     76       POPC     H5S      HAL2     0.900000E-01   1.00800           0
      9874 MEMB     76       POPC     C26      CTL2    -0.180000       12.0110           0
      9875 MEMB     76       POPC     H6R      HAL2     0.900000E-01   1.00800           0
      9876 MEMB     76       POPC     H6S      HAL2     0.900000E-01   1.00800           0
      9877 MEMB     76       POPC     C27      CTL2    -0.180000       12.0110           0
      9878 MEMB     76       POPC     H7R      HAL2     0.900000E-01   1.00800           0
      9879 MEMB     76       POPC     H7S      HAL2     0.900000E-01   1.00800           0
      9880 MEMB     76       POPC     C28      CTL2    -0.180000       12.0110           0
      9881 MEMB     76       POPC     H8R      HAL2     0.900000E-01   1.00800           0
      9882 MEMB     76       POPC     H8S      HAL2     0.900000E-01   1.00800           0
      9883 MEMB     76       POPC     C29      CEL1    -0.150000       12.0110           0
      9884 MEMB     76       POPC     H91      HEL1     0.150000       1.00800           0
      9885 MEMB     76       POPC     C210     CEL1    -0.150000       12.0110           0
      9886 MEMB     76       POPC     H101     HEL1     0.150000       1.00800           0
      9887 MEMB     76       POPC     C211     CTL2    -0.180000       12.0110           0
      9888 MEMB     76       POPC     H11R     HAL2     0.900000E-01   1.00800           0
      9889 MEMB     76       POPC     H11S     HAL2     0.900000E-01   1.00800           0
      9890 MEMB     76       POPC     C212     CTL2    -0.180000       12.0110           0
      9891 MEMB     76       POPC     H12R     HAL2     0.900000E-01   1.00800           0
      9892 MEMB     76       POPC     H12S     HAL2     0.900000E-01   1.00800           0
      9893 MEMB     76       POPC     C213     CTL2    -0.180000       12.0110           0
      9894 MEMB     76       POPC     H13R     HAL2     0.900000E-01   1.00800           0
      9895 MEMB     76       POPC     H13S     HAL2     0.900000E-01   1.00800           0
      9896 MEMB     76       POPC     C214     CTL2    -0.180000       12.0110           0
      9897 MEMB     76       POPC     H14R     HAL2     0.900000E-01   1.00800           0
      9898 MEMB     76       POPC     H14S     HAL2     0.900000E-01   1.00800           0
      9899 MEMB     76       POPC     C215     CTL2    -0.180000       12.0110           0
      9900 MEMB     76       POPC     H15R     HAL2     0.900000E-01   1.00800           0
      9901 MEMB     76       POPC     H15S     HAL2     0.900000E-01   1.00800           0
      9902 MEMB     76       POPC     C216     CTL2    -0.180000       12.0110           0
      9903 MEMB     76       POPC     H16R     HAL2     0.900000E-01   1.00800           0
      9904 MEMB     76       POPC     H16S     HAL2     0.900000E-01   1.00800           0
      9905 MEMB     76       POPC     C217     CTL2    -0.180000       12.0110           0
      9906 MEMB     76       POPC     H17R     HAL2     0.900000E-01   1.00800           0
      9907 MEMB     76       POPC     H17S     HAL2     0.900000E-01   1.00800           0
      9908 MEMB     76       POPC     C218     CTL3    -0.270000       12.0110           0
      9909 MEMB     76       POPC     H18R     HAL3     0.900000E-01   1.00800           0
      9910 MEMB     76       POPC     H18S     HAL3     0.900000E-01   1.00800           0
      9911 MEMB     76       POPC     H18T     HAL3     0.900000E-01   1.00800           0
      9912 MEMB     76       POPC     C33      CTL2    -0.180000       12.0110           0
      9913 MEMB     76       POPC     H3X      HAL2     0.900000E-01   1.00800           0
      9914 MEMB     76       POPC     H3Y      HAL2     0.900000E-01   1.00800           0
      9915 MEMB     76       POPC     C34      CTL2    -0.180000       12.0110           0
      9916 MEMB     76       POPC     H4X      HAL2     0.900000E-01   1.00800           0
      9917 MEMB     76       POPC     H4Y      HAL2     0.900000E-01   1.00800           0
      9918 MEMB     76       POPC     C35      CTL2    -0.180000       12.0110           0
      9919 MEMB     76       POPC     H5X      HAL2     0.900000E-01   1.00800           0
      9920 MEMB     76       POPC     H5Y      HAL2     0.900000E-01   1.00800           0
      9921 MEMB     76       POPC     C36      CTL2    -0.180000       12.0110           0
      9922 MEMB     76       POPC     H6X      HAL2     0.900000E-01   1.00800           0
      9923 MEMB     76       POPC     H6Y      HAL2     0.900000E-01   1.00800           0
      9924 MEMB     76       POPC     C37      CTL2    -0.180000       12.0110           0
      9925 MEMB     76       POPC     H7X      HAL2     0.900000E-01   1.00800           0
      9926 MEMB     76       POPC     H7Y      HAL2     0.900000E-01   1.00800           0
      9927 MEMB     76       POPC     C38      CTL2    -0.180000       12.0110           0
      9928 MEMB     76       POPC     H8X      HAL2     0.900000E-01   1.00800           0
      9929 MEMB     76       POPC     H8Y      HAL2     0.900000E-01   1.00800           0
      9930 MEMB     76       POPC     C39      CTL2    -0.180000       12.0110           0
      9931 MEMB     76       POPC     H9X      HAL2     0.900000E-01   1.00800           0
      9932 MEMB     76       POPC     H9Y      HAL2     0.900000E-01   1.00800           0
      9933 MEMB     76       POPC     C310     CTL2    -0.180000       12.0110           0
      9934 MEMB     76       POPC     H10X     HAL2     0.900000E-01   1.00800           0
      9935 MEMB     76       POPC     H10Y     HAL2     0.900000E-01   1.00800           0
      9936 MEMB     76       POPC     C311     CTL2    -0.180000       12.0110           0
      9937 MEMB     76       POPC     H11X     HAL2     0.900000E-01   1.00800           0
      9938 MEMB     76       POPC     H11Y     HAL2     0.900000E-01   1.00800           0
      9939 MEMB     76       POPC     C312     CTL2    -0.180000       12.0110           0
      9940 MEMB     76       POPC     H12X     HAL2     0.900000E-01   1.00800           0
      9941 MEMB     76       POPC     H12Y     HAL2     0.900000E-01   1.00800           0
      9942 MEMB     76       POPC     C313     CTL2    -0.180000       12.0110           0
      9943 MEMB     76       POPC     H13X     HAL2     0.900000E-01   1.00800           0
      9944 MEMB     76       POPC     H13Y     HAL2     0.900000E-01   1.00800           0
      9945 MEMB     76       POPC     C314     CTL2    -0.180000       12.0110           0
      9946 MEMB     76       POPC     H14X     HAL2     0.900000E-01   1.00800           0
      9947 MEMB     76       POPC     H14Y     HAL2     0.900000E-01   1.00800           0
      9948 MEMB     76       POPC     C315     CTL2    -0.180000       12.0110           0
      9949 MEMB     76       POPC     H15X     HAL2     0.900000E-01   1.00800           0
      9950 MEMB     76       POPC     H15Y     HAL2     0.900000E-01   1.00800           0
      9951 MEMB     76       POPC     C316     CTL3    -0.270000       12.0110           0
      9952 MEMB     76       POPC     H16X     HAL3     0.900000E-01   1.00800           0
      9953 MEMB     76       POPC     H16Y     HAL3     0.900000E-01   1.00800           0
      9954 MEMB     76       POPC     H16Z     HAL3     0.900000E-01   1.00800           0
      9955 MEMB     94       POPC     N        NTL     -0.600000       14.0070           0
      9956 MEMB     94       POPC     C12      CTL2    -0.100000       12.0110           0
      9957 MEMB     94       POPC     H12A     HL       0.250000       1.00800           0
      9958 MEMB     94       POPC     H12B     HL       0.250000       1.00800           0
      9959 MEMB     94       POPC     C13      CTL5    -0.350000       12.0110           0
      9960 MEMB     94       POPC     H13A     HL       0.250000       1.00800           0
      9961 MEMB     94       POPC     H13B     HL       0.250000       1.00800           0
      9962 MEMB     94       POPC     H13C     HL       0.250000       1.00800           0
      9963 MEMB     94       POPC     C14      CTL5    -0.350000       12.0110           0
      9964 MEMB     94       POPC     H14A     HL       0.250000       1.00800           0
      9965 MEMB     94       POPC     H14B     HL       0.250000       1.00800           0
      9966 MEMB     94       POPC     H14C     HL       0.250000       1.00800           0
      9967 MEMB     94       POPC     C15      CTL5    -0.350000       12.0110           0
      9968 MEMB     94       POPC     H15A     HL       0.250000       1.00800           0
      9969 MEMB     94       POPC     H15B     HL       0.250000       1.00800           0
      9970 MEMB     94       POPC     H15C     HL       0.250000       1.00800           0
      9971 MEMB     94       POPC     C11      CTL2    -0.800000E-01   12.0110           0
      9972 MEMB     94       POPC     H11A     HAL2     0.900000E-01   1.00800           0
      9973 MEMB     94       POPC     H11B     HAL2     0.900000E-01   1.00800           0
      9974 MEMB     94       POPC     P        PL       1.500000       30.9740           0
      9975 MEMB     94       POPC     O13      O2L     -0.780000       15.9994           0
      9976 MEMB     94       POPC     O14      O2L     -0.780000       15.9994           0
      9977 MEMB     94       POPC     O12      OSLP    -0.570000       15.9994           0
      9978 MEMB     94       POPC     O11      OSLP    -0.570000       15.9994           0
      9979 MEMB     94       POPC     C1       CTL2    -0.800000E-01   12.0110           0
      9980 MEMB     94       POPC     HA       HAL2     0.900000E-01   1.00800           0
      9981 MEMB     94       POPC     HB       HAL2     0.900000E-01   1.00800           0
      9982 MEMB     94       POPC     C2       CTL1     0.170000       12.0110           0
      9983 MEMB     94       POPC     HS       HAL1     0.900000E-01   1.00800           0
      9984 MEMB     94       POPC     O21      OSL     -0.490000       15.9994           0
      9985 MEMB     94       POPC     C21      CL       0.900000       12.0110           0
      9986 MEMB     94       POPC     O22      OBL     -0.630000       15.9994           0
      9987 MEMB     94       POPC     C22      CTL2    -0.220000       12.0110           0
      9988 MEMB     94       POPC     H2R      HAL2     0.900000E-01   1.00800           0
      9989 MEMB     94       POPC     H2S      HAL2     0.900000E-01   1.00800           0
      9990 MEMB     94       POPC     C3       CTL2     0.800000E-01   12.0110           0
      9991 MEMB     94       POPC     HX       HAL2     0.900000E-01   1.00800           0
      9992 MEMB     94       POPC     HY       HAL2     0.900000E-01   1.00800           0
      9993 MEMB     94       POPC     O31      OSL     -0.490000       15.9994           0
      9994 MEMB     94       POPC     C31      CL       0.900000       12.0110           0
      9995 MEMB     94       POPC     O32      OBL     -0.630000       15.9994           0
      9996 MEMB     94       POPC     C32      CTL2    -0.220000       12.0110           0
      9997 MEMB     94       POPC     H2X      HAL2     0.900000E-01   1.00800           0
      9998 MEMB     94       POPC     H2Y      HAL2     0.900000E-01   1.00800           0
      9999 MEMB     94       POPC     C23      CTL2    -0.180000       12.0110           0
     10000 MEMB     94       POPC     H3R      HAL2     0.900000E-01   1.00800           0
     10001 MEMB     94       POPC     H3S      HAL2     0.900000E-01   1.00800           0
     10002 MEMB     94       POPC     C24      CTL2    -0.180000       12.0110           0
     10003 MEMB     94       POPC     H4R      HAL2     0.900000E-01   1.00800           0
     10004 MEMB     94       POPC     H4S      HAL2     0.900000E-01   1.00800           0
     10005 MEMB     94       POPC     C25      CTL2    -0.180000       12.0110           0
     10006 MEMB     94       POPC     H5R      HAL2     0.900000E-01   1.00800           0
     10007 MEMB     94       POPC     H5S      HAL2     0.900000E-01   1.00800           0
     10008 MEMB     94       POPC     C26      CTL2    -0.180000       12.0110           0
     10009 MEMB     94       POPC     H6R      HAL2     0.900000E-01   1.00800           0
     10010 MEMB     94       POPC     H6S      HAL2     0.900000E-01   1.00800           0
     10011 MEMB     94       POPC     C27      CTL2    -0.180000       12.0110           0
     10012 MEMB     94       POPC     H7R      HAL2     0.900000E-01   1.00800           0
     10013 MEMB     94       POPC     H7S      HAL2     0.900000E-01   1.00800           0
     10014 MEMB     94       POPC     C28      CTL2    -0.180000       12.0110           0
     10015 MEMB     94       POPC     H8R      HAL2     0.900000E-01   1.00800           0
     10016 MEMB     94       POPC     H8S      HAL2     0.900000E-01   1.00800           0
     10017 MEMB     94       POPC     C29      CEL1    -0.150000       12.0110           0
     10018 MEMB     94       POPC     H91      HEL1     0.150000       1.00800           0
     10019 MEMB     94       POPC     C210     CEL1    -0.150000       12.0110           0
     10020 MEMB     94       POPC     H101     HEL1     0.150000       1.00800           0
     10021 MEMB     94       POPC     C211     CTL2    -0.180000       12.0110           0
     10022 MEMB     94       POPC     H11R     HAL2     0.900000E-01   1.00800           0
     10023 MEMB     94       POPC     H11S     HAL2     0.900000E-01   1.00800           0
     10024 MEMB     94       POPC     C212     CTL2    -0.180000       12.0110           0
     10025 MEMB     94       POPC     H12R     HAL2     0.900000E-01   1.00800           0
     10026 MEMB     94       POPC     H12S     HAL2     0.900000E-01   1.00800           0
     10027 MEMB     94       POPC     C213     CTL2    -0.180000       12.0110           0
     10028 MEMB     94       POPC     H13R     HAL2     0.900000E-01   1.00800           0
     10029 MEMB     94       POPC     H13S     HAL2     0.900000E-01   1.00800           0
     10030 MEMB     94       POPC     C214     CTL2    -0.180000       12.0110           0
     10031 MEMB     94       POPC     H14R     HAL2     0.900000E-01   1.00800           0
     10032 MEMB     94       POPC     H14S     HAL2     0.900000E-01   1.00800           0
     10033 MEMB     94       POPC     C215     CTL2    -0.180000       12.0110           0
     10034 MEMB     94       POPC     H15R     HAL2     0.900000E-01   1.00800           0
     10035 MEMB     94       POPC     H15S     HAL2     0.900000E-01   1.00800           0
     10036 MEMB     94       POPC     C216     CTL2    -0.180000       12.0110           0
     10037 MEMB     94       POPC     H16R     HAL2     0.900000E-01   1.00800           0
     10038 MEMB     94       POPC     H16S     HAL2     0.900000E-01   1.00800           0
     10039 MEMB     94       POPC     C217     CTL2    -0.180000       12.0110           0
     10040 MEMB     94       POPC     H17R     HAL2     0.900000E-01   1.00800           0
     10041 MEMB     94       POPC     H17S     HAL2     0.900000E-01   1.00800           0
     10042 MEMB     94       POPC     C218     CTL3    -0.270000       12.0110           0
     10043 MEMB     94       POPC     H18R     HAL3     0.900000E-01   1.00800           0
     10044 MEMB     94       POPC     H18S     HAL3     0.900000E-01   1.00800           0
     10045 MEMB     94       POPC     H18T     HAL3     0.900000E-01   1.00800           0
     10046 MEMB     94       POPC     C33      CTL2    -0.180000       12.0110           0
     10047 MEMB     94       POPC     H3X      HAL2     0.900000E-01   1.00800           0
     10048 MEMB     94       POPC     H3Y      HAL2     0.900000E-01   1.00800           0
     10049 MEMB     94       POPC     C34      CTL2    -0.180000       12.0110           0
     10050 MEMB     94       POPC     H4X      HAL2     0.900000E-01   1.00800           0
     10051 MEMB     94       POPC     H4Y      HAL2     0.900000E-01   1.00800           0
     10052 MEMB     94       POPC     C35      CTL2    -0.180000       12.0110           0
     10053 MEMB     94       POPC     H5X      HAL2     0.900000E-01   1.00800           0
     10054 MEMB     94       POPC     H5Y      HAL2     0.900000E-01   1.00800           0
     10055 MEMB     94       POPC     C36      CTL2    -0.180000       12.0110           0
     10056 MEMB     94       POPC     H6X      HAL2     0.900000E-01   1.00800           0
     10057 MEMB     94       POPC     H6Y      HAL2     0.900000E-01   1.00800           0
     10058 MEMB     94       POPC     C37      CTL2    -0.180000       12.0110           0
     10059 MEMB     94       POPC     H7X      HAL2     0.900000E-01   1.00800           0
     10060 MEMB     94       POPC     H7Y      HAL2     0.900000E-01   1.00800           0
     10061 MEMB     94       POPC     C38      CTL2    -0.180000       12.0110           0
     10062 MEMB     94       POPC     H8X      HAL2     0.900000E-01   1.00800           0
     10063 MEMB     94       POPC     H8Y      HAL2     0.900000E-01   1.00800           0
     10064 MEMB     94       POPC     C39      CTL2    -0.180000       12.0110           0
     10065 MEMB     94       POPC     H9X      HAL2     0.900000E-01   1.00800           0
     10066 MEMB     94       POPC     H9Y      HAL2     0.900000E-01   1.00800           0
     10067 MEMB     94       POPC     C310     CTL2    -0.180000       12.0110           0
     10068 MEMB     94       POPC     H10X     HAL2     0.900000E-01   1.00800           0
     10069 MEMB     94       POPC     H10Y     HAL2     0.900000E-01   1.00800           0
     10070 MEMB     94       POPC     C311     CTL2    -0.180000       12.0110           0
     10071 MEMB     94       POPC     H11X     HAL2     0.900000E-01   1.00800           0
     10072 MEMB     94       POPC     H11Y     HAL2     0.900000E-01   1.00800           0
     10073 MEMB     94       POPC     C312     CTL2    -0.180000       12.0110           0
     10074 MEMB     94       POPC     H12X     HAL2     0.900000E-01   1.00800           0
     10075 MEMB     94       POPC     H12Y     HAL2     0.900000E-01   1.00800           0
     10076 MEMB     94       POPC     C313     CTL2    -0.180000       12.0110           0
     10077 MEMB     94       POPC     H13X     HAL2     0.900000E-01   1.00800           0
     10078 MEMB     94       POPC     H13Y     HAL2     0.900000E-01   1.00800           0
     10079 MEMB     94       POPC     C314     CTL2    -0.180000       12.0110           0
     10080 MEMB     94       POPC     H14X     HAL2     0.900000E-01   1.00800           0
     10081 MEMB     94       POPC     H14Y     HAL2     0.900000E-01   1.00800           0
     10082 MEMB     94       POPC     C315     CTL2    -0.180000       12.0110           0
     10083 MEMB     94       POPC     H15X     HAL2     0.900000E-01   1.00800           0
     10084 MEMB     94       POPC     H15Y     HAL2     0.900000E-01   1.00800           0
     10085 MEMB     94       POPC     C316     CTL3    -0.270000       12.0110           0
     10086 MEMB     94       POPC     H16X     HAL3     0.900000E-01   1.00800           0
     10087 MEMB     94       POPC     H16Y     HAL3     0.900000E-01   1.00800           0
     10088 MEMB     94       POPC     H16Z     HAL3     0.900000E-01   1.00800           0
     10089 MEMB     26       SOPE     N        NH3L    -0.300000       14.0070           0
     10090 MEMB     26       SOPE     HN1      HCL      0.330000       1.00800           0
     10091 MEMB     26       SOPE     HN2      HCL      0.330000       1.00800           0
     10092 MEMB     26       SOPE     HN3      HCL      0.330000       1.00800           0
     10093 MEMB     26       SOPE     C12      CTL2     0.130000       12.0110           0
     10094 MEMB     26       SOPE     H12A     HAL2     0.900000E-01   1.00800           0
     10095 MEMB     26       SOPE     H12B     HAL2     0.900000E-01   1.00800           0
     10096 MEMB     26       SOPE     C11      CTL2    -0.800000E-01   12.0110           0
     10097 MEMB     26       SOPE     H11A     HAL2     0.900000E-01   1.00800           0
     10098 MEMB     26       SOPE     H11B     HAL2     0.900000E-01   1.00800           0
     10099 MEMB     26       SOPE     P        PL       1.500000       30.9740           0
     10100 MEMB     26       SOPE     O13      O2L     -0.780000       15.9994           0
     10101 MEMB     26       SOPE     O14      O2L     -0.780000       15.9994           0
     10102 MEMB     26       SOPE     O12      OSLP    -0.570000       15.9994           0
     10103 MEMB     26       SOPE     O11      OSLP    -0.570000       15.9994           0
     10104 MEMB     26       SOPE     C1       CTL2    -0.800000E-01   12.0110           0
     10105 MEMB     26       SOPE     HA       HAL2     0.900000E-01   1.00800           0
     10106 MEMB     26       SOPE     HB       HAL2     0.900000E-01   1.00800           0
     10107 MEMB     26       SOPE     C2       CTL1     0.170000       12.0110           0
     10108 MEMB     26       SOPE     HS       HAL1     0.900000E-01   1.00800           0
     10109 MEMB     26       SOPE     O21      OSL     -0.490000       15.9994           0
     10110 MEMB     26       SOPE     C21      CL       0.900000       12.0110           0
     10111 MEMB     26       SOPE     O22      OBL     -0.630000       15.9994           0
     10112 MEMB     26       SOPE     C22      CTL2    -0.220000       12.0110           0
     10113 MEMB     26       SOPE     H2R      HAL2     0.900000E-01   1.00800           0
     10114 MEMB     26       SOPE     H2S      HAL2     0.900000E-01   1.00800           0
     10115 MEMB     26       SOPE     C3       CTL2     0.800000E-01   12.0110           0
     10116 MEMB     26       SOPE     HX       HAL2     0.900000E-01   1.00800           0
     10117 MEMB     26       SOPE     HY       HAL2     0.900000E-01   1.00800           0
     10118 MEMB     26       SOPE     O31      OSL     -0.490000       15.9994           0
     10119 MEMB     26       SOPE     C31      CL       0.900000       12.0110           0
     10120 MEMB     26       SOPE     O32      OBL     -0.630000       15.9994           0
     10121 MEMB     26       SOPE     C32      CTL2    -0.220000       12.0110           0
     10122 MEMB     26       SOPE     H2X      HAL2     0.900000E-01   1.00800           0
     10123 MEMB     26       SOPE     H2Y      HAL2     0.900000E-01   1.00800           0
     10124 MEMB     26       SOPE     C23      CTL2    -0.180000       12.0110           0
     10125 MEMB     26       SOPE     H3R      HAL2     0.900000E-01   1.00800           0
     10126 MEMB     26       SOPE     H3S      HAL2     0.900000E-01   1.00800           0
     10127 MEMB     26       SOPE     C24      CTL2    -0.180000       12.0110           0
     10128 MEMB     26       SOPE     H4R      HAL2     0.900000E-01   1.00800           0
     10129 MEMB     26       SOPE     H4S      HAL2     0.900000E-01   1.00800           0
     10130 MEMB     26       SOPE     C25      CTL2    -0.180000       12.0110           0
     10131 MEMB     26       SOPE     H5R      HAL2     0.900000E-01   1.00800           0
     10132 MEMB     26       SOPE     H5S      HAL2     0.900000E-01   1.00800           0
     10133 MEMB     26       SOPE     C26      CTL2    -0.180000       12.0110           0
     10134 MEMB     26       SOPE     H6R      HAL2     0.900000E-01   1.00800           0
     10135 MEMB     26       SOPE     H6S      HAL2     0.900000E-01   1.00800           0
     10136 MEMB     26       SOPE     C27      CTL2    -0.180000       12.0110           0
     10137 MEMB     26       SOPE     H7R      HAL2     0.900000E-01   1.00800           0
     10138 MEMB     26       SOPE     H7S      HAL2     0.900000E-01   1.00800           0
     10139 MEMB     26       SOPE     C28      CTL2    -0.180000       12.0110           0
     10140 MEMB     26       SOPE     H8R      HAL2     0.900000E-01   1.00800           0
     10141 MEMB     26       SOPE     H8S      HAL2     0.900000E-01   1.00800           0
     10142 MEMB     26       SOPE     C29      CEL1    -0.150000       12.0110           0
     10143 MEMB     26       SOPE     H91      HEL1     0.150000       1.00800           0
     10144 MEMB     26       SOPE     C210     CEL1    -0.150000       12.0110           0
     10145 MEMB     26       SOPE     H101     HEL1     0.150000       1.00800           0
     10146 MEMB     26       SOPE     C211     CTL2    -0.180000       12.0110           0
     10147 MEMB     26       SOPE     H11R     HAL2     0.900000E-01   1.00800           0
     10148 MEMB     26       SOPE     H11S     HAL2     0.900000E-01   1.00800           0
     10149 MEMB     26       SOPE     C212     CTL2    -0.180000       12.0110           0
     10150 MEMB     26       SOPE     H12R     HAL2     0.900000E-01   1.00800           0
     10151 MEMB     26       SOPE     H12S     HAL2     0.900000E-01   1.00800           0
     10152 MEMB     26       SOPE     C213     CTL2    -0.180000       12.0110           0
     10153 MEMB     26       SOPE     H13R     HAL2     0.900000E-01   1.00800           0
     10154 MEMB     26       SOPE     H13S     HAL2     0.900000E-01   1.00800           0
     10155 MEMB     26       SOPE     C214     CTL2    -0.180000       12.0110           0
     10156 MEMB     26       SOPE     H14R     HAL2     0.900000E-01   1.00800           0
     10157 MEMB     26       SOPE     H14S     HAL2     0.900000E-01   1.00800           0
     10158 MEMB     26       SOPE     C215     CTL2    -0.180000       12.0110           0
     10159 MEMB     26       SOPE     H15R     HAL2     0.900000E-01   1.00800           0
     10160 MEMB     26       SOPE     H15S     HAL2     0.900000E-01   1.00800           0
     10161 MEMB     26       SOPE     C216     CTL2    -0.180000       12.0110           0
     10162 MEMB     26       SOPE     H16R     HAL2     0.900000E-01   1.00800           0
     10163 MEMB     26       SOPE     H16S     HAL2     0.900000E-01   1.00800           0
     10164 MEMB     26       SOPE     C217     CTL2    -0.180000       12.0110           0
     10165 MEMB     26       SOPE     H17R     HAL2     0.900000E-01   1.00800           0
     10166 MEMB     26       SOPE     H17S     HAL2     0.900000E-01   1.00800           0
     10167 MEMB     26       SOPE     C218     CTL3    -0.270000       12.0110           0
     10168 MEMB     26       SOPE     H18R     HAL3     0.900000E-01   1.00800           0
     10169 MEMB     26       SOPE     H18S     HAL3     0.900000E-01   1.00800           0
     10170 MEMB     26       SOPE     H18T     HAL3     0.900000E-01   1.00800           0
     10171 MEMB     26       SOPE     C33      CTL2    -0.180000       12.0110           0
     10172 MEMB     26       SOPE     H3X      HAL2     0.900000E-01   1.00800           0
     10173 MEMB     26       SOPE     H3Y      HAL2     0.900000E-01   1.00800           0
     10174 MEMB     26       SOPE     C34      CTL2    -0.180000       12.0110           0
     10175 MEMB     26       SOPE     H4X      HAL2     0.900000E-01   1.00800           0
     10176 MEMB     26       SOPE     H4Y      HAL2     0.900000E-01   1.00800           0
     10177 MEMB     26       SOPE     C35      CTL2    -0.180000       12.0110           0
     10178 MEMB     26       SOPE     H5X      HAL2     0.900000E-01   1.00800           0
     10179 MEMB     26       SOPE     H5Y      HAL2     0.900000E-01   1.00800           0
     10180 MEMB     26       SOPE     C36      CTL2    -0.180000       12.0110           0
     10181 MEMB     26       SOPE     H6X      HAL2     0.900000E-01   1.00800           0
     10182 MEMB     26       SOPE     H6Y      HAL2     0.900000E-01   1.00800           0
     10183 MEMB     26       SOPE     C37      CTL2    -0.180000       12.0110           0
     10184 MEMB     26       SOPE     H7X      HAL2     0.900000E-01   1.00800           0
     10185 MEMB     26       SOPE     H7Y      HAL2     0.900000E-01   1.00800           0
     10186 MEMB     26       SOPE     C38      CTL2    -0.180000       12.0110           0
     10187 MEMB     26       SOPE     H8X      HAL2     0.900000E-01   1.00800           0
     10188 MEMB     26       SOPE     H8Y      HAL2     0.900000E-01   1.00800           0
     10189 MEMB     26       SOPE     C39      CTL2    -0.180000       12.0110           0
     10190 MEMB     26       SOPE     H9X      HAL2     0.900000E-01   1.00800           0
     10191 MEMB     26       SOPE     H9Y      HAL2     0.900000E-01   1.00800           0
     10192 MEMB     26       SOPE     C310     CTL2    -0.180000       12.0110           0
     10193 MEMB     26       SOPE     H10X     HAL2     0.900000E-01   1.00800           0
     10194 MEMB     26       SOPE     H10Y     HAL2     0.900000E-01   1.00800           0
     10195 MEMB     26       SOPE     C311     CTL2    -0.180000       12.0110           0
     10196 MEMB     26       SOPE     H11X     HAL2     0.900000E-01   1.00800           0
     10197 MEMB     26       SOPE     H11Y     HAL2     0.900000E-01   1.00800           0
     10198 MEMB     26       SOPE     C312     CTL2    -0.180000       12.0110           0
     10199 MEMB     26       SOPE     H12X     HAL2     0.900000E-01   1.00800           0
     10200 MEMB     26       SOPE     H12Y     HAL2     0.900000E-01   1.00800           0
     10201 MEMB     26       SOPE     C313     CTL2    -0.180000       12.0110           0
     10202 MEMB     26       SOPE     H13X     HAL2     0.900000E-01   1.00800           0
     10203 MEMB     26       SOPE     H13Y     HAL2     0.900000E-01   1.00800           0
     10204 MEMB     26       SOPE     C314     CTL2    -0.180000       12.0110           0
     10205 MEMB     26       SOPE     H14X     HAL2     0.900000E-01   1.00800           0
     10206 MEMB     26       SOPE     H14Y     HAL2     0.900000E-01   1.00800           0
     10207 MEMB     26       SOPE     C315     CTL2    -0.180000       12.0110           0
     10208 MEMB     26       SOPE     H15X     HAL2     0.900000E-01   1.00800           0
     10209 MEMB     26       SOPE     H15Y     HAL2     0.900000E-01   1.00800           0
     10210 MEMB     26       SOPE     C316     CTL2    -0.180000       12.0110           0
     10211 MEMB     26       SOPE     H16X     HAL2     0.900000E-01   1.00800           0
     10212 MEMB     26       SOPE     H16Y     HAL2     0.900000E-01   1.00800           0
     10213 MEMB     26       SOPE     C317     CTL2    -0.180000       12.0110           0
     10214 MEMB     26       SOPE     H17X     HAL2     0.900000E-01   1.00800           0
     10215 MEMB     26       SOPE     H17Y     HAL2     0.900000E-01   1.00800           0
     10216 MEMB     26       SOPE     C318     CTL3    -0.270000       12.0110           0
     10217 MEMB     26       SOPE     H18X     HAL3     0.900000E-01   1.00800           0
     10218 MEMB     26       SOPE     H18Y     HAL3     0.900000E-01   1.00800           0
     10219 MEMB     26       SOPE     H18Z     HAL3     0.900000E-01   1.00800           0
     10220 MEMB     30       SOPE     N        NH3L    -0.300000       14.0070           0
     10221 MEMB     30       SOPE     HN1      HCL      0.330000       1.00800           0
     10222 MEMB     30       SOPE     HN2      HCL      0.330000       1.00800           0
     10223 MEMB     30       SOPE     HN3      HCL      0.330000       1.00800           0
     10224 MEMB     30       SOPE     C12      CTL2     0.130000       12.0110           0
     10225 MEMB     30       SOPE     H12A     HAL2     0.900000E-01   1.00800           0
     10226 MEMB     30       SOPE     H12B     HAL2     0.900000E-01   1.00800           0
     10227 MEMB     30       SOPE     C11      CTL2    -0.800000E-01   12.0110           0
     10228 MEMB     30       SOPE     H11A     HAL2     0.900000E-01   1.00800           0
     10229 MEMB     30       SOPE     H11B     HAL2     0.900000E-01   1.00800           0
     10230 MEMB     30       SOPE     P        PL       1.500000       30.9740           0
     10231 MEMB     30       SOPE     O13      O2L     -0.780000       15.9994           0
     10232 MEMB     30       SOPE     O14      O2L     -0.780000       15.9994           0
     10233 MEMB     30       SOPE     O12      OSLP    -0.570000       15.9994           0
     10234 MEMB     30       SOPE     O11      OSLP    -0.570000       15.9994           0
     10235 MEMB     30       SOPE     C1       CTL2    -0.800000E-01   12.0110           0
     10236 MEMB     30       SOPE     HA       HAL2     0.900000E-01   1.00800           0
     10237 MEMB     30       SOPE     HB       HAL2     0.900000E-01   1.00800           0
     10238 MEMB     30       SOPE     C2       CTL1     0.170000       12.0110           0
     10239 MEMB     30       SOPE     HS       HAL1     0.900000E-01   1.00800           0
     10240 MEMB     30       SOPE     O21      OSL     -0.490000       15.9994           0
     10241 MEMB     30       SOPE     C21      CL       0.900000       12.0110           0
     10242 MEMB     30       SOPE     O22      OBL     -0.630000       15.9994           0
     10243 MEMB     30       SOPE     C22      CTL2    -0.220000       12.0110           0
     10244 MEMB     30       SOPE     H2R      HAL2     0.900000E-01   1.00800           0
     10245 MEMB     30       SOPE     H2S      HAL2     0.900000E-01   1.00800           0
     10246 MEMB     30       SOPE     C3       CTL2     0.800000E-01   12.0110           0
     10247 MEMB     30       SOPE     HX       HAL2     0.900000E-01   1.00800           0
     10248 MEMB     30       SOPE     HY       HAL2     0.900000E-01   1.00800           0
     10249 MEMB     30       SOPE     O31      OSL     -0.490000       15.9994           0
     10250 MEMB     30       SOPE     C31      CL       0.900000       12.0110           0
     10251 MEMB     30       SOPE     O32      OBL     -0.630000       15.9994           0
     10252 MEMB     30       SOPE     C32      CTL2    -0.220000       12.0110           0
     10253 MEMB     30       SOPE     H2X      HAL2     0.900000E-01   1.00800           0
     10254 MEMB     30       SOPE     H2Y      HAL2     0.900000E-01   1.00800           0
     10255 MEMB     30       SOPE     C23      CTL2    -0.180000       12.0110           0
     10256 MEMB     30       SOPE     H3R      HAL2     0.900000E-01   1.00800           0
     10257 MEMB     30       SOPE     H3S      HAL2     0.900000E-01   1.00800           0
     10258 MEMB     30       SOPE     C24      CTL2    -0.180000       12.0110           0
     10259 MEMB     30       SOPE     H4R      HAL2     0.900000E-01   1.00800           0
     10260 MEMB     30       SOPE     H4S      HAL2     0.900000E-01   1.00800           0
     10261 MEMB     30       SOPE     C25      CTL2    -0.180000       12.0110           0
     10262 MEMB     30       SOPE     H5R      HAL2     0.900000E-01   1.00800           0
     10263 MEMB     30       SOPE     H5S      HAL2     0.900000E-01   1.00800           0
     10264 MEMB     30       SOPE     C26      CTL2    -0.180000       12.0110           0
     10265 MEMB     30       SOPE     H6R      HAL2     0.900000E-01   1.00800           0
     10266 MEMB     30       SOPE     H6S      HAL2     0.900000E-01   1.00800           0
     10267 MEMB     30       SOPE     C27      CTL2    -0.180000       12.0110           0
     10268 MEMB     30       SOPE     H7R      HAL2     0.900000E-01   1.00800           0
     10269 MEMB     30       SOPE     H7S      HAL2     0.900000E-01   1.00800           0
     10270 MEMB     30       SOPE     C28      CTL2    -0.180000       12.0110           0
     10271 MEMB     30       SOPE     H8R      HAL2     0.900000E-01   1.00800           0
     10272 MEMB     30       SOPE     H8S      HAL2     0.900000E-01   1.00800           0
     10273 MEMB     30       SOPE     C29      CEL1    -0.150000       12.0110           0
     10274 MEMB     30       SOPE     H91      HEL1     0.150000       1.00800           0
     10275 MEMB     30       SOPE     C210     CEL1    -0.150000       12.0110           0
     10276 MEMB     30       SOPE     H101     HEL1     0.150000       1.00800           0
     10277 MEMB     30       SOPE     C211     CTL2    -0.180000       12.0110           0
     10278 MEMB     30       SOPE     H11R     HAL2     0.900000E-01   1.00800           0
     10279 MEMB     30       SOPE     H11S     HAL2     0.900000E-01   1.00800           0
     10280 MEMB     30       SOPE     C212     CTL2    -0.180000       12.0110           0
     10281 MEMB     30       SOPE     H12R     HAL2     0.900000E-01   1.00800           0
     10282 MEMB     30       SOPE     H12S     HAL2     0.900000E-01   1.00800           0
     10283 MEMB     30       SOPE     C213     CTL2    -0.180000       12.0110           0
     10284 MEMB     30       SOPE     H13R     HAL2     0.900000E-01   1.00800           0
     10285 MEMB     30       SOPE     H13S     HAL2     0.900000E-01   1.00800           0
     10286 MEMB     30       SOPE     C214     CTL2    -0.180000       12.0110           0
     10287 MEMB     30       SOPE     H14R     HAL2     0.900000E-01   1.00800           0
     10288 MEMB     30       SOPE     H14S     HAL2     0.900000E-01   1.00800           0
     10289 MEMB     30       SOPE     C215     CTL2    -0.180000       12.0110           0
     10290 MEMB     30       SOPE     H15R     HAL2     0.900000E-01   1.00800           0
     10291 MEMB     30       SOPE     H15S     HAL2     0.900000E-01   1.00800           0
     10292 MEMB     30       SOPE     C216     CTL2    -0.180000       12.0110           0
     10293 MEMB     30       SOPE     H16R     HAL2     0.900000E-01   1.00800           0
     10294 MEMB     30       SOPE     H16S     HAL2     0.900000E-01   1.00800           0
     10295 MEMB     30       SOPE     C217     CTL2    -0.180000       12.0110           0
     10296 MEMB     30       SOPE     H17R     HAL2     0.900000E-01   1.00800           0
     10297 MEMB     30       SOPE     H17S     HAL2     0.900000E-01   1.00800           0
     10298 MEMB     30       SOPE     C218     CTL3    -0.270000       12.0110           0
     10299 MEMB     30       SOPE     H18R     HAL3     0.900000E-01   1.00800           0
     10300 MEMB     30       SOPE     H18S     HAL3     0.900000E-01   1.00800           0
     10301 MEMB     30       SOPE     H18T     HAL3     0.900000E-01   1.00800           0
     10302 MEMB     30       SOPE     C33      CTL2    -0.180000       12.0110           0
     10303 MEMB     30       SOPE     H3X      HAL2     0.900000E-01   1.00800           0
     10304 MEMB     30       SOPE     H3Y      HAL2     0.900000E-01   1.00800           0
     10305 MEMB     30       SOPE     C34      CTL2    -0.180000       12.0110           0
     10306 MEMB     30       SOPE     H4X      HAL2     0.900000E-01   1.00800           0
     10307 MEMB     30       SOPE     H4Y      HAL2     0.900000E-01   1.00800           0
     10308 MEMB     30       SOPE     C35      CTL2    -0.180000       12.0110           0
     10309 MEMB     30       SOPE     H5X      HAL2     0.900000E-01   1.00800           0
     10310 MEMB     30       SOPE     H5Y      HAL2     0.900000E-01   1.00800           0
     10311 MEMB     30       SOPE     C36      CTL2    -0.180000       12.0110           0
     10312 MEMB     30       SOPE     H6X      HAL2     0.900000E-01   1.00800           0
     10313 MEMB     30       SOPE     H6Y      HAL2     0.900000E-01   1.00800           0
     10314 MEMB     30       SOPE     C37      CTL2    -0.180000       12.0110           0
     10315 MEMB     30       SOPE     H7X      HAL2     0.900000E-01   1.00800           0
     10316 MEMB     30       SOPE     H7Y      HAL2     0.900000E-01   1.00800           0
     10317 MEMB     30       SOPE     C38      CTL2    -0.180000       12.0110           0
     10318 MEMB     30       SOPE     H8X      HAL2     0.900000E-01   1.00800           0
     10319 MEMB     30       SOPE     H8Y      HAL2     0.900000E-01   1.00800           0
     10320 MEMB     30       SOPE     C39      CTL2    -0.180000       12.0110           0
     10321 MEMB     30       SOPE     H9X      HAL2     0.900000E-01   1.00800           0
     10322 MEMB     30       SOPE     H9Y      HAL2     0.900000E-01   1.00800           0
     10323 MEMB     30       SOPE     C310     CTL2    -0.180000       12.0110           0
     10324 MEMB     30       SOPE     H10X     HAL2     0.900000E-01   1.00800           0
     10325 MEMB     30       SOPE     H10Y     HAL2     0.900000E-01   1.00800           0
     10326 MEMB     30       SOPE     C311     CTL2    -0.180000       12.0110           0
     10327 MEMB     30       SOPE     H11X     HAL2     0.900000E-01   1.00800           0
     10328 MEMB     30       SOPE     H11Y     HAL2     0.900000E-01   1.00800           0
     10329 MEMB     30       SOPE     C312     CTL2    -0.180000       12.0110           0
     10330 MEMB     30       SOPE     H12X     HAL2     0.900000E-01   1.00800           0
     10331 MEMB     30       SOPE     H12Y     HAL2     0.900000E-01   1.00800           0
     10332 MEMB     30       SOPE     C313     CTL2    -0.180000       12.0110           0
     10333 MEMB     30       SOPE     H13X     HAL2     0.900000E-01   1.00800           0
     10334 MEMB     30       SOPE     H13Y     HAL2     0.900000E-01   1.00800           0
     10335 MEMB     30       SOPE     C314     CTL2    -0.180000       12.0110           0
     10336 MEMB     30       SOPE     H14X     HAL2     0.900000E-01   1.00800           0
     10337 MEMB     30       SOPE     H14Y     HAL2     0.900000E-01   1.00800           0
     10338 MEMB     30       SOPE     C315     CTL2    -0.180000       12.0110           0
     10339 MEMB     30       SOPE     H15X     HAL2     0.900000E-01   1.00800           0
     10340 MEMB     30       SOPE     H15Y     HAL2     0.900000E-01   1.00800           0
     10341 MEMB     30       SOPE     C316     CTL2    -0.180000       12.0110           0
     10342 MEMB     30       SOPE     H16X     HAL2     0.900000E-01   1.00800           0
     10343 MEMB     30       SOPE     H16Y     HAL2     0.900000E-01   1.00800           0
     10344 MEMB     30       SOPE     C317     CTL2    -0.180000       12.0110           0
     10345 MEMB     30       SOPE     H17X     HAL2     0.900000E-01   1.00800           0
     10346 MEMB     30       SOPE     H17Y     HAL2     0.900000E-01   1.00800           0
     10347 MEMB     30       SOPE     C318     CTL3    -0.270000       12.0110           0
     10348 MEMB     30       SOPE     H18X     HAL3     0.900000E-01   1.00800           0
     10349 MEMB     30       SOPE     H18Y     HAL3     0.900000E-01   1.00800           0
     10350 MEMB     30       SOPE     H18Z     HAL3     0.900000E-01   1.00800           0
     10351 MEMB     38       SOPE     N        NH3L    -0.300000       14.0070           0
     10352 MEMB     38       SOPE     HN1      HCL      0.330000       1.00800           0
     10353 MEMB     38       SOPE     HN2      HCL      0.330000       1.00800           0
     10354 MEMB     38       SOPE     HN3      HCL      0.330000       1.00800           0
     10355 MEMB     38       SOPE     C12      CTL2     0.130000       12.0110           0
     10356 MEMB     38       SOPE     H12A     HAL2     0.900000E-01   1.00800           0
     10357 MEMB     38       SOPE     H12B     HAL2     0.900000E-01   1.00800           0
     10358 MEMB     38       SOPE     C11      CTL2    -0.800000E-01   12.0110           0
     10359 MEMB     38       SOPE     H11A     HAL2     0.900000E-01   1.00800           0
     10360 MEMB     38       SOPE     H11B     HAL2     0.900000E-01   1.00800           0
     10361 MEMB     38       SOPE     P        PL       1.500000       30.9740           0
     10362 MEMB     38       SOPE     O13      O2L     -0.780000       15.9994           0
     10363 MEMB     38       SOPE     O14      O2L     -0.780000       15.9994           0
     10364 MEMB     38       SOPE     O12      OSLP    -0.570000       15.9994           0
     10365 MEMB     38       SOPE     O11      OSLP    -0.570000       15.9994           0
     10366 MEMB     38       SOPE     C1       CTL2    -0.800000E-01   12.0110           0
     10367 MEMB     38       SOPE     HA       HAL2     0.900000E-01   1.00800           0
     10368 MEMB     38       SOPE     HB       HAL2     0.900000E-01   1.00800           0
     10369 MEMB     38       SOPE     C2       CTL1     0.170000       12.0110           0
     10370 MEMB     38       SOPE     HS       HAL1     0.900000E-01   1.00800           0
     10371 MEMB     38       SOPE     O21      OSL     -0.490000       15.9994           0
     10372 MEMB     38       SOPE     C21      CL       0.900000       12.0110           0
     10373 MEMB     38       SOPE     O22      OBL     -0.630000       15.9994           0
     10374 MEMB     38       SOPE     C22      CTL2    -0.220000       12.0110           0
     10375 MEMB     38       SOPE     H2R      HAL2     0.900000E-01   1.00800           0
     10376 MEMB     38       SOPE     H2S      HAL2     0.900000E-01   1.00800           0
     10377 MEMB     38       SOPE     C3       CTL2     0.800000E-01   12.0110           0
     10378 MEMB     38       SOPE     HX       HAL2     0.900000E-01   1.00800           0
     10379 MEMB     38       SOPE     HY       HAL2     0.900000E-01   1.00800           0
     10380 MEMB     38       SOPE     O31      OSL     -0.490000       15.9994           0
     10381 MEMB     38       SOPE     C31      CL       0.900000       12.0110           0
     10382 MEMB     38       SOPE     O32      OBL     -0.630000       15.9994           0
     10383 MEMB     38       SOPE     C32      CTL2    -0.220000       12.0110           0
     10384 MEMB     38       SOPE     H2X      HAL2     0.900000E-01   1.00800           0
     10385 MEMB     38       SOPE     H2Y      HAL2     0.900000E-01   1.00800           0
     10386 MEMB     38       SOPE     C23      CTL2    -0.180000       12.0110           0
     10387 MEMB     38       SOPE     H3R      HAL2     0.900000E-01   1.00800           0
     10388 MEMB     38       SOPE     H3S      HAL2     0.900000E-01   1.00800           0
     10389 MEMB     38       SOPE     C24      CTL2    -0.180000       12.0110           0
     10390 MEMB     38       SOPE     H4R      HAL2     0.900000E-01   1.00800           0
     10391 MEMB     38       SOPE     H4S      HAL2     0.900000E-01   1.00800           0
     10392 MEMB     38       SOPE     C25      CTL2    -0.180000       12.0110           0
     10393 MEMB     38       SOPE     H5R      HAL2     0.900000E-01   1.00800           0
     10394 MEMB     38       SOPE     H5S      HAL2     0.900000E-01   1.00800           0
     10395 MEMB     38       SOPE     C26      CTL2    -0.180000       12.0110           0
     10396 MEMB     38       SOPE     H6R      HAL2     0.900000E-01   1.00800           0
     10397 MEMB     38       SOPE     H6S      HAL2     0.900000E-01   1.00800           0
     10398 MEMB     38       SOPE     C27      CTL2    -0.180000       12.0110           0
     10399 MEMB     38       SOPE     H7R      HAL2     0.900000E-01   1.00800           0
     10400 MEMB     38       SOPE     H7S      HAL2     0.900000E-01   1.00800           0
     10401 MEMB     38       SOPE     C28      CTL2    -0.180000       12.0110           0
     10402 MEMB     38       SOPE     H8R      HAL2     0.900000E-01   1.00800           0
     10403 MEMB     38       SOPE     H8S      HAL2     0.900000E-01   1.00800           0
     10404 MEMB     38       SOPE     C29      CEL1    -0.150000       12.0110           0
     10405 MEMB     38       SOPE     H91      HEL1     0.150000       1.00800           0
     10406 MEMB     38       SOPE     C210     CEL1    -0.150000       12.0110           0
     10407 MEMB     38       SOPE     H101     HEL1     0.150000       1.00800           0
     10408 MEMB     38       SOPE     C211     CTL2    -0.180000       12.0110           0
     10409 MEMB     38       SOPE     H11R     HAL2     0.900000E-01   1.00800           0
     10410 MEMB     38       SOPE     H11S     HAL2     0.900000E-01   1.00800           0
     10411 MEMB     38       SOPE     C212     CTL2    -0.180000       12.0110           0
     10412 MEMB     38       SOPE     H12R     HAL2     0.900000E-01   1.00800           0
     10413 MEMB     38       SOPE     H12S     HAL2     0.900000E-01   1.00800           0
     10414 MEMB     38       SOPE     C213     CTL2    -0.180000       12.0110           0
     10415 MEMB     38       SOPE     H13R     HAL2     0.900000E-01   1.00800           0
     10416 MEMB     38       SOPE     H13S     HAL2     0.900000E-01   1.00800           0
     10417 MEMB     38       SOPE     C214     CTL2    -0.180000       12.0110           0
     10418 MEMB     38       SOPE     H14R     HAL2     0.900000E-01   1.00800           0
     10419 MEMB     38       SOPE     H14S     HAL2     0.900000E-01   1.00800           0
     10420 MEMB     38       SOPE     C215     CTL2    -0.180000       12.0110           0
     10421 MEMB     38       SOPE     H15R     HAL2     0.900000E-01   1.00800           0
     10422 MEMB     38       SOPE     H15S     HAL2     0.900000E-01   1.00800           0
     10423 MEMB     38       SOPE     C216     CTL2    -0.180000       12.0110           0
     10424 MEMB     38       SOPE     H16R     HAL2     0.900000E-01   1.00800           0
     10425 MEMB     38       SOPE     H16S     HAL2     0.900000E-01   1.00800           0
     10426 MEMB     38       SOPE     C217     CTL2    -0.180000       12.0110           0
     10427 MEMB     38       SOPE     H17R     HAL2     0.900000E-01   1.00800           0
     10428 MEMB     38       SOPE     H17S     HAL2     0.900000E-01   1.00800           0
     10429 MEMB     38       SOPE     C218     CTL3    -0.270000       12.0110           0
     10430 MEMB     38       SOPE     H18R     HAL3     0.900000E-01   1.00800           0
     10431 MEMB     38       SOPE     H18S     HAL3     0.900000E-01   1.00800           0
     10432 MEMB     38       SOPE     H18T     HAL3     0.900000E-01   1.00800           0
     10433 MEMB     38       SOPE     C33      CTL2    -0.180000       12.0110           0
     10434 MEMB     38       SOPE     H3X      HAL2     0.900000E-01   1.00800           0
     10435 MEMB     38       SOPE     H3Y      HAL2     0.900000E-01   1.00800           0
     10436 MEMB     38       SOPE     C34      CTL2    -0.180000       12.0110           0
     10437 MEMB     38       SOPE     H4X      HAL2     0.900000E-01   1.00800           0
     10438 MEMB     38       SOPE     H4Y      HAL2     0.900000E-01   1.00800           0
     10439 MEMB     38       SOPE     C35      CTL2    -0.180000       12.0110           0
     10440 MEMB     38       SOPE     H5X      HAL2     0.900000E-01   1.00800           0
     10441 MEMB     38       SOPE     H5Y      HAL2     0.900000E-01   1.00800           0
     10442 MEMB     38       SOPE     C36      CTL2    -0.180000       12.0110           0
     10443 MEMB     38       SOPE     H6X      HAL2     0.900000E-01   1.00800           0
     10444 MEMB     38       SOPE     H6Y      HAL2     0.900000E-01   1.00800           0
     10445 MEMB     38       SOPE     C37      CTL2    -0.180000       12.0110           0
     10446 MEMB     38       SOPE     H7X      HAL2     0.900000E-01   1.00800           0
     10447 MEMB     38       SOPE     H7Y      HAL2     0.900000E-01   1.00800           0
     10448 MEMB     38       SOPE     C38      CTL2    -0.180000       12.0110           0
     10449 MEMB     38       SOPE     H8X      HAL2     0.900000E-01   1.00800           0
     10450 MEMB     38       SOPE     H8Y      HAL2     0.900000E-01   1.00800           0
     10451 MEMB     38       SOPE     C39      CTL2    -0.180000       12.0110           0
     10452 MEMB     38       SOPE     H9X      HAL2     0.900000E-01   1.00800           0
     10453 MEMB     38       SOPE     H9Y      HAL2     0.900000E-01   1.00800           0
     10454 MEMB     38       SOPE     C310     CTL2    -0.180000       12.0110           0
     10455 MEMB     38       SOPE     H10X     HAL2     0.900000E-01   1.00800           0
     10456 MEMB     38       SOPE     H10Y     HAL2     0.900000E-01   1.00800           0
     10457 MEMB     38       SOPE     C311     CTL2    -0.180000       12.0110           0
     10458 MEMB     38       SOPE     H11X     HAL2     0.900000E-01   1.00800           0
     10459 MEMB     38       SOPE     H11Y     HAL2     0.900000E-01   1.00800           0
     10460 MEMB     38       SOPE     C312     CTL2    -0.180000       12.0110           0
     10461 MEMB     38       SOPE     H12X     HAL2     0.900000E-01   1.00800           0
     10462 MEMB     38       SOPE     H12Y     HAL2     0.900000E-01   1.00800           0
     10463 MEMB     38       SOPE     C313     CTL2    -0.180000       12.0110           0
     10464 MEMB     38       SOPE     H13X     HAL2     0.900000E-01   1.00800           0
     10465 MEMB     38       SOPE     H13Y     HAL2     0.900000E-01   1.00800           0
     10466 MEMB     38       SOPE     C314     CTL2    -0.180000       12.0110           0
     10467 MEMB     38       SOPE     H14X     HAL2     0.900000E-01   1.00800           0
     10468 MEMB     38       SOPE     H14Y     HAL2     0.900000E-01   1.00800           0
     10469 MEMB     38       SOPE     C315     CTL2    -0.180000       12.0110           0
     10470 MEMB     38       SOPE     H15X     HAL2     0.900000E-01   1.00800           0
     10471 MEMB     38       SOPE     H15Y     HAL2     0.900000E-01   1.00800           0
     10472 MEMB     38       SOPE     C316     CTL2    -0.180000       12.0110           0
     10473 MEMB     38       SOPE     H16X     HAL2     0.900000E-01   1.00800           0
     10474 MEMB     38       SOPE     H16Y     HAL2     0.900000E-01   1.00800           0
     10475 MEMB     38       SOPE     C317     CTL2    -0.180000       12.0110           0
     10476 MEMB     38       SOPE     H17X     HAL2     0.900000E-01   1.00800           0
     10477 MEMB     38       SOPE     H17Y     HAL2     0.900000E-01   1.00800           0
     10478 MEMB     38       SOPE     C318     CTL3    -0.270000       12.0110           0
     10479 MEMB     38       SOPE     H18X     HAL3     0.900000E-01   1.00800           0
     10480 MEMB     38       SOPE     H18Y     HAL3     0.900000E-01   1.00800           0
     10481 MEMB     38       SOPE     H18Z     HAL3     0.900000E-01   1.00800           0
     10482 MEMB     60       SOPE     N        NH3L    -0.300000       14.0070           0
     10483 MEMB     60       SOPE     HN1      HCL      0.330000       1.00800           0
     10484 MEMB     60       SOPE     HN2      HCL      0.330000       1.00800           0
     10485 MEMB     60       SOPE     HN3      HCL      0.330000       1.00800           0
     10486 MEMB     60       SOPE     C12      CTL2     0.130000       12.0110           0
     10487 MEMB     60       SOPE     H12A     HAL2     0.900000E-01   1.00800           0
     10488 MEMB     60       SOPE     H12B     HAL2     0.900000E-01   1.00800           0
     10489 MEMB     60       SOPE     C11      CTL2    -0.800000E-01   12.0110           0
     10490 MEMB     60       SOPE     H11A     HAL2     0.900000E-01   1.00800           0
     10491 MEMB     60       SOPE     H11B     HAL2     0.900000E-01   1.00800           0
     10492 MEMB     60       SOPE     P        PL       1.500000       30.9740           0
     10493 MEMB     60       SOPE     O13      O2L     -0.780000       15.9994           0
     10494 MEMB     60       SOPE     O14      O2L     -0.780000       15.9994           0
     10495 MEMB     60       SOPE     O12      OSLP    -0.570000       15.9994           0
     10496 MEMB     60       SOPE     O11      OSLP    -0.570000       15.9994           0
     10497 MEMB     60       SOPE     C1       CTL2    -0.800000E-01   12.0110           0
     10498 MEMB     60       SOPE     HA       HAL2     0.900000E-01   1.00800           0
     10499 MEMB     60       SOPE     HB       HAL2     0.900000E-01   1.00800           0
     10500 MEMB     60       SOPE     C2       CTL1     0.170000       12.0110           0
     10501 MEMB     60       SOPE     HS       HAL1     0.900000E-01   1.00800           0
     10502 MEMB     60       SOPE     O21      OSL     -0.490000       15.9994           0
     10503 MEMB     60       SOPE     C21      CL       0.900000       12.0110           0
     10504 MEMB     60       SOPE     O22      OBL     -0.630000       15.9994           0
     10505 MEMB     60       SOPE     C22      CTL2    -0.220000       12.0110           0
     10506 MEMB     60       SOPE     H2R      HAL2     0.900000E-01   1.00800           0
     10507 MEMB     60       SOPE     H2S      HAL2     0.900000E-01   1.00800           0
     10508 MEMB     60       SOPE     C3       CTL2     0.800000E-01   12.0110           0
     10509 MEMB     60       SOPE     HX       HAL2     0.900000E-01   1.00800           0
     10510 MEMB     60       SOPE     HY       HAL2     0.900000E-01   1.00800           0
     10511 MEMB     60       SOPE     O31      OSL     -0.490000       15.9994           0
     10512 MEMB     60       SOPE     C31      CL       0.900000       12.0110           0
     10513 MEMB     60       SOPE     O32      OBL     -0.630000       15.9994           0
     10514 MEMB     60       SOPE     C32      CTL2    -0.220000       12.0110           0
     10515 MEMB     60       SOPE     H2X      HAL2     0.900000E-01   1.00800           0
     10516 MEMB     60       SOPE     H2Y      HAL2     0.900000E-01   1.00800           0
     10517 MEMB     60       SOPE     C23      CTL2    -0.180000       12.0110           0
     10518 MEMB     60       SOPE     H3R      HAL2     0.900000E-01   1.00800           0
     10519 MEMB     60       SOPE     H3S      HAL2     0.900000E-01   1.00800           0
     10520 MEMB     60       SOPE     C24      CTL2    -0.180000       12.0110           0
     10521 MEMB     60       SOPE     H4R      HAL2     0.900000E-01   1.00800           0
     10522 MEMB     60       SOPE     H4S      HAL2     0.900000E-01   1.00800           0
     10523 MEMB     60       SOPE     C25      CTL2    -0.180000       12.0110           0
     10524 MEMB     60       SOPE     H5R      HAL2     0.900000E-01   1.00800           0
     10525 MEMB     60       SOPE     H5S      HAL2     0.900000E-01   1.00800           0
     10526 MEMB     60       SOPE     C26      CTL2    -0.180000       12.0110           0
     10527 MEMB     60       SOPE     H6R      HAL2     0.900000E-01   1.00800           0
     10528 MEMB     60       SOPE     H6S      HAL2     0.900000E-01   1.00800           0
     10529 MEMB     60       SOPE     C27      CTL2    -0.180000       12.0110           0
     10530 MEMB     60       SOPE     H7R      HAL2     0.900000E-01   1.00800           0
     10531 MEMB     60       SOPE     H7S      HAL2     0.900000E-01   1.00800           0
     10532 MEMB     60       SOPE     C28      CTL2    -0.180000       12.0110           0
     10533 MEMB     60       SOPE     H8R      HAL2     0.900000E-01   1.00800           0
     10534 MEMB     60       SOPE     H8S      HAL2     0.900000E-01   1.00800           0
     10535 MEMB     60       SOPE     C29      CEL1    -0.150000       12.0110           0
     10536 MEMB     60       SOPE     H91      HEL1     0.150000       1.00800           0
     10537 MEMB     60       SOPE     C210     CEL1    -0.150000       12.0110           0
     10538 MEMB     60       SOPE     H101     HEL1     0.150000       1.00800           0
     10539 MEMB     60       SOPE     C211     CTL2    -0.180000       12.0110           0
     10540 MEMB     60       SOPE     H11R     HAL2     0.900000E-01   1.00800           0
     10541 MEMB     60       SOPE     H11S     HAL2     0.900000E-01   1.00800           0
     10542 MEMB     60       SOPE     C212     CTL2    -0.180000       12.0110           0
     10543 MEMB     60       SOPE     H12R     HAL2     0.900000E-01   1.00800           0
     10544 MEMB     60       SOPE     H12S     HAL2     0.900000E-01   1.00800           0
     10545 MEMB     60       SOPE     C213     CTL2    -0.180000       12.0110           0
     10546 MEMB     60       SOPE     H13R     HAL2     0.900000E-01   1.00800           0
     10547 MEMB     60       SOPE     H13S     HAL2     0.900000E-01   1.00800           0
     10548 MEMB     60       SOPE     C214     CTL2    -0.180000       12.0110           0
     10549 MEMB     60       SOPE     H14R     HAL2     0.900000E-01   1.00800           0
     10550 MEMB     60       SOPE     H14S     HAL2     0.900000E-01   1.00800           0
     10551 MEMB     60       SOPE     C215     CTL2    -0.180000       12.0110           0
     10552 MEMB     60       SOPE     H15R     HAL2     0.900000E-01   1.00800           0
     10553 MEMB     60       SOPE     H15S     HAL2     0.900000E-01   1.00800           0
     10554 MEMB     60       SOPE     C216     CTL2    -0.180000       12.0110           0
     10555 MEMB     60       SOPE     H16R     HAL2     0.900000E-01   1.00800           0
     10556 MEMB     60       SOPE     H16S     HAL2     0.900000E-01   1.00800           0
     10557 MEMB     60       SOPE     C217     CTL2    -0.180000       12.0110           0
     10558 MEMB     60       SOPE     H17R     HAL2     0.900000E-01   1.00800           0
     10559 MEMB     60       SOPE     H17S     HAL2     0.900000E-01   1.00800           0
     10560 MEMB     60       SOPE     C218     CTL3    -0.270000       12.0110           0
     10561 MEMB     60       SOPE     H18R     HAL3     0.900000E-01   1.00800           0
     10562 MEMB     60       SOPE     H18S     HAL3     0.900000E-01   1.00800           0
     10563 MEMB     60       SOPE     H18T     HAL3     0.900000E-01   1.00800           0
     10564 MEMB     60       SOPE     C33      CTL2    -0.180000       12.0110           0
     10565 MEMB     60       SOPE     H3X      HAL2     0.900000E-01   1.00800           0
     10566 MEMB     60       SOPE     H3Y      HAL2     0.900000E-01   1.00800           0
     10567 MEMB     60       SOPE     C34      CTL2    -0.180000       12.0110           0
     10568 MEMB     60       SOPE     H4X      HAL2     0.900000E-01   1.00800           0
     10569 MEMB     60       SOPE     H4Y      HAL2     0.900000E-01   1.00800           0
     10570 MEMB     60       SOPE     C35      CTL2    -0.180000       12.0110           0
     10571 MEMB     60       SOPE     H5X      HAL2     0.900000E-01   1.00800           0
     10572 MEMB     60       SOPE     H5Y      HAL2     0.900000E-01   1.00800           0
     10573 MEMB     60       SOPE     C36      CTL2    -0.180000       12.0110           0
     10574 MEMB     60       SOPE     H6X      HAL2     0.900000E-01   1.00800           0
     10575 MEMB     60       SOPE     H6Y      HAL2     0.900000E-01   1.00800           0
     10576 MEMB     60       SOPE     C37      CTL2    -0.180000       12.0110           0
     10577 MEMB     60       SOPE     H7X      HAL2     0.900000E-01   1.00800           0
     10578 MEMB     60       SOPE     H7Y      HAL2     0.900000E-01   1.00800           0
     10579 MEMB     60       SOPE     C38      CTL2    -0.180000       12.0110           0
     10580 MEMB     60       SOPE     H8X      HAL2     0.900000E-01   1.00800           0
     10581 MEMB     60       SOPE     H8Y      HAL2     0.900000E-01   1.00800           0
     10582 MEMB     60       SOPE     C39      CTL2    -0.180000       12.0110           0
     10583 MEMB     60       SOPE     H9X      HAL2     0.900000E-01   1.00800           0
     10584 MEMB     60       SOPE     H9Y      HAL2     0.900000E-01   1.00800           0
     10585 MEMB     60       SOPE     C310     CTL2    -0.180000       12.0110           0
     10586 MEMB     60       SOPE     H10X     HAL2     0.900000E-01   1.00800           0
     10587 MEMB     60       SOPE     H10Y     HAL2     0.900000E-01   1.00800           0
     10588 MEMB     60       SOPE     C311     CTL2    -0.180000       12.0110           0
     10589 MEMB     60       SOPE     H11X     HAL2     0.900000E-01   1.00800           0
     10590 MEMB     60       SOPE     H11Y     HAL2     0.900000E-01   1.00800           0
     10591 MEMB     60       SOPE     C312     CTL2    -0.180000       12.0110           0
     10592 MEMB     60       SOPE     H12X     HAL2     0.900000E-01   1.00800           0
     10593 MEMB     60       SOPE     H12Y     HAL2     0.900000E-01   1.00800           0
     10594 MEMB     60       SOPE     C313     CTL2    -0.180000       12.0110           0
     10595 MEMB     60       SOPE     H13X     HAL2     0.900000E-01   1.00800           0
     10596 MEMB     60       SOPE     H13Y     HAL2     0.900000E-01   1.00800           0
     10597 MEMB     60       SOPE     C314     CTL2    -0.180000       12.0110           0
     10598 MEMB     60       SOPE     H14X     HAL2     0.900000E-01   1.00800           0
     10599 MEMB     60       SOPE     H14Y     HAL2     0.900000E-01   1.00800           0
     10600 MEMB     60       SOPE     C315     CTL2    -0.180000       12.0110           0
     10601 MEMB     60       SOPE     H15X     HAL2     0.900000E-01   1.00800           0
     10602 MEMB     60       SOPE     H15Y     HAL2     0.900000E-01   1.00800           0
     10603 MEMB     60       SOPE     C316     CTL2    -0.180000       12.0110           0
     10604 MEMB     60       SOPE     H16X     HAL2     0.900000E-01   1.00800           0
     10605 MEMB     60       SOPE     H16Y     HAL2     0.900000E-01   1.00800           0
     10606 MEMB     60       SOPE     C317     CTL2    -0.180000       12.0110           0
     10607 MEMB     60       SOPE     H17X     HAL2     0.900000E-01   1.00800           0
     10608 MEMB     60       SOPE     H17Y     HAL2     0.900000E-01   1.00800           0
     10609 MEMB     60       SOPE     C318     CTL3    -0.270000       12.0110           0
     10610 MEMB     60       SOPE     H18X     HAL3     0.900000E-01   1.00800           0
     10611 MEMB     60       SOPE     H18Y     HAL3     0.900000E-01   1.00800           0
     10612 MEMB     60       SOPE     H18Z     HAL3     0.900000E-01   1.00800           0
     10613 MEMB     68       SOPE     N        NH3L    -0.300000       14.0070           0
     10614 MEMB     68       SOPE     HN1      HCL      0.330000       1.00800           0
     10615 MEMB     68       SOPE     HN2      HCL      0.330000       1.00800           0
     10616 MEMB     68       SOPE     HN3      HCL      0.330000       1.00800           0
     10617 MEMB     68       SOPE     C12      CTL2     0.130000       12.0110           0
     10618 MEMB     68       SOPE     H12A     HAL2     0.900000E-01   1.00800           0
     10619 MEMB     68       SOPE     H12B     HAL2     0.900000E-01   1.00800           0
     10620 MEMB     68       SOPE     C11      CTL2    -0.800000E-01   12.0110           0
     10621 MEMB     68       SOPE     H11A     HAL2     0.900000E-01   1.00800           0
     10622 MEMB     68       SOPE     H11B     HAL2     0.900000E-01   1.00800           0
     10623 MEMB     68       SOPE     P        PL       1.500000       30.9740           0
     10624 MEMB     68       SOPE     O13      O2L     -0.780000       15.9994           0
     10625 MEMB     68       SOPE     O14      O2L     -0.780000       15.9994           0
     10626 MEMB     68       SOPE     O12      OSLP    -0.570000       15.9994           0
     10627 MEMB     68       SOPE     O11      OSLP    -0.570000       15.9994           0
     10628 MEMB     68       SOPE     C1       CTL2    -0.800000E-01   12.0110           0
     10629 MEMB     68       SOPE     HA       HAL2     0.900000E-01   1.00800           0
     10630 MEMB     68       SOPE     HB       HAL2     0.900000E-01   1.00800           0
     10631 MEMB     68       SOPE     C2       CTL1     0.170000       12.0110           0
     10632 MEMB     68       SOPE     HS       HAL1     0.900000E-01   1.00800           0
     10633 MEMB     68       SOPE     O21      OSL     -0.490000       15.9994           0
     10634 MEMB     68       SOPE     C21      CL       0.900000       12.0110           0
     10635 MEMB     68       SOPE     O22      OBL     -0.630000       15.9994           0
     10636 MEMB     68       SOPE     C22      CTL2    -0.220000       12.0110           0
     10637 MEMB     68       SOPE     H2R      HAL2     0.900000E-01   1.00800           0
     10638 MEMB     68       SOPE     H2S      HAL2     0.900000E-01   1.00800           0
     10639 MEMB     68       SOPE     C3       CTL2     0.800000E-01   12.0110           0
     10640 MEMB     68       SOPE     HX       HAL2     0.900000E-01   1.00800           0
     10641 MEMB     68       SOPE     HY       HAL2     0.900000E-01   1.00800           0
     10642 MEMB     68       SOPE     O31      OSL     -0.490000       15.9994           0
     10643 MEMB     68       SOPE     C31      CL       0.900000       12.0110           0
     10644 MEMB     68       SOPE     O32      OBL     -0.630000       15.9994           0
     10645 MEMB     68       SOPE     C32      CTL2    -0.220000       12.0110           0
     10646 MEMB     68       SOPE     H2X      HAL2     0.900000E-01   1.00800           0
     10647 MEMB     68       SOPE     H2Y      HAL2     0.900000E-01   1.00800           0
     10648 MEMB     68       SOPE     C23      CTL2    -0.180000       12.0110           0
     10649 MEMB     68       SOPE     H3R      HAL2     0.900000E-01   1.00800           0
     10650 MEMB     68       SOPE     H3S      HAL2     0.900000E-01   1.00800           0
     10651 MEMB     68       SOPE     C24      CTL2    -0.180000       12.0110           0
     10652 MEMB     68       SOPE     H4R      HAL2     0.900000E-01   1.00800           0
     10653 MEMB     68       SOPE     H4S      HAL2     0.900000E-01   1.00800           0
     10654 MEMB     68       SOPE     C25      CTL2    -0.180000       12.0110           0
     10655 MEMB     68       SOPE     H5R      HAL2     0.900000E-01   1.00800           0
     10656 MEMB     68       SOPE     H5S      HAL2     0.900000E-01   1.00800           0
     10657 MEMB     68       SOPE     C26      CTL2    -0.180000       12.0110           0
     10658 MEMB     68       SOPE     H6R      HAL2     0.900000E-01   1.00800           0
     10659 MEMB     68       SOPE     H6S      HAL2     0.900000E-01   1.00800           0
     10660 MEMB     68       SOPE     C27      CTL2    -0.180000       12.0110           0
     10661 MEMB     68       SOPE     H7R      HAL2     0.900000E-01   1.00800           0
     10662 MEMB     68       SOPE     H7S      HAL2     0.900000E-01   1.00800           0
     10663 MEMB     68       SOPE     C28      CTL2    -0.180000       12.0110           0
     10664 MEMB     68       SOPE     H8R      HAL2     0.900000E-01   1.00800           0
     10665 MEMB     68       SOPE     H8S      HAL2     0.900000E-01   1.00800           0
     10666 MEMB     68       SOPE     C29      CEL1    -0.150000       12.0110           0
     10667 MEMB     68       SOPE     H91      HEL1     0.150000       1.00800           0
     10668 MEMB     68       SOPE     C210     CEL1    -0.150000       12.0110           0
     10669 MEMB     68       SOPE     H101     HEL1     0.150000       1.00800           0
     10670 MEMB     68       SOPE     C211     CTL2    -0.180000       12.0110           0
     10671 MEMB     68       SOPE     H11R     HAL2     0.900000E-01   1.00800           0
     10672 MEMB     68       SOPE     H11S     HAL2     0.900000E-01   1.00800           0
     10673 MEMB     68       SOPE     C212     CTL2    -0.180000       12.0110           0
     10674 MEMB     68       SOPE     H12R     HAL2     0.900000E-01   1.00800           0
     10675 MEMB     68       SOPE     H12S     HAL2     0.900000E-01   1.00800           0
     10676 MEMB     68       SOPE     C213     CTL2    -0.180000       12.0110           0
     10677 MEMB     68       SOPE     H13R     HAL2     0.900000E-01   1.00800           0
     10678 MEMB     68       SOPE     H13S     HAL2     0.900000E-01   1.00800           0
     10679 MEMB     68       SOPE     C214     CTL2    -0.180000       12.0110           0
     10680 MEMB     68       SOPE     H14R     HAL2     0.900000E-01   1.00800           0
     10681 MEMB     68       SOPE     H14S     HAL2     0.900000E-01   1.00800           0
     10682 MEMB     68       SOPE     C215     CTL2    -0.180000       12.0110           0
     10683 MEMB     68       SOPE     H15R     HAL2     0.900000E-01   1.00800           0
     10684 MEMB     68       SOPE     H15S     HAL2     0.900000E-01   1.00800           0
     10685 MEMB     68       SOPE     C216     CTL2    -0.180000       12.0110           0
     10686 MEMB     68       SOPE     H16R     HAL2     0.900000E-01   1.00800           0
     10687 MEMB     68       SOPE     H16S     HAL2     0.900000E-01   1.00800           0
     10688 MEMB     68       SOPE     C217     CTL2    -0.180000       12.0110           0
     10689 MEMB     68       SOPE     H17R     HAL2     0.900000E-01   1.00800           0
     10690 MEMB     68       SOPE     H17S     HAL2     0.900000E-01   1.00800           0
     10691 MEMB     68       SOPE     C218     CTL3    -0.270000       12.0110           0
     10692 MEMB     68       SOPE     H18R     HAL3     0.900000E-01   1.00800           0
     10693 MEMB     68       SOPE     H18S     HAL3     0.900000E-01   1.00800           0
     10694 MEMB     68       SOPE     H18T     HAL3     0.900000E-01   1.00800           0
     10695 MEMB     68       SOPE     C33      CTL2    -0.180000       12.0110           0
     10696 MEMB     68       SOPE     H3X      HAL2     0.900000E-01   1.00800           0
     10697 MEMB     68       SOPE     H3Y      HAL2     0.900000E-01   1.00800           0
     10698 MEMB     68       SOPE     C34      CTL2    -0.180000       12.0110           0
     10699 MEMB     68       SOPE     H4X      HAL2     0.900000E-01   1.00800           0
     10700 MEMB     68       SOPE     H4Y      HAL2     0.900000E-01   1.00800           0
     10701 MEMB     68       SOPE     C35      CTL2    -0.180000       12.0110           0
     10702 MEMB     68       SOPE     H5X      HAL2     0.900000E-01   1.00800           0
     10703 MEMB     68       SOPE     H5Y      HAL2     0.900000E-01   1.00800           0
     10704 MEMB     68       SOPE     C36      CTL2    -0.180000       12.0110           0
     10705 MEMB     68       SOPE     H6X      HAL2     0.900000E-01   1.00800           0
     10706 MEMB     68       SOPE     H6Y      HAL2     0.900000E-01   1.00800           0
     10707 MEMB     68       SOPE     C37      CTL2    -0.180000       12.0110           0
     10708 MEMB     68       SOPE     H7X      HAL2     0.900000E-01   1.00800           0
     10709 MEMB     68       SOPE     H7Y      HAL2     0.900000E-01   1.00800           0
     10710 MEMB     68       SOPE     C38      CTL2    -0.180000       12.0110           0
     10711 MEMB     68       SOPE     H8X      HAL2     0.900000E-01   1.00800           0
     10712 MEMB     68       SOPE     H8Y      HAL2     0.900000E-01   1.00800           0
     10713 MEMB     68       SOPE     C39      CTL2    -0.180000       12.0110           0
     10714 MEMB     68       SOPE     H9X      HAL2     0.900000E-01   1.00800           0
     10715 MEMB     68       SOPE     H9Y      HAL2     0.900000E-01   1.00800           0
     10716 MEMB     68       SOPE     C310     CTL2    -0.180000       12.0110           0
     10717 MEMB     68       SOPE     H10X     HAL2     0.900000E-01   1.00800           0
     10718 MEMB     68       SOPE     H10Y     HAL2     0.900000E-01   1.00800           0
     10719 MEMB     68       SOPE     C311     CTL2    -0.180000       12.0110           0
     10720 MEMB     68       SOPE     H11X     HAL2     0.900000E-01   1.00800           0
     10721 MEMB     68       SOPE     H11Y     HAL2     0.900000E-01   1.00800           0
     10722 MEMB     68       SOPE     C312     CTL2    -0.180000       12.0110           0
     10723 MEMB     68       SOPE     H12X     HAL2     0.900000E-01   1.00800           0
     10724 MEMB     68       SOPE     H12Y     HAL2     0.900000E-01   1.00800           0
     10725 MEMB     68       SOPE     C313     CTL2    -0.180000       12.0110           0
     10726 MEMB     68       SOPE     H13X     HAL2     0.900000E-01   1.00800           0
     10727 MEMB     68       SOPE     H13Y     HAL2     0.900000E-01   1.00800           0
     10728 MEMB     68       SOPE     C314     CTL2    -0.180000       12.0110           0
     10729 MEMB     68       SOPE     H14X     HAL2     0.900000E-01   1.00800           0
     10730 MEMB     68       SOPE     H14Y     HAL2     0.900000E-01   1.00800           0
     10731 MEMB     68       SOPE     C315     CTL2    -0.180000       12.0110           0
     10732 MEMB     68       SOPE     H15X     HAL2     0.900000E-01   1.00800           0
     10733 MEMB     68       SOPE     H15Y     HAL2     0.900000E-01   1.00800           0
     10734 MEMB     68       SOPE     C316     CTL2    -0.180000       12.0110           0
     10735 MEMB     68       SOPE     H16X     HAL2     0.900000E-01   1.00800           0
     10736 MEMB     68       SOPE     H16Y     HAL2     0.900000E-01   1.00800           0
     10737 MEMB     68       SOPE     C317     CTL2    -0.180000       12.0110           0
     10738 MEMB     68       SOPE     H17X     HAL2     0.900000E-01   1.00800           0
     10739 MEMB     68       SOPE     H17Y     HAL2     0.900000E-01   1.00800           0
     10740 MEMB     68       SOPE     C318     CTL3    -0.270000       12.0110           0
     10741 MEMB     68       SOPE     H18X     HAL3     0.900000E-01   1.00800           0
     10742 MEMB     68       SOPE     H18Y     HAL3     0.900000E-01   1.00800           0
     10743 MEMB     68       SOPE     H18Z     HAL3     0.900000E-01   1.00800           0
     10744 MEMB     83       SOPE     N        NH3L    -0.300000       14.0070           0
     10745 MEMB     83       SOPE     HN1      HCL      0.330000       1.00800           0
     10746 MEMB     83       SOPE     HN2      HCL      0.330000       1.00800           0
     10747 MEMB     83       SOPE     HN3      HCL      0.330000       1.00800           0
     10748 MEMB     83       SOPE     C12      CTL2     0.130000       12.0110           0
     10749 MEMB     83       SOPE     H12A     HAL2     0.900000E-01   1.00800           0
     10750 MEMB     83       SOPE     H12B     HAL2     0.900000E-01   1.00800           0
     10751 MEMB     83       SOPE     C11      CTL2    -0.800000E-01   12.0110           0
     10752 MEMB     83       SOPE     H11A     HAL2     0.900000E-01   1.00800           0
     10753 MEMB     83       SOPE     H11B     HAL2     0.900000E-01   1.00800           0
     10754 MEMB     83       SOPE     P        PL       1.500000       30.9740           0
     10755 MEMB     83       SOPE     O13      O2L     -0.780000       15.9994           0
     10756 MEMB     83       SOPE     O14      O2L     -0.780000       15.9994           0
     10757 MEMB     83       SOPE     O12      OSLP    -0.570000       15.9994           0
     10758 MEMB     83       SOPE     O11      OSLP    -0.570000       15.9994           0
     10759 MEMB     83       SOPE     C1       CTL2    -0.800000E-01   12.0110           0
     10760 MEMB     83       SOPE     HA       HAL2     0.900000E-01   1.00800           0
     10761 MEMB     83       SOPE     HB       HAL2     0.900000E-01   1.00800           0
     10762 MEMB     83       SOPE     C2       CTL1     0.170000       12.0110           0
     10763 MEMB     83       SOPE     HS       HAL1     0.900000E-01   1.00800           0
     10764 MEMB     83       SOPE     O21      OSL     -0.490000       15.9994           0
     10765 MEMB     83       SOPE     C21      CL       0.900000       12.0110           0
     10766 MEMB     83       SOPE     O22      OBL     -0.630000       15.9994           0
     10767 MEMB     83       SOPE     C22      CTL2    -0.220000       12.0110           0
     10768 MEMB     83       SOPE     H2R      HAL2     0.900000E-01   1.00800           0
     10769 MEMB     83       SOPE     H2S      HAL2     0.900000E-01   1.00800           0
     10770 MEMB     83       SOPE     C3       CTL2     0.800000E-01   12.0110           0
     10771 MEMB     83       SOPE     HX       HAL2     0.900000E-01   1.00800           0
     10772 MEMB     83       SOPE     HY       HAL2     0.900000E-01   1.00800           0
     10773 MEMB     83       SOPE     O31      OSL     -0.490000       15.9994           0
     10774 MEMB     83       SOPE     C31      CL       0.900000       12.0110           0
     10775 MEMB     83       SOPE     O32      OBL     -0.630000       15.9994           0
     10776 MEMB     83       SOPE     C32      CTL2    -0.220000       12.0110           0
     10777 MEMB     83       SOPE     H2X      HAL2     0.900000E-01   1.00800           0
     10778 MEMB     83       SOPE     H2Y      HAL2     0.900000E-01   1.00800           0
     10779 MEMB     83       SOPE     C23      CTL2    -0.180000       12.0110           0
     10780 MEMB     83       SOPE     H3R      HAL2     0.900000E-01   1.00800           0
     10781 MEMB     83       SOPE     H3S      HAL2     0.900000E-01   1.00800           0
     10782 MEMB     83       SOPE     C24      CTL2    -0.180000       12.0110           0
     10783 MEMB     83       SOPE     H4R      HAL2     0.900000E-01   1.00800           0
     10784 MEMB     83       SOPE     H4S      HAL2     0.900000E-01   1.00800           0
     10785 MEMB     83       SOPE     C25      CTL2    -0.180000       12.0110           0
     10786 MEMB     83       SOPE     H5R      HAL2     0.900000E-01   1.00800           0
     10787 MEMB     83       SOPE     H5S      HAL2     0.900000E-01   1.00800           0
     10788 MEMB     83       SOPE     C26      CTL2    -0.180000       12.0110           0
     10789 MEMB     83       SOPE     H6R      HAL2     0.900000E-01   1.00800           0
     10790 MEMB     83       SOPE     H6S      HAL2     0.900000E-01   1.00800           0
     10791 MEMB     83       SOPE     C27      CTL2    -0.180000       12.0110           0
     10792 MEMB     83       SOPE     H7R      HAL2     0.900000E-01   1.00800           0
     10793 MEMB     83       SOPE     H7S      HAL2     0.900000E-01   1.00800           0
     10794 MEMB     83       SOPE     C28      CTL2    -0.180000       12.0110           0
     10795 MEMB     83       SOPE     H8R      HAL2     0.900000E-01   1.00800           0
     10796 MEMB     83       SOPE     H8S      HAL2     0.900000E-01   1.00800           0
     10797 MEMB     83       SOPE     C29      CEL1    -0.150000       12.0110           0
     10798 MEMB     83       SOPE     H91      HEL1     0.150000       1.00800           0
     10799 MEMB     83       SOPE     C210     CEL1    -0.150000       12.0110           0
     10800 MEMB     83       SOPE     H101     HEL1     0.150000       1.00800           0
     10801 MEMB     83       SOPE     C211     CTL2    -0.180000       12.0110           0
     10802 MEMB     83       SOPE     H11R     HAL2     0.900000E-01   1.00800           0
     10803 MEMB     83       SOPE     H11S     HAL2     0.900000E-01   1.00800           0
     10804 MEMB     83       SOPE     C212     CTL2    -0.180000       12.0110           0
     10805 MEMB     83       SOPE     H12R     HAL2     0.900000E-01   1.00800           0
     10806 MEMB     83       SOPE     H12S     HAL2     0.900000E-01   1.00800           0
     10807 MEMB     83       SOPE     C213     CTL2    -0.180000       12.0110           0
     10808 MEMB     83       SOPE     H13R     HAL2     0.900000E-01   1.00800           0
     10809 MEMB     83       SOPE     H13S     HAL2     0.900000E-01   1.00800           0
     10810 MEMB     83       SOPE     C214     CTL2    -0.180000       12.0110           0
     10811 MEMB     83       SOPE     H14R     HAL2     0.900000E-01   1.00800           0
     10812 MEMB     83       SOPE     H14S     HAL2     0.900000E-01   1.00800           0
     10813 MEMB     83       SOPE     C215     CTL2    -0.180000       12.0110           0
     10814 MEMB     83       SOPE     H15R     HAL2     0.900000E-01   1.00800           0
     10815 MEMB     83       SOPE     H15S     HAL2     0.900000E-01   1.00800           0
     10816 MEMB     83       SOPE     C216     CTL2    -0.180000       12.0110           0
     10817 MEMB     83       SOPE     H16R     HAL2     0.900000E-01   1.00800           0
     10818 MEMB     83       SOPE     H16S     HAL2     0.900000E-01   1.00800           0
     10819 MEMB     83       SOPE     C217     CTL2    -0.180000       12.0110           0
     10820 MEMB     83       SOPE     H17R     HAL2     0.900000E-01   1.00800           0
     10821 MEMB     83       SOPE     H17S     HAL2     0.900000E-01   1.00800           0
     10822 MEMB     83       SOPE     C218     CTL3    -0.270000       12.0110           0
     10823 MEMB     83       SOPE     H18R     HAL3     0.900000E-01   1.00800           0
     10824 MEMB     83       SOPE     H18S     HAL3     0.900000E-01   1.00800           0
     10825 MEMB     83       SOPE     H18T     HAL3     0.900000E-01   1.00800           0
     10826 MEMB     83       SOPE     C33      CTL2    -0.180000       12.0110           0
     10827 MEMB     83       SOPE     H3X      HAL2     0.900000E-01   1.00800           0
     10828 MEMB     83       SOPE     H3Y      HAL2     0.900000E-01   1.00800           0
     10829 MEMB     83       SOPE     C34      CTL2    -0.180000       12.0110           0
     10830 MEMB     83       SOPE     H4X      HAL2     0.900000E-01   1.00800           0
     10831 MEMB     83       SOPE     H4Y      HAL2     0.900000E-01   1.00800           0
     10832 MEMB     83       SOPE     C35      CTL2    -0.180000       12.0110           0
     10833 MEMB     83       SOPE     H5X      HAL2     0.900000E-01   1.00800           0
     10834 MEMB     83       SOPE     H5Y      HAL2     0.900000E-01   1.00800           0
     10835 MEMB     83       SOPE     C36      CTL2    -0.180000       12.0110           0
     10836 MEMB     83       SOPE     H6X      HAL2     0.900000E-01   1.00800           0
     10837 MEMB     83       SOPE     H6Y      HAL2     0.900000E-01   1.00800           0
     10838 MEMB     83       SOPE     C37      CTL2    -0.180000       12.0110           0
     10839 MEMB     83       SOPE     H7X      HAL2     0.900000E-01   1.00800           0
     10840 MEMB     83       SOPE     H7Y      HAL2     0.900000E-01   1.00800           0
     10841 MEMB     83       SOPE     C38      CTL2    -0.180000       12.0110           0
     10842 MEMB     83       SOPE     H8X      HAL2     0.900000E-01   1.00800           0
     10843 MEMB     83       SOPE     H8Y      HAL2     0.900000E-01   1.00800           0
     10844 MEMB     83       SOPE     C39      CTL2    -0.180000       12.0110           0
     10845 MEMB     83       SOPE     H9X      HAL2     0.900000E-01   1.00800           0
     10846 MEMB     83       SOPE     H9Y      HAL2     0.900000E-01   1.00800           0
     10847 MEMB     83       SOPE     C310     CTL2    -0.180000       12.0110           0
     10848 MEMB     83       SOPE     H10X     HAL2     0.900000E-01   1.00800           0
     10849 MEMB     83       SOPE     H10Y     HAL2     0.900000E-01   1.00800           0
     10850 MEMB     83       SOPE     C311     CTL2    -0.180000       12.0110           0
     10851 MEMB     83       SOPE     H11X     HAL2     0.900000E-01   1.00800           0
     10852 MEMB     83       SOPE     H11Y     HAL2     0.900000E-01   1.00800           0
     10853 MEMB     83       SOPE     C312     CTL2    -0.180000       12.0110           0
     10854 MEMB     83       SOPE     H12X     HAL2     0.900000E-01   1.00800           0
     10855 MEMB     83       SOPE     H12Y     HAL2     0.900000E-01   1.00800           0
     10856 MEMB     83       SOPE     C313     CTL2    -0.180000       12.0110           0
     10857 MEMB     83       SOPE     H13X     HAL2     0.900000E-01   1.00800           0
     10858 MEMB     83       SOPE     H13Y     HAL2     0.900000E-01   1.00800           0
     10859 MEMB     83       SOPE     C314     CTL2    -0.180000       12.0110           0
     10860 MEMB     83       SOPE     H14X     HAL2     0.900000E-01   1.00800           0
     10861 MEMB     83       SOPE     H14Y     HAL2     0.900000E-01   1.00800           0
     10862 MEMB     83       SOPE     C315     CTL2    -0.180000       12.0110           0
     10863 MEMB     83       SOPE     H15X     HAL2     0.900000E-01   1.00800           0
     10864 MEMB     83       SOPE     H15Y     HAL2     0.900000E-01   1.00800           0
     10865 MEMB     83       SOPE     C316     CTL2    -0.180000       12.0110           0
     10866 MEMB     83       SOPE     H16X     HAL2     0.900000E-01   1.00800           0
     10867 MEMB     83       SOPE     H16Y     HAL2     0.900000E-01   1.00800           0
     10868 MEMB     83       SOPE     C317     CTL2    -0.180000       12.0110           0
     10869 MEMB     83       SOPE     H17X     HAL2     0.900000E-01   1.00800           0
     10870 MEMB     83       SOPE     H17Y     HAL2     0.900000E-01   1.00800           0
     10871 MEMB     83       SOPE     C318     CTL3    -0.270000       12.0110           0
     10872 MEMB     83       SOPE     H18X     HAL3     0.900000E-01   1.00800           0
     10873 MEMB     83       SOPE     H18Y     HAL3     0.900000E-01   1.00800           0
     10874 MEMB     83       SOPE     H18Z     HAL3     0.900000E-01   1.00800           0
     10875 MEMB     40       SAPI     C12      CC3161   0.140000       12.0110           0
     10876 MEMB     40       SAPI     H2       HCA1     0.900000E-01   1.00800           0
     10877 MEMB     40       SAPI     O2       OC311   -0.650000       15.9994           0
     10878 MEMB     40       SAPI     HO2      HCP1     0.420000       1.00800           0
     10879 MEMB     40       SAPI     C13      CC3161   0.140000       12.0110           0
     10880 MEMB     40       SAPI     H3       HCA1     0.900000E-01   1.00800           0
     10881 MEMB     40       SAPI     O3       OC311   -0.650000       15.9994           0
     10882 MEMB     40       SAPI     HO3      HCP1     0.420000       1.00800           0
     10883 MEMB     40       SAPI     C14      CC3161   0.140000       12.0110           0
     10884 MEMB     40       SAPI     H4       HCA1     0.900000E-01   1.00800           0
     10885 MEMB     40       SAPI     O4       OC311   -0.650000       15.9994           0
     10886 MEMB     40       SAPI     HO4      HCP1     0.420000       1.00800           0
     10887 MEMB     40       SAPI     C15      CC3161   0.140000       12.0110           0
     10888 MEMB     40       SAPI     H5       HCA1     0.900000E-01   1.00800           0
     10889 MEMB     40       SAPI     O5       OC311   -0.650000       15.9994           0
     10890 MEMB     40       SAPI     HO5      HCP1     0.420000       1.00800           0
     10891 MEMB     40       SAPI     C16      CC3161   0.140000       12.0110           0
     10892 MEMB     40       SAPI     H6       HCA1     0.900000E-01   1.00800           0
     10893 MEMB     40       SAPI     O6       OC311   -0.650000       15.9994           0
     10894 MEMB     40       SAPI     HO6      HCP1     0.420000       1.00800           0
     10895 MEMB     40       SAPI     C11      CC3161  -0.800000E-01   12.0110           0
     10896 MEMB     40       SAPI     H1       HCA1     0.900000E-01   1.00800           0
     10897 MEMB     40       SAPI     P        PL       1.590000       30.9740           0
     10898 MEMB     40       SAPI     O13      O2L     -0.780000       15.9994           0
     10899 MEMB     40       SAPI     O14      O2L     -0.780000       15.9994           0
     10900 MEMB     40       SAPI     O12      OC30P   -0.570000       15.9994           0
     10901 MEMB     40       SAPI     O11      OSLP    -0.570000       15.9994           0
     10902 MEMB     40       SAPI     C1       CTL2    -0.800000E-01   12.0110           0
     10903 MEMB     40       SAPI     HA       HAL2     0.900000E-01   1.00800           0
     10904 MEMB     40       SAPI     HB       HAL2     0.900000E-01   1.00800           0
     10905 MEMB     40       SAPI     C2       CTL1     0.170000       12.0110           0
     10906 MEMB     40       SAPI     HS       HAL1     0.900000E-01   1.00800           0
     10907 MEMB     40       SAPI     O21      OSL     -0.490000       15.9994           0
     10908 MEMB     40       SAPI     C21      CL       0.900000       12.0110           0
     10909 MEMB     40       SAPI     O22      OBL     -0.630000       15.9994           0
     10910 MEMB     40       SAPI     C22      CTL2    -0.220000       12.0110           0
     10911 MEMB     40       SAPI     H2R      HAL2     0.900000E-01   1.00800           0
     10912 MEMB     40       SAPI     H2S      HAL2     0.900000E-01   1.00800           0
     10913 MEMB     40       SAPI     C3       CTL2     0.800000E-01   12.0110           0
     10914 MEMB     40       SAPI     HX       HAL2     0.900000E-01   1.00800           0
     10915 MEMB     40       SAPI     HY       HAL2     0.900000E-01   1.00800           0
     10916 MEMB     40       SAPI     O31      OSL     -0.490000       15.9994           0
     10917 MEMB     40       SAPI     C31      CL       0.900000       12.0110           0
     10918 MEMB     40       SAPI     O32      OBL     -0.630000       15.9994           0
     10919 MEMB     40       SAPI     C32      CTL2    -0.220000       12.0110           0
     10920 MEMB     40       SAPI     H2X      HAL2     0.900000E-01   1.00800           0
     10921 MEMB     40       SAPI     H2Y      HAL2     0.900000E-01   1.00800           0
     10922 MEMB     40       SAPI     C23      CTL2    -0.180000       12.0110           0
     10923 MEMB     40       SAPI     H3R      HAL2     0.900000E-01   1.00800           0
     10924 MEMB     40       SAPI     H3S      HAL2     0.900000E-01   1.00800           0
     10925 MEMB     40       SAPI     C24      CTL2    -0.180000       12.0110           0
     10926 MEMB     40       SAPI     H4R      HAL2     0.900000E-01   1.00800           0
     10927 MEMB     40       SAPI     H4S      HAL2     0.900000E-01   1.00800           0
     10928 MEMB     40       SAPI     C25      CEL1    -0.150000       12.0110           0
     10929 MEMB     40       SAPI     H5R      HEL1     0.150000       1.00800           0
     10930 MEMB     40       SAPI     C26      CEL1    -0.150000       12.0110           0
     10931 MEMB     40       SAPI     H6R      HEL1     0.150000       1.00800           0
     10932 MEMB     40       SAPI     C27      CTL2    -0.180000       12.0110           0
     10933 MEMB     40       SAPI     H7R      HAL2     0.900000E-01   1.00800           0
     10934 MEMB     40       SAPI     H7S      HAL2     0.900000E-01   1.00800           0
     10935 MEMB     40       SAPI     C28      CEL1    -0.150000       12.0110           0
     10936 MEMB     40       SAPI     H8R      HEL1     0.150000       1.00800           0
     10937 MEMB     40       SAPI     C29      CEL1    -0.150000       12.0110           0
     10938 MEMB     40       SAPI     H9R      HEL1     0.150000       1.00800           0
     10939 MEMB     40       SAPI     C210     CTL2    -0.180000       12.0110           0
     10940 MEMB     40       SAPI     H10R     HAL2     0.900000E-01   1.00800           0
     10941 MEMB     40       SAPI     H10S     HAL2     0.900000E-01   1.00800           0
     10942 MEMB     40       SAPI     C211     CEL1    -0.150000       12.0110           0
     10943 MEMB     40       SAPI     H11R     HEL1     0.150000       1.00800           0
     10944 MEMB     40       SAPI     C212     CEL1    -0.150000       12.0110           0
     10945 MEMB     40       SAPI     H12R     HEL1     0.150000       1.00800           0
     10946 MEMB     40       SAPI     C213     CTL2    -0.180000       12.0110           0
     10947 MEMB     40       SAPI     H13R     HAL2     0.900000E-01   1.00800           0
     10948 MEMB     40       SAPI     H13S     HAL2     0.900000E-01   1.00800           0
     10949 MEMB     40       SAPI     C214     CEL1    -0.150000       12.0110           0
     10950 MEMB     40       SAPI     H14R     HEL1     0.150000       1.00800           0
     10951 MEMB     40       SAPI     C215     CEL1    -0.150000       12.0110           0
     10952 MEMB     40       SAPI     H15R     HEL1     0.150000       1.00800           0
     10953 MEMB     40       SAPI     C216     CTL2    -0.180000       12.0110           0
     10954 MEMB     40       SAPI     H16R     HAL2     0.900000E-01   1.00800           0
     10955 MEMB     40       SAPI     H16S     HAL2     0.900000E-01   1.00800           0
     10956 MEMB     40       SAPI     C217     CTL2    -0.180000       12.0110           0
     10957 MEMB     40       SAPI     H17R     HAL2     0.900000E-01   1.00800           0
     10958 MEMB     40       SAPI     H17S     HAL2     0.900000E-01   1.00800           0
     10959 MEMB     40       SAPI     C218     CTL2    -0.180000       12.0110           0
     10960 MEMB     40       SAPI     H18R     HAL2     0.900000E-01   1.00800           0
     10961 MEMB     40       SAPI     H18S     HAL2     0.900000E-01   1.00800           0
     10962 MEMB     40       SAPI     C219     CTL2    -0.180000       12.0110           0
     10963 MEMB     40       SAPI     H19R     HAL2     0.900000E-01   1.00800           0
     10964 MEMB     40       SAPI     H19S     HAL2     0.900000E-01   1.00800           0
     10965 MEMB     40       SAPI     C220     CTL3    -0.270000       12.0110           0
     10966 MEMB     40       SAPI     H20R     HAL3     0.900000E-01   1.00800           0
     10967 MEMB     40       SAPI     H20S     HAL3     0.900000E-01   1.00800           0
     10968 MEMB     40       SAPI     H20T     HAL3     0.900000E-01   1.00800           0
     10969 MEMB     40       SAPI     C33      CTL2    -0.180000       12.0110           0
     10970 MEMB     40       SAPI     H3X      HAL2     0.900000E-01   1.00800           0
     10971 MEMB     40       SAPI     H3Y      HAL2     0.900000E-01   1.00800           0
     10972 MEMB     40       SAPI     C34      CTL2    -0.180000       12.0110           0
     10973 MEMB     40       SAPI     H4X      HAL2     0.900000E-01   1.00800           0
     10974 MEMB     40       SAPI     H4Y      HAL2     0.900000E-01   1.00800           0
     10975 MEMB     40       SAPI     C35      CTL2    -0.180000       12.0110           0
     10976 MEMB     40       SAPI     H5X      HAL2     0.900000E-01   1.00800           0
     10977 MEMB     40       SAPI     H5Y      HAL2     0.900000E-01   1.00800           0
     10978 MEMB     40       SAPI     C36      CTL2    -0.180000       12.0110           0
     10979 MEMB     40       SAPI     H6X      HAL2     0.900000E-01   1.00800           0
     10980 MEMB     40       SAPI     H6Y      HAL2     0.900000E-01   1.00800           0
     10981 MEMB     40       SAPI     C37      CTL2    -0.180000       12.0110           0
     10982 MEMB     40       SAPI     H7X      HAL2     0.900000E-01   1.00800           0
     10983 MEMB     40       SAPI     H7Y      HAL2     0.900000E-01   1.00800           0
     10984 MEMB     40       SAPI     C38      CTL2    -0.180000       12.0110           0
     10985 MEMB     40       SAPI     H8X      HAL2     0.900000E-01   1.00800           0
     10986 MEMB     40       SAPI     H8Y      HAL2     0.900000E-01   1.00800           0
     10987 MEMB     40       SAPI     C39      CTL2    -0.180000       12.0110           0
     10988 MEMB     40       SAPI     H9X      HAL2     0.900000E-01   1.00800           0
     10989 MEMB     40       SAPI     H9Y      HAL2     0.900000E-01   1.00800           0
     10990 MEMB     40       SAPI     C310     CTL2    -0.180000       12.0110           0
     10991 MEMB     40       SAPI     H10X     HAL2     0.900000E-01   1.00800           0
     10992 MEMB     40       SAPI     H10Y     HAL2     0.900000E-01   1.00800           0
     10993 MEMB     40       SAPI     C311     CTL2    -0.180000       12.0110           0
     10994 MEMB     40       SAPI     H11X     HAL2     0.900000E-01   1.00800           0
     10995 MEMB     40       SAPI     H11Y     HAL2     0.900000E-01   1.00800           0
     10996 MEMB     40       SAPI     C312     CTL2    -0.180000       12.0110           0
     10997 MEMB     40       SAPI     H12X     HAL2     0.900000E-01   1.00800           0
     10998 MEMB     40       SAPI     H12Y     HAL2     0.900000E-01   1.00800           0
     10999 MEMB     40       SAPI     C313     CTL2    -0.180000       12.0110           0
     11000 MEMB     40       SAPI     H13X     HAL2     0.900000E-01   1.00800           0
     11001 MEMB     40       SAPI     H13Y     HAL2     0.900000E-01   1.00800           0
     11002 MEMB     40       SAPI     C314     CTL2    -0.180000       12.0110           0
     11003 MEMB     40       SAPI     H14X     HAL2     0.900000E-01   1.00800           0
     11004 MEMB     40       SAPI     H14Y     HAL2     0.900000E-01   1.00800           0
     11005 MEMB     40       SAPI     C315     CTL2    -0.180000       12.0110           0
     11006 MEMB     40       SAPI     H15X     HAL2     0.900000E-01   1.00800           0
     11007 MEMB     40       SAPI     H15Y     HAL2     0.900000E-01   1.00800           0
     11008 MEMB     40       SAPI     C316     CTL2    -0.180000       12.0110           0
     11009 MEMB     40       SAPI     H16X     HAL2     0.900000E-01   1.00800           0
     11010 MEMB     40       SAPI     H16Y     HAL2     0.900000E-01   1.00800           0
     11011 MEMB     40       SAPI     C317     CTL2    -0.180000       12.0110           0
     11012 MEMB     40       SAPI     H17X     HAL2     0.900000E-01   1.00800           0
     11013 MEMB     40       SAPI     H17Y     HAL2     0.900000E-01   1.00800           0
     11014 MEMB     40       SAPI     C318     CTL3    -0.270000       12.0110           0
     11015 MEMB     40       SAPI     H18X     HAL3     0.900000E-01   1.00800           0
     11016 MEMB     40       SAPI     H18Y     HAL3     0.900000E-01   1.00800           0
     11017 MEMB     40       SAPI     H18Z     HAL3     0.900000E-01   1.00800           0
     11018 MEMB     81       SAPI     C12      CC3161   0.140000       12.0110           0
     11019 MEMB     81       SAPI     H2       HCA1     0.900000E-01   1.00800           0
     11020 MEMB     81       SAPI     O2       OC311   -0.650000       15.9994           0
     11021 MEMB     81       SAPI     HO2      HCP1     0.420000       1.00800           0
     11022 MEMB     81       SAPI     C13      CC3161   0.140000       12.0110           0
     11023 MEMB     81       SAPI     H3       HCA1     0.900000E-01   1.00800           0
     11024 MEMB     81       SAPI     O3       OC311   -0.650000       15.9994           0
     11025 MEMB     81       SAPI     HO3      HCP1     0.420000       1.00800           0
     11026 MEMB     81       SAPI     C14      CC3161   0.140000       12.0110           0
     11027 MEMB     81       SAPI     H4       HCA1     0.900000E-01   1.00800           0
     11028 MEMB     81       SAPI     O4       OC311   -0.650000       15.9994           0
     11029 MEMB     81       SAPI     HO4      HCP1     0.420000       1.00800           0
     11030 MEMB     81       SAPI     C15      CC3161   0.140000       12.0110           0
     11031 MEMB     81       SAPI     H5       HCA1     0.900000E-01   1.00800           0
     11032 MEMB     81       SAPI     O5       OC311   -0.650000       15.9994           0
     11033 MEMB     81       SAPI     HO5      HCP1     0.420000       1.00800           0
     11034 MEMB     81       SAPI     C16      CC3161   0.140000       12.0110           0
     11035 MEMB     81       SAPI     H6       HCA1     0.900000E-01   1.00800           0
     11036 MEMB     81       SAPI     O6       OC311   -0.650000       15.9994           0
     11037 MEMB     81       SAPI     HO6      HCP1     0.420000       1.00800           0
     11038 MEMB     81       SAPI     C11      CC3161  -0.800000E-01   12.0110           0
     11039 MEMB     81       SAPI     H1       HCA1     0.900000E-01   1.00800           0
     11040 MEMB     81       SAPI     P        PL       1.590000       30.9740           0
     11041 MEMB     81       SAPI     O13      O2L     -0.780000       15.9994           0
     11042 MEMB     81       SAPI     O14      O2L     -0.780000       15.9994           0
     11043 MEMB     81       SAPI     O12      OC30P   -0.570000       15.9994           0
     11044 MEMB     81       SAPI     O11      OSLP    -0.570000       15.9994           0
     11045 MEMB     81       SAPI     C1       CTL2    -0.800000E-01   12.0110           0
     11046 MEMB     81       SAPI     HA       HAL2     0.900000E-01   1.00800           0
     11047 MEMB     81       SAPI     HB       HAL2     0.900000E-01   1.00800           0
     11048 MEMB     81       SAPI     C2       CTL1     0.170000       12.0110           0
     11049 MEMB     81       SAPI     HS       HAL1     0.900000E-01   1.00800           0
     11050 MEMB     81       SAPI     O21      OSL     -0.490000       15.9994           0
     11051 MEMB     81       SAPI     C21      CL       0.900000       12.0110           0
     11052 MEMB     81       SAPI     O22      OBL     -0.630000       15.9994           0
     11053 MEMB     81       SAPI     C22      CTL2    -0.220000       12.0110           0
     11054 MEMB     81       SAPI     H2R      HAL2     0.900000E-01   1.00800           0
     11055 MEMB     81       SAPI     H2S      HAL2     0.900000E-01   1.00800           0
     11056 MEMB     81       SAPI     C3       CTL2     0.800000E-01   12.0110           0
     11057 MEMB     81       SAPI     HX       HAL2     0.900000E-01   1.00800           0
     11058 MEMB     81       SAPI     HY       HAL2     0.900000E-01   1.00800           0
     11059 MEMB     81       SAPI     O31      OSL     -0.490000       15.9994           0
     11060 MEMB     81       SAPI     C31      CL       0.900000       12.0110           0
     11061 MEMB     81       SAPI     O32      OBL     -0.630000       15.9994           0
     11062 MEMB     81       SAPI     C32      CTL2    -0.220000       12.0110           0
     11063 MEMB     81       SAPI     H2X      HAL2     0.900000E-01   1.00800           0
     11064 MEMB     81       SAPI     H2Y      HAL2     0.900000E-01   1.00800           0
     11065 MEMB     81       SAPI     C23      CTL2    -0.180000       12.0110           0
     11066 MEMB     81       SAPI     H3R      HAL2     0.900000E-01   1.00800           0
     11067 MEMB     81       SAPI     H3S      HAL2     0.900000E-01   1.00800           0
     11068 MEMB     81       SAPI     C24      CTL2    -0.180000       12.0110           0
     11069 MEMB     81       SAPI     H4R      HAL2     0.900000E-01   1.00800           0
     11070 MEMB     81       SAPI     H4S      HAL2     0.900000E-01   1.00800           0
     11071 MEMB     81       SAPI     C25      CEL1    -0.150000       12.0110           0
     11072 MEMB     81       SAPI     H5R      HEL1     0.150000       1.00800           0
     11073 MEMB     81       SAPI     C26      CEL1    -0.150000       12.0110           0
     11074 MEMB     81       SAPI     H6R      HEL1     0.150000       1.00800           0
     11075 MEMB     81       SAPI     C27      CTL2    -0.180000       12.0110           0
     11076 MEMB     81       SAPI     H7R      HAL2     0.900000E-01   1.00800           0
     11077 MEMB     81       SAPI     H7S      HAL2     0.900000E-01   1.00800           0
     11078 MEMB     81       SAPI     C28      CEL1    -0.150000       12.0110           0
     11079 MEMB     81       SAPI     H8R      HEL1     0.150000       1.00800           0
     11080 MEMB     81       SAPI     C29      CEL1    -0.150000       12.0110           0
     11081 MEMB     81       SAPI     H9R      HEL1     0.150000       1.00800           0
     11082 MEMB     81       SAPI     C210     CTL2    -0.180000       12.0110           0
     11083 MEMB     81       SAPI     H10R     HAL2     0.900000E-01   1.00800           0
     11084 MEMB     81       SAPI     H10S     HAL2     0.900000E-01   1.00800           0
     11085 MEMB     81       SAPI     C211     CEL1    -0.150000       12.0110           0
     11086 MEMB     81       SAPI     H11R     HEL1     0.150000       1.00800           0
     11087 MEMB     81       SAPI     C212     CEL1    -0.150000       12.0110           0
     11088 MEMB     81       SAPI     H12R     HEL1     0.150000       1.00800           0
     11089 MEMB     81       SAPI     C213     CTL2    -0.180000       12.0110           0
     11090 MEMB     81       SAPI     H13R     HAL2     0.900000E-01   1.00800           0
     11091 MEMB     81       SAPI     H13S     HAL2     0.900000E-01   1.00800           0
     11092 MEMB     81       SAPI     C214     CEL1    -0.150000       12.0110           0
     11093 MEMB     81       SAPI     H14R     HEL1     0.150000       1.00800           0
     11094 MEMB     81       SAPI     C215     CEL1    -0.150000       12.0110           0
     11095 MEMB     81       SAPI     H15R     HEL1     0.150000       1.00800           0
     11096 MEMB     81       SAPI     C216     CTL2    -0.180000       12.0110           0
     11097 MEMB     81       SAPI     H16R     HAL2     0.900000E-01   1.00800           0
     11098 MEMB     81       SAPI     H16S     HAL2     0.900000E-01   1.00800           0
     11099 MEMB     81       SAPI     C217     CTL2    -0.180000       12.0110           0
     11100 MEMB     81       SAPI     H17R     HAL2     0.900000E-01   1.00800           0
     11101 MEMB     81       SAPI     H17S     HAL2     0.900000E-01   1.00800           0
     11102 MEMB     81       SAPI     C218     CTL2    -0.180000       12.0110           0
     11103 MEMB     81       SAPI     H18R     HAL2     0.900000E-01   1.00800           0
     11104 MEMB     81       SAPI     H18S     HAL2     0.900000E-01   1.00800           0
     11105 MEMB     81       SAPI     C219     CTL2    -0.180000       12.0110           0
     11106 MEMB     81       SAPI     H19R     HAL2     0.900000E-01   1.00800           0
     11107 MEMB     81       SAPI     H19S     HAL2     0.900000E-01   1.00800           0
     11108 MEMB     81       SAPI     C220     CTL3    -0.270000       12.0110           0
     11109 MEMB     81       SAPI     H20R     HAL3     0.900000E-01   1.00800           0
     11110 MEMB     81       SAPI     H20S     HAL3     0.900000E-01   1.00800           0
     11111 MEMB     81       SAPI     H20T     HAL3     0.900000E-01   1.00800           0
     11112 MEMB     81       SAPI     C33      CTL2    -0.180000       12.0110           0
     11113 MEMB     81       SAPI     H3X      HAL2     0.900000E-01   1.00800           0
     11114 MEMB     81       SAPI     H3Y      HAL2     0.900000E-01   1.00800           0
     11115 MEMB     81       SAPI     C34      CTL2    -0.180000       12.0110           0
     11116 MEMB     81       SAPI     H4X      HAL2     0.900000E-01   1.00800           0
     11117 MEMB     81       SAPI     H4Y      HAL2     0.900000E-01   1.00800           0
     11118 MEMB     81       SAPI     C35      CTL2    -0.180000       12.0110           0
     11119 MEMB     81       SAPI     H5X      HAL2     0.900000E-01   1.00800           0
     11120 MEMB     81       SAPI     H5Y      HAL2     0.900000E-01   1.00800           0
     11121 MEMB     81       SAPI     C36      CTL2    -0.180000       12.0110           0
     11122 MEMB     81       SAPI     H6X      HAL2     0.900000E-01   1.00800           0
     11123 MEMB     81       SAPI     H6Y      HAL2     0.900000E-01   1.00800           0
     11124 MEMB     81       SAPI     C37      CTL2    -0.180000       12.0110           0
     11125 MEMB     81       SAPI     H7X      HAL2     0.900000E-01   1.00800           0
     11126 MEMB     81       SAPI     H7Y      HAL2     0.900000E-01   1.00800           0
     11127 MEMB     81       SAPI     C38      CTL2    -0.180000       12.0110           0
     11128 MEMB     81       SAPI     H8X      HAL2     0.900000E-01   1.00800           0
     11129 MEMB     81       SAPI     H8Y      HAL2     0.900000E-01   1.00800           0
     11130 MEMB     81       SAPI     C39      CTL2    -0.180000       12.0110           0
     11131 MEMB     81       SAPI     H9X      HAL2     0.900000E-01   1.00800           0
     11132 MEMB     81       SAPI     H9Y      HAL2     0.900000E-01   1.00800           0
     11133 MEMB     81       SAPI     C310     CTL2    -0.180000       12.0110           0
     11134 MEMB     81       SAPI     H10X     HAL2     0.900000E-01   1.00800           0
     11135 MEMB     81       SAPI     H10Y     HAL2     0.900000E-01   1.00800           0
     11136 MEMB     81       SAPI     C311     CTL2    -0.180000       12.0110           0
     11137 MEMB     81       SAPI     H11X     HAL2     0.900000E-01   1.00800           0
     11138 MEMB     81       SAPI     H11Y     HAL2     0.900000E-01   1.00800           0
     11139 MEMB     81       SAPI     C312     CTL2    -0.180000       12.0110           0
     11140 MEMB     81       SAPI     H12X     HAL2     0.900000E-01   1.00800           0
     11141 MEMB     81       SAPI     H12Y     HAL2     0.900000E-01   1.00800           0
     11142 MEMB     81       SAPI     C313     CTL2    -0.180000       12.0110           0
     11143 MEMB     81       SAPI     H13X     HAL2     0.900000E-01   1.00800           0
     11144 MEMB     81       SAPI     H13Y     HAL2     0.900000E-01   1.00800           0
     11145 MEMB     81       SAPI     C314     CTL2    -0.180000       12.0110           0
     11146 MEMB     81       SAPI     H14X     HAL2     0.900000E-01   1.00800           0
     11147 MEMB     81       SAPI     H14Y     HAL2     0.900000E-01   1.00800           0
     11148 MEMB     81       SAPI     C315     CTL2    -0.180000       12.0110           0
     11149 MEMB     81       SAPI     H15X     HAL2     0.900000E-01   1.00800           0
     11150 MEMB     81       SAPI     H15Y     HAL2     0.900000E-01   1.00800           0
     11151 MEMB     81       SAPI     C316     CTL2    -0.180000       12.0110           0
     11152 MEMB     81       SAPI     H16X     HAL2     0.900000E-01   1.00800           0
     11153 MEMB     81       SAPI     H16Y     HAL2     0.900000E-01   1.00800           0
     11154 MEMB     81       SAPI     C317     CTL2    -0.180000       12.0110           0
     11155 MEMB     81       SAPI     H17X     HAL2     0.900000E-01   1.00800           0
     11156 MEMB     81       SAPI     H17Y     HAL2     0.900000E-01   1.00800           0
     11157 MEMB     81       SAPI     C318     CTL3    -0.270000       12.0110           0
     11158 MEMB     81       SAPI     H18X     HAL3     0.900000E-01   1.00800           0
     11159 MEMB     81       SAPI     H18Y     HAL3     0.900000E-01   1.00800           0
     11160 MEMB     81       SAPI     H18Z     HAL3     0.900000E-01   1.00800           0
     11161 IONS     1        SOD      SOD      SOD      1.000000       22.9898           0
     11162 IONS     2        SOD      SOD      SOD      1.000000       22.9898           0
     11163 IONS     3        SOD      SOD      SOD      1.000000       22.9898           0
     11164 IONS     4        SOD      SOD      SOD      1.000000       22.9898           0
     11165 IONS     5        SOD      SOD      SOD      1.000000       22.9898           0
     11166 IONS     6        SOD      SOD      SOD      1.000000       22.9898           0
     11167 IONS     7        SOD      SOD      SOD      1.000000       22.9898           0
     11168 IONS     8        SOD      SOD      SOD      1.000000       22.9898           0
     11169 IONS     9        SOD      SOD      SOD      1.000000       22.9898           0
     11170 IONS     10       SOD      SOD      SOD      1.000000       22.9898           0
     11171 IONS     11       SOD      SOD      SOD      1.000000       22.9898           0
     11172 IONS     12       SOD      SOD      SOD      1.000000       22.9898           0
     11173 IONS     13       SOD      SOD      SOD      1.000000       22.9898           0
     11174 IONS     14       SOD      SOD      SOD      1.000000       22.9898           0
     11175 IONS     15       SOD      SOD      SOD      1.000000       22.9898           0
     11176 IONS     16       SOD      SOD      SOD      1.000000       22.9898           0
     11177 IONS     17       SOD      SOD      SOD      1.000000       22.9898           0
     11178 IONS     18       CLA      CLA      CLA     -1.000000       35.4500           0
     11179 IONS     19       CLA      CLA      CLA     -1.000000       35.4500           0
     11180 IONS     20       CLA      CLA      CLA     -1.000000       35.4500           0
     11181 IONS     21       CLA      CLA      CLA     -1.000000       35.4500           0
     11182 IONS     22       CLA      CLA      CLA     -1.000000       35.4500           0
     11183 IONS     23       CLA      CLA      CLA     -1.000000       35.4500           0
     11184 IONS     24       CLA      CLA      CLA     -1.000000       35.4500           0
     11185 TIP3     1        TIP3     OH2      OT      -0.834000       15.9994           0
     11186 TIP3     1        TIP3     H1       HT       0.417000       1.00800           0
     11187 TIP3     1        TIP3     H2       HT       0.417000       1.00800           0
     11188 TIP3     2        TIP3     OH2      OT      -0.834000       15.9994           0
     11189 TIP3     2        TIP3     H1       HT       0.417000       1.00800           0
     11190 TIP3     2        TIP3     H2       HT       0.417000       1.00800           0
     11191 TIP3     3        TIP3     OH2      OT      -0.834000       15.9994           0
     11192 TIP3     3        TIP3     H1       HT       0.417000       1.00800           0
     11193 TIP3     3        TIP3     H2       HT       0.417000       1.00800           0
     11194 TIP3     4        TIP3     OH2      OT      -0.834000       15.9994           0
     11195 TIP3     4        TIP3     H1       HT       0.417000       1.00800           0
     11196 TIP3     4        TIP3     H2       HT       0.417000       1.00800           0
     11197 TIP3     5        TIP3     OH2      OT      -0.834000       15.9994           0
     11198 TIP3     5        TIP3     H1       HT       0.417000       1.00800           0
     11199 TIP3     5        TIP3     H2       HT       0.417000       1.00800           0
     11200 TIP3     6        TIP3     OH2      OT      -0.834000       15.9994           0
     11201 TIP3     6        TIP3     H1       HT       0.417000       1.00800           0
     11202 TIP3     6        TIP3     H2       HT       0.417000       1.00800           0
     11203 TIP3     7        TIP3     OH2      OT      -0.834000       15.9994           0
     11204 TIP3     7        TIP3     H1       HT       0.417000       1.00800           0
     11205 TIP3     7        TIP3     H2       HT       0.417000       1.00800           0
     11206 TIP3     8        TIP3     OH2      OT      -0.834000       15.9994           0
     11207 TIP3     8        TIP3     H1       HT       0.417000       1.00800           0
     11208 TIP3     8        TIP3     H2       HT       0.417000       1.00800           0
     11209 TIP3     9        TIP3     OH2      OT      -0.834000       15.9994           0
     11210 TIP3     9        TIP3     H1       HT       0.417000       1.00800           0
     11211 TIP3     9        TIP3     H2       HT       0.417000       1.00800           0
     11212 TIP3     10       TIP3     OH2      OT      -0.834000       15.9994           0
     11213 TIP3     10       TIP3     H1       HT       0.417000       1.00800           0
     11214 TIP3     10       TIP3     H2       HT       0.417000       1.00800           0
     11215 TIP3     11       TIP3     OH2      OT      -0.834000       15.9994           0
     11216 TIP3     11       TIP3     H1       HT       0.417000       1.00800           0
     11217 TIP3     11       TIP3     H2       HT       0.417000       1.00800           0
     11218 TIP3     12       TIP3     OH2      OT      -0.834000       15.9994           0
     11219 TIP3     12       TIP3     H1       HT       0.417000       1.00800           0
     11220 TIP3     12       TIP3     H2       HT       0.417000       1.00800           0
     11221 TIP3     13       TIP3     OH2      OT      -0.834000       15.9994           0
     11222 TIP3     13       TIP3     H1       HT       0.417000       1.00800           0
     11223 TIP3     13       TIP3     H2       HT       0.417000       1.00800           0
     11224 TIP3     14       TIP3     OH2      OT      -0.834000       15.9994           0
     11225 TIP3     14       TIP3     H1       HT       0.417000       1.00800           0
     11226 TIP3     14       TIP3     H2       HT       0.417000       1.00800           0
     11227 TIP3     15       TIP3     OH2      OT      -0.834000       15.9994           0
     11228 TIP3     15       TIP3     H1       HT       0.417000       1.00800           0
     11229 TIP3     15       TIP3     H2       HT       0.417000       1.00800           0
     11230 TIP3     16       TIP3     OH2      OT      -0.834000       15.9994           0
     11231 TIP3     16       TIP3     H1       HT       0.417000       1.00800           0
     11232 TIP3     16       TIP3     H2       HT       0.417000       1.00800           0
     11233 TIP3     17       TIP3     OH2      OT      -0.834000       15.9994           0
     11234 TIP3     17       TIP3     H1       HT       0.417000       1.00800           0
     11235 TIP3     17       TIP3     H2       HT       0.417000       1.00800           0
     11236 TIP3     18       TIP3     OH2      OT      -0.834000       15.9994           0
     11237 TIP3     18       TIP3     H1       HT       0.417000       1.00800           0
     11238 TIP3     18       TIP3     H2       HT       0.417000       1.00800           0
     11239 TIP3     19       TIP3     OH2      OT      -0.834000       15.9994           0
     11240 TIP3     19       TIP3     H1       HT       0.417000       1.00800           0
     11241 TIP3     19       TIP3     H2       HT       0.417000       1.00800           0
     11242 TIP3     20       TIP3     OH2      OT      -0.834000       15.9994           0
     11243 TIP3     20       TIP3     H1       HT       0.417000       1.00800           0
     11244 TIP3     20       TIP3     H2       HT       0.417000       1.00800           0
     11245 TIP3     21       TIP3     OH2      OT      -0.834000       15.9994           0
     11246 TIP3     21       TIP3     H1       HT       0.417000       1.00800           0
     11247 TIP3     21       TIP3     H2       HT       0.417000       1.00800           0
     11248 TIP3     22       TIP3     OH2      OT      -0.834000       15.9994           0
     11249 TIP3     22       TIP3     H1       HT       0.417000       1.00800           0
     11250 TIP3     22       TIP3     H2       HT       0.417000       1.00800           0
     11251 TIP3     23       TIP3     OH2      OT      -0.834000       15.9994           0
     11252 TIP3     23       TIP3     H1       HT       0.417000       1.00800           0
     11253 TIP3     23       TIP3     H2       HT       0.417000       1.00800           0
     11254 TIP3     24       TIP3     OH2      OT      -0.834000       15.9994           0
     11255 TIP3     24       TIP3     H1       HT       0.417000       1.00800           0
     11256 TIP3     24       TIP3     H2       HT       0.417000       1.00800           0
     11257 TIP3     25       TIP3     OH2      OT      -0.834000       15.9994           0
     11258 TIP3     25       TIP3     H1       HT       0.417000       1.00800           0
     11259 TIP3     25       TIP3     H2       HT       0.417000       1.00800           0
     11260 TIP3     26       TIP3     OH2      OT      -0.834000       15.9994           0
     11261 TIP3     26       TIP3     H1       HT       0.417000       1.00800           0
     11262 TIP3     26       TIP3     H2       HT       0.417000       1.00800           0
     11263 TIP3     27       TIP3     OH2      OT      -0.834000       15.9994           0
     11264 TIP3     27       TIP3     H1       HT       0.417000       1.00800           0
     11265 TIP3     27       TIP3     H2       HT       0.417000       1.00800           0
     11266 TIP3     28       TIP3     OH2      OT      -0.834000       15.9994           0
     11267 TIP3     28       TIP3     H1       HT       0.417000       1.00800           0
     11268 TIP3     28       TIP3     H2       HT       0.417000       1.00800           0
     11269 TIP3     29       TIP3     OH2      OT      -0.834000       15.9994           0
     11270 TIP3     29       TIP3     H1       HT       0.417000       1.00800           0
     11271 TIP3     29       TIP3     H2       HT       0.417000       1.00800           0
     11272 TIP3     30       TIP3     OH2      OT      -0.834000       15.9994           0
     11273 TIP3     30       TIP3     H1       HT       0.417000       1.00800           0
     11274 TIP3     30       TIP3     H2       HT       0.417000       1.00800           0
     11275 TIP3     31       TIP3     OH2      OT      -0.834000       15.9994           0
     11276 TIP3     31       TIP3     H1       HT       0.417000       1.00800           0
     11277 TIP3     31       TIP3     H2       HT       0.417000       1.00800           0
     11278 TIP3     32       TIP3     OH2      OT      -0.834000       15.9994           0
     11279 TIP3     32       TIP3     H1       HT       0.417000       1.00800           0
     11280 TIP3     32       TIP3     H2       HT       0.417000       1.00800           0
     11281 TIP3     33       TIP3     OH2      OT      -0.834000       15.9994           0
     11282 TIP3     33       TIP3     H1       HT       0.417000       1.00800           0
     11283 TIP3     33       TIP3     H2       HT       0.417000       1.00800           0
     11284 TIP3     34       TIP3     OH2      OT      -0.834000       15.9994           0
     11285 TIP3     34       TIP3     H1       HT       0.417000       1.00800           0
     11286 TIP3     34       TIP3     H2       HT       0.417000       1.00800           0
     11287 TIP3     35       TIP3     OH2      OT      -0.834000       15.9994           0
     11288 TIP3     35       TIP3     H1       HT       0.417000       1.00800           0
     11289 TIP3     35       TIP3     H2       HT       0.417000       1.00800           0
     11290 TIP3     36       TIP3     OH2      OT      -0.834000       15.9994           0
     11291 TIP3     36       TIP3     H1       HT       0.417000       1.00800           0
     11292 TIP3     36       TIP3     H2       HT       0.417000       1.00800           0
     11293 TIP3     37       TIP3     OH2      OT      -0.834000       15.9994           0
     11294 TIP3     37       TIP3     H1       HT       0.417000       1.00800           0
     11295 TIP3     37       TIP3     H2       HT       0.417000       1.00800           0
     11296 TIP3     38       TIP3     OH2      OT      -0.834000       15.9994           0
     11297 TIP3     38       TIP3     H1       HT       0.417000       1.00800           0
     11298 TIP3     38       TIP3     H2       HT       0.417000       1.00800           0
     11299 TIP3     39       TIP3     OH2      OT      -0.834000       15.9994           0
     11300 TIP3     39       TIP3     H1       HT       0.417000       1.00800           0
     11301 TIP3     39       TIP3     H2       HT       0.417000       1.00800           0
     11302 TIP3     40       TIP3     OH2      OT      -0.834000       15.9994           0
     11303 TIP3     40       TIP3     H1       HT       0.417000       1.00800           0
     11304 TIP3     40       TIP3     H2       HT       0.417000       1.00800           0
     11305 TIP3     41       TIP3     OH2      OT      -0.834000       15.9994           0
     11306 TIP3     41       TIP3     H1       HT       0.417000       1.00800           0
     11307 TIP3     41       TIP3     H2       HT       0.417000       1.00800           0
     11308 TIP3     42       TIP3     OH2      OT      -0.834000       15.9994           0
     11309 TIP3     42       TIP3     H1       HT       0.417000       1.00800           0
     11310 TIP3     42       TIP3     H2       HT       0.417000       1.00800           0
     11311 TIP3     43       TIP3     OH2      OT      -0.834000       15.9994           0
     11312 TIP3     43       TIP3     H1       HT       0.417000       1.00800           0
     11313 TIP3     43       TIP3     H2       HT       0.417000       1.00800           0
     11314 TIP3     44       TIP3     OH2      OT      -0.834000       15.9994           0
     11315 TIP3     44       TIP3     H1       HT       0.417000       1.00800           0
     11316 TIP3     44       TIP3     H2       HT       0.417000       1.00800           0
     11317 TIP3     45       TIP3     OH2      OT      -0.834000       15.9994           0
     11318 TIP3     45       TIP3     H1       HT       0.417000       1.00800           0
     11319 TIP3     45       TIP3     H2       HT       0.417000       1.00800           0
     11320 TIP3     46       TIP3     OH2      OT      -0.834000       15.9994           0
     11321 TIP3     46       TIP3     H1       HT       0.417000       1.00800           0
     11322 TIP3     46       TIP3     H2       HT       0.417000       1.00800           0
     11323 TIP3     47       TIP3     OH2      OT      -0.834000       15.9994           0
     11324 TIP3     47       TIP3     H1       HT       0.417000       1.00800           0
     11325 TIP3     47       TIP3     H2       HT       0.417000       1.00800           0
     11326 TIP3     48       TIP3     OH2      OT      -0.834000       15.9994           0
     11327 TIP3     48       TIP3     H1       HT       0.417000       1.00800           0
     11328 TIP3     48       TIP3     H2       HT       0.417000       1.00800           0
     11329 TIP3     49       TIP3     OH2      OT      -0.834000       15.9994           0
     11330 TIP3     49       TIP3     H1       HT       0.417000       1.00800           0
     11331 TIP3     49       TIP3     H2       HT       0.417000       1.00800           0
     11332 TIP3     50       TIP3     OH2      OT      -0.834000       15.9994           0
     11333 TIP3     50       TIP3     H1       HT       0.417000       1.00800           0
     11334 TIP3     50       TIP3     H2       HT       0.417000       1.00800           0
     11335 TIP3     51       TIP3     OH2      OT      -0.834000       15.9994           0
     11336 TIP3     51       TIP3     H1       HT       0.417000       1.00800           0
     11337 TIP3     51       TIP3     H2       HT       0.417000       1.00800           0
     11338 TIP3     52       TIP3     OH2      OT      -0.834000       15.9994           0
     11339 TIP3     52       TIP3     H1       HT       0.417000       1.00800           0
     11340 TIP3     52       TIP3     H2       HT       0.417000       1.00800           0
     11341 TIP3     53       TIP3     OH2      OT      -0.834000       15.9994           0
     11342 TIP3     53       TIP3     H1       HT       0.417000       1.00800           0
     11343 TIP3     53       TIP3     H2       HT       0.417000       1.00800           0
     11344 TIP3     54       TIP3     OH2      OT      -0.834000       15.9994           0
     11345 TIP3     54       TIP3     H1       HT       0.417000       1.00800           0
     11346 TIP3     54       TIP3     H2       HT       0.417000       1.00800           0
     11347 TIP3     55       TIP3     OH2      OT      -0.834000       15.9994           0
     11348 TIP3     55       TIP3     H1       HT       0.417000       1.00800           0
     11349 TIP3     55       TIP3     H2       HT       0.417000       1.00800           0
     11350 TIP3     56       TIP3     OH2      OT      -0.834000       15.9994           0
     11351 TIP3     56       TIP3     H1       HT       0.417000       1.00800           0
     11352 TIP3     56       TIP3     H2       HT       0.417000       1.00800           0
     11353 TIP3     57       TIP3     OH2      OT      -0.834000       15.9994           0
     11354 TIP3     57       TIP3     H1       HT       0.417000       1.00800           0
     11355 TIP3     57       TIP3     H2       HT       0.417000       1.00800           0
     11356 TIP3     58       TIP3     OH2      OT      -0.834000       15.9994           0
     11357 TIP3     58       TIP3     H1       HT       0.417000       1.00800           0
     11358 TIP3     58       TIP3     H2       HT       0.417000       1.00800           0
     11359 TIP3     59       TIP3     OH2      OT      -0.834000       15.9994           0
     11360 TIP3     59       TIP3     H1       HT       0.417000       1.00800           0
     11361 TIP3     59       TIP3     H2       HT       0.417000       1.00800           0
     11362 TIP3     60       TIP3     OH2      OT      -0.834000       15.9994           0
     11363 TIP3     60       TIP3     H1       HT       0.417000       1.00800           0
     11364 TIP3     60       TIP3     H2       HT       0.417000       1.00800           0
     11365 TIP3     61       TIP3     OH2      OT      -0.834000       15.9994           0
     11366 TIP3     61       TIP3     H1       HT       0.417000       1.00800           0
     11367 TIP3     61       TIP3     H2       HT       0.417000       1.00800           0
     11368 TIP3     62       TIP3     OH2      OT      -0.834000       15.9994           0
     11369 TIP3     62       TIP3     H1       HT       0.417000       1.00800           0
     11370 TIP3     62       TIP3     H2       HT       0.417000       1.00800           0
     11371 TIP3     63       TIP3     OH2      OT      -0.834000       15.9994           0
     11372 TIP3     63       TIP3     H1       HT       0.417000       1.00800           0
     11373 TIP3     63       TIP3     H2       HT       0.417000       1.00800           0
     11374 TIP3     64       TIP3     OH2      OT      -0.834000       15.9994           0
     11375 TIP3     64       TIP3     H1       HT       0.417000       1.00800           0
     11376 TIP3     64       TIP3     H2       HT       0.417000       1.00800           0
     11377 TIP3     65       TIP3     OH2      OT      -0.834000       15.9994           0
     11378 TIP3     65       TIP3     H1       HT       0.417000       1.00800           0
     11379 TIP3     65       TIP3     H2       HT       0.417000       1.00800           0
     11380 TIP3     66       TIP3     OH2      OT      -0.834000       15.9994           0
     11381 TIP3     66       TIP3     H1       HT       0.417000       1.00800           0
     11382 TIP3     66       TIP3     H2       HT       0.417000       1.00800           0
     11383 TIP3     67       TIP3     OH2      OT      -0.834000       15.9994           0
     11384 TIP3     67       TIP3     H1       HT       0.417000       1.00800           0
     11385 TIP3     67       TIP3     H2       HT       0.417000       1.00800           0
     11386 TIP3     68       TIP3     OH2      OT      -0.834000       15.9994           0
     11387 TIP3     68       TIP3     H1       HT       0.417000       1.00800           0
     11388 TIP3     68       TIP3     H2       HT       0.417000       1.00800           0
     11389 TIP3     69       TIP3     OH2      OT      -0.834000       15.9994           0
     11390 TIP3     69       TIP3     H1       HT       0.417000       1.00800           0
     11391 TIP3     69       TIP3     H2       HT       0.417000       1.00800           0
     11392 TIP3     70       TIP3     OH2      OT      -0.834000       15.9994           0
     11393 TIP3     70       TIP3     H1       HT       0.417000       1.00800           0
     11394 TIP3     70       TIP3     H2       HT       0.417000       1.00800           0
     11395 TIP3     71       TIP3     OH2      OT      -0.834000       15.9994           0
     11396 TIP3     71       TIP3     H1       HT       0.417000       1.00800           0
     11397 TIP3     71       TIP3     H2       HT       0.417000       1.00800           0
     11398 TIP3     72       TIP3     OH2      OT      -0.834000       15.9994           0
     11399 TIP3     72       TIP3     H1       HT       0.417000       1.00800           0
     11400 TIP3     72       TIP3     H2       HT       0.417000       1.00800           0
     11401 TIP3     73       TIP3     OH2      OT      -0.834000       15.9994           0
     11402 TIP3     73       TIP3     H1       HT       0.417000       1.00800           0
     11403 TIP3     73       TIP3     H2       HT       0.417000       1.00800           0
     11404 TIP3     74       TIP3     OH2      OT      -0.834000       15.9994           0
     11405 TIP3     74       TIP3     H1       HT       0.417000       1.00800           0
     11406 TIP3     74       TIP3     H2       HT       0.417000       1.00800           0
     11407 TIP3     75       TIP3     OH2      OT      -0.834000       15.9994           0
     11408 TIP3     75       TIP3     H1       HT       0.417000       1.00800           0
     11409 TIP3     75       TIP3     H2       HT       0.417000       1.00800           0
     11410 TIP3     76       TIP3     OH2      OT      -0.834000       15.9994           0
     11411 TIP3     76       TIP3     H1       HT       0.417000       1.00800           0
     11412 TIP3     76       TIP3     H2       HT       0.417000       1.00800           0
     11413 TIP3     77       TIP3     OH2      OT      -0.834000       15.9994           0
     11414 TIP3     77       TIP3     H1       HT       0.417000       1.00800           0
     11415 TIP3     77       TIP3     H2       HT       0.417000       1.00800           0
     11416 TIP3     78       TIP3     OH2      OT      -0.834000       15.9994           0
     11417 TIP3     78       TIP3     H1       HT       0.417000       1.00800           0
     11418 TIP3     78       TIP3     H2       HT       0.417000       1.00800           0
     11419 TIP3     79       TIP3     OH2      OT      -0.834000       15.9994           0
     11420 TIP3     79       TIP3     H1       HT       0.417000       1.00800           0
     11421 TIP3     79       TIP3     H2       HT       0.417000       1.00800           0
     11422 TIP3     80       TIP3     OH2      OT      -0.834000       15.9994           0
     11423 TIP3     80       TIP3     H1       HT       0.417000       1.00800           0
     11424 TIP3     80       TIP3     H2       HT       0.417000       1.00800           0
     11425 TIP3     81       TIP3     OH2      OT      -0.834000       15.9994           0
     11426 TIP3     81       TIP3     H1       HT       0.417000       1.00800           0
     11427 TIP3     81       TIP3     H2       HT       0.417000       1.00800           0
     11428 TIP3     82       TIP3     OH2      OT      -0.834000       15.9994           0
     11429 TIP3     82       TIP3     H1       HT       0.417000       1.00800           0
     11430 TIP3     82       TIP3     H2       HT       0.417000       1.00800           0
     11431 TIP3     83       TIP3     OH2      OT      -0.834000       15.9994           0
     11432 TIP3     83       TIP3     H1       HT       0.417000       1.00800           0
     11433 TIP3     83       TIP3     H2       HT       0.417000       1.00800           0
     11434 TIP3     84       TIP3     OH2      OT      -0.834000       15.9994           0
     11435 TIP3     84       TIP3     H1       HT       0.417000       1.00800           0
     11436 TIP3     84       TIP3     H2       HT       0.417000       1.00800           0
     11437 TIP3     85       TIP3     OH2      OT      -0.834000       15.9994           0
     11438 TIP3     85       TIP3     H1       HT       0.417000       1.00800           0
     11439 TIP3     85       TIP3     H2       HT       0.417000       1.00800           0
     11440 TIP3     86       TIP3     OH2      OT      -0.834000       15.9994           0
     11441 TIP3     86       TIP3     H1       HT       0.417000       1.00800           0
     11442 TIP3     86       TIP3     H2       HT       0.417000       1.00800           0
     11443 TIP3     87       TIP3     OH2      OT      -0.834000       15.9994           0
     11444 TIP3     87       TIP3     H1       HT       0.417000       1.00800           0
     11445 TIP3     87       TIP3     H2       HT       0.417000       1.00800           0
     11446 TIP3     88       TIP3     OH2      OT      -0.834000       15.9994           0
     11447 TIP3     88       TIP3     H1       HT       0.417000       1.00800           0
     11448 TIP3     88       TIP3     H2       HT       0.417000       1.00800           0
     11449 TIP3     89       TIP3     OH2      OT      -0.834000       15.9994           0
     11450 TIP3     89       TIP3     H1       HT       0.417000       1.00800           0
     11451 TIP3     89       TIP3     H2       HT       0.417000       1.00800           0
     11452 TIP3     90       TIP3     OH2      OT      -0.834000       15.9994           0
     11453 TIP3     90       TIP3     H1       HT       0.417000       1.00800           0
     11454 TIP3     90       TIP3     H2       HT       0.417000       1.00800           0
     11455 TIP3     91       TIP3     OH2      OT      -0.834000       15.9994           0
     11456 TIP3     91       TIP3     H1       HT       0.417000       1.00800           0
     11457 TIP3     91       TIP3     H2       HT       0.417000       1.00800           0
     11458 TIP3     92       TIP3     OH2      OT      -0.834000       15.9994           0
     11459 TIP3     92       TIP3     H1       HT       0.417000       1.00800           0
     11460 TIP3     92       TIP3     H2       HT       0.417000       1.00800           0
     11461 TIP3     93       TIP3     OH2      OT      -0.834000       15.9994           0
     11462 TIP3     93       TIP3     H1       HT       0.417000       1.00800           0
     11463 TIP3     93       TIP3     H2       HT       0.417000       1.00800           0
     11464 TIP3     94       TIP3     OH2      OT      -0.834000       15.9994           0
     11465 TIP3     94       TIP3     H1       HT       0.417000       1.00800           0
     11466 TIP3     94       TIP3     H2       HT       0.417000       1.00800           0
     11467 TIP3     95       TIP3     OH2      OT      -0.834000       15.9994           0
     11468 TIP3     95       TIP3     H1       HT       0.417000       1.00800           0
     11469 TIP3     95       TIP3     H2       HT       0.417000       1.00800           0
     11470 TIP3     96       TIP3     OH2      OT      -0.834000       15.9994           0
     11471 TIP3     96       TIP3     H1       HT       0.417000       1.00800           0
     11472 TIP3     96       TIP3     H2       HT       0.417000       1.00800           0
     11473 TIP3     97       TIP3     OH2      OT      -0.834000       15.9994           0
     11474 TIP3     97       TIP3     H1       HT       0.417000       1.00800           0
     11475 TIP3     97       TIP3     H2       HT       0.417000       1.00800           0
     11476 TIP3     98       TIP3     OH2      OT      -0.834000       15.9994           0
     11477 TIP3     98       TIP3     H1       HT       0.417000       1.00800           0
     11478 TIP3     98       TIP3     H2       HT       0.417000       1.00800           0
     11479 TIP3     99       TIP3     OH2      OT      -0.834000       15.9994           0
     11480 TIP3     99       TIP3     H1       HT       0.417000       1.00800           0
     11481 TIP3     99       TIP3     H2       HT       0.417000       1.00800           0
     11482 TIP3     100      TIP3     OH2      OT      -0.834000       15.9994           0
     11483 TIP3     100      TIP3     H1       HT       0.417000       1.00800           0
     11484 TIP3     100      TIP3     H2       HT       0.417000       1.00800           0
     11485 TIP3     101      TIP3     OH2      OT      -0.834000       15.9994           0
     11486 TIP3     101      TIP3     H1       HT       0.417000       1.00800           0
     11487 TIP3     101      TIP3     H2       HT       0.417000       1.00800           0
     11488 TIP3     102      TIP3     OH2      OT      -0.834000       15.9994           0
     11489 TIP3     102      TIP3     H1       HT       0.417000       1.00800           0
     11490 TIP3     102      TIP3     H2       HT       0.417000       1.00800           0
     11491 TIP3     103      TIP3     OH2      OT      -0.834000       15.9994           0
     11492 TIP3     103      TIP3     H1       HT       0.417000       1.00800           0
     11493 TIP3     103      TIP3     H2       HT       0.417000       1.00800           0
     11494 TIP3     104      TIP3     OH2      OT      -0.834000       15.9994           0
     11495 TIP3     104      TIP3     H1       HT       0.417000       1.00800           0
     11496 TIP3     104      TIP3     H2       HT       0.417000       1.00800           0
     11497 TIP3     105      TIP3     OH2      OT      -0.834000       15.9994           0
     11498 TIP3     105      TIP3     H1       HT       0.417000       1.00800           0
     11499 TIP3     105      TIP3     H2       HT       0.417000       1.00800           0
     11500 TIP3     106      TIP3     OH2      OT      -0.834000       15.9994           0
     11501 TIP3     106      TIP3     H1       HT       0.417000       1.00800           0
     11502 TIP3     106      TIP3     H2       HT       0.417000       1.00800           0
     11503 TIP3     107      TIP3     OH2      OT      -0.834000       15.9994           0
     11504 TIP3     107      TIP3     H1       HT       0.417000       1.00800           0
     11505 TIP3     107      TIP3     H2       HT       0.417000       1.00800           0
     11506 TIP3     108      TIP3     OH2      OT      -0.834000       15.9994           0
     11507 TIP3     108      TIP3     H1       HT       0.417000       1.00800           0
     11508 TIP3     108      TIP3     H2       HT       0.417000       1.00800           0
     11509 TIP3     109      TIP3     OH2      OT      -0.834000       15.9994           0
     11510 TIP3     109      TIP3     H1       HT       0.417000       1.00800           0
     11511 TIP3     109      TIP3     H2       HT       0.417000       1.00800           0
     11512 TIP3     110      TIP3     OH2      OT      -0.834000       15.9994           0
     11513 TIP3     110      TIP3     H1       HT       0.417000       1.00800           0
     11514 TIP3     110      TIP3     H2       HT       0.417000       1.00800           0
     11515 TIP3     111      TIP3     OH2      OT      -0.834000       15.9994           0
     11516 TIP3     111      TIP3     H1       HT       0.417000       1.00800           0
     11517 TIP3     111      TIP3     H2       HT       0.417000       1.00800           0
     11518 TIP3     112      TIP3     OH2      OT      -0.834000       15.9994           0
     11519 TIP3     112      TIP3     H1       HT       0.417000       1.00800           0
     11520 TIP3     112      TIP3     H2       HT       0.417000       1.00800           0
     11521 TIP3     113      TIP3     OH2      OT      -0.834000       15.9994           0
     11522 TIP3     113      TIP3     H1       HT       0.417000       1.00800           0
     11523 TIP3     113      TIP3     H2       HT       0.417000       1.00800           0
     11524 TIP3     114      TIP3     OH2      OT      -0.834000       15.9994           0
     11525 TIP3     114      TIP3     H1       HT       0.417000       1.00800           0
     11526 TIP3     114      TIP3     H2       HT       0.417000       1.00800           0
     11527 TIP3     115      TIP3     OH2      OT      -0.834000       15.9994           0
     11528 TIP3     115      TIP3     H1       HT       0.417000       1.00800           0
     11529 TIP3     115      TIP3     H2       HT       0.417000       1.00800           0
     11530 TIP3     116      TIP3     OH2      OT      -0.834000       15.9994           0
     11531 TIP3     116      TIP3     H1       HT       0.417000       1.00800           0
     11532 TIP3     116      TIP3     H2       HT       0.417000       1.00800           0
     11533 TIP3     117      TIP3     OH2      OT      -0.834000       15.9994           0
     11534 TIP3     117      TIP3     H1       HT       0.417000       1.00800           0
     11535 TIP3     117      TIP3     H2       HT       0.417000       1.00800           0
     11536 TIP3     118      TIP3     OH2      OT      -0.834000       15.9994           0
     11537 TIP3     118      TIP3     H1       HT       0.417000       1.00800           0
     11538 TIP3     118      TIP3     H2       HT       0.417000       1.00800           0
     11539 TIP3     119      TIP3     OH2      OT      -0.834000       15.9994           0
     11540 TIP3     119      TIP3     H1       HT       0.417000       1.00800           0
     11541 TIP3     119      TIP3     H2       HT       0.417000       1.00800           0
     11542 TIP3     120      TIP3     OH2      OT      -0.834000       15.9994           0
     11543 TIP3     120      TIP3     H1       HT       0.417000       1.00800           0
     11544 TIP3     120      TIP3     H2       HT       0.417000       1.00800           0
     11545 TIP3     121      TIP3     OH2      OT      -0.834000       15.9994           0
     11546 TIP3     121      TIP3     H1       HT       0.417000       1.00800           0
     11547 TIP3     121      TIP3     H2       HT       0.417000       1.00800           0
     11548 TIP3     122      TIP3     OH2      OT      -0.834000       15.9994           0
     11549 TIP3     122      TIP3     H1       HT       0.417000       1.00800           0
     11550 TIP3     122      TIP3     H2       HT       0.417000       1.00800           0
     11551 TIP3     123      TIP3     OH2      OT      -0.834000       15.9994           0
     11552 TIP3     123      TIP3     H1       HT       0.417000       1.00800           0
     11553 TIP3     123      TIP3     H2       HT       0.417000       1.00800           0
     11554 TIP3     124      TIP3     OH2      OT      -0.834000       15.9994           0
     11555 TIP3     124      TIP3     H1       HT       0.417000       1.00800           0
     11556 TIP3     124      TIP3     H2       HT       0.417000       1.00800           0
     11557 TIP3     125      TIP3     OH2      OT      -0.834000       15.9994           0
     11558 TIP3     125      TIP3     H1       HT       0.417000       1.00800           0
     11559 TIP3     125      TIP3     H2       HT       0.417000       1.00800           0
     11560 TIP3     126      TIP3     OH2      OT      -0.834000       15.9994           0
     11561 TIP3     126      TIP3     H1       HT       0.417000       1.00800           0
     11562 TIP3     126      TIP3     H2       HT       0.417000       1.00800           0
     11563 TIP3     127      TIP3     OH2      OT      -0.834000       15.9994           0
     11564 TIP3     127      TIP3     H1       HT       0.417000       1.00800           0
     11565 TIP3     127      TIP3     H2       HT       0.417000       1.00800           0
     11566 TIP3     128      TIP3     OH2      OT      -0.834000       15.9994           0
     11567 TIP3     128      TIP3     H1       HT       0.417000       1.00800           0
     11568 TIP3     128      TIP3     H2       HT       0.417000       1.00800           0
     11569 TIP3     129      TIP3     OH2      OT      -0.834000       15.9994           0
     11570 TIP3     129      TIP3     H1       HT       0.417000       1.00800           0
     11571 TIP3     129      TIP3     H2       HT       0.417000       1.00800           0
     11572 TIP3     130      TIP3     OH2      OT      -0.834000       15.9994           0
     11573 TIP3     130      TIP3     H1       HT       0.417000       1.00800           0
     11574 TIP3     130      TIP3     H2       HT       0.417000       1.00800           0
     11575 TIP3     131      TIP3     OH2      OT      -0.834000       15.9994           0
     11576 TIP3     131      TIP3     H1       HT       0.417000       1.00800           0
     11577 TIP3     131      TIP3     H2       HT       0.417000       1.00800           0
     11578 TIP3     132      TIP3     OH2      OT      -0.834000       15.9994           0
     11579 TIP3     132      TIP3     H1       HT       0.417000       1.00800           0
     11580 TIP3     132      TIP3     H2       HT       0.417000       1.00800           0
     11581 TIP3     133      TIP3     OH2      OT      -0.834000       15.9994           0
     11582 TIP3     133      TIP3     H1       HT       0.417000       1.00800           0
     11583 TIP3     133      TIP3     H2       HT       0.417000       1.00800           0
     11584 TIP3     134      TIP3     OH2      OT      -0.834000       15.9994           0
     11585 TIP3     134      TIP3     H1       HT       0.417000       1.00800           0
     11586 TIP3     134      TIP3     H2       HT       0.417000       1.00800           0
     11587 TIP3     135      TIP3     OH2      OT      -0.834000       15.9994           0
     11588 TIP3     135      TIP3     H1       HT       0.417000       1.00800           0
     11589 TIP3     135      TIP3     H2       HT       0.417000       1.00800           0
     11590 TIP3     136      TIP3     OH2      OT      -0.834000       15.9994           0
     11591 TIP3     136      TIP3     H1       HT       0.417000       1.00800           0
     11592 TIP3     136      TIP3     H2       HT       0.417000       1.00800           0
     11593 TIP3     137      TIP3     OH2      OT      -0.834000       15.9994           0
     11594 TIP3     137      TIP3     H1       HT       0.417000       1.00800           0
     11595 TIP3     137      TIP3     H2       HT       0.417000       1.00800           0
     11596 TIP3     138      TIP3     OH2      OT      -0.834000       15.9994           0
     11597 TIP3     138      TIP3     H1       HT       0.417000       1.00800           0
     11598 TIP3     138      TIP3     H2       HT       0.417000       1.00800           0
     11599 TIP3     139      TIP3     OH2      OT      -0.834000       15.9994           0
     11600 TIP3     139      TIP3     H1       HT       0.417000       1.00800           0
     11601 TIP3     139      TIP3     H2       HT       0.417000       1.00800           0
     11602 TIP3     140      TIP3     OH2      OT      -0.834000       15.9994           0
     11603 TIP3     140      TIP3     H1       HT       0.417000       1.00800           0
     11604 TIP3     140      TIP3     H2       HT       0.417000       1.00800           0
     11605 TIP3     141      TIP3     OH2      OT      -0.834000       15.9994           0
     11606 TIP3     141      TIP3     H1       HT       0.417000       1.00800           0
     11607 TIP3     141      TIP3     H2       HT       0.417000       1.00800           0
     11608 TIP3     142      TIP3     OH2      OT      -0.834000       15.9994           0
     11609 TIP3     142      TIP3     H1       HT       0.417000       1.00800           0
     11610 TIP3     142      TIP3     H2       HT       0.417000       1.00800           0
     11611 TIP3     143      TIP3     OH2      OT      -0.834000       15.9994           0
     11612 TIP3     143      TIP3     H1       HT       0.417000       1.00800           0
     11613 TIP3     143      TIP3     H2       HT       0.417000       1.00800           0
     11614 TIP3     144      TIP3     OH2      OT      -0.834000       15.9994           0
     11615 TIP3     144      TIP3     H1       HT       0.417000       1.00800           0
     11616 TIP3     144      TIP3     H2       HT       0.417000       1.00800           0
     11617 TIP3     145      TIP3     OH2      OT      -0.834000       15.9994           0
     11618 TIP3     145      TIP3     H1       HT       0.417000       1.00800           0
     11619 TIP3     145      TIP3     H2       HT       0.417000       1.00800           0
     11620 TIP3     146      TIP3     OH2      OT      -0.834000       15.9994           0
     11621 TIP3     146      TIP3     H1       HT       0.417000       1.00800           0
     11622 TIP3     146      TIP3     H2       HT       0.417000       1.00800           0
     11623 TIP3     147      TIP3     OH2      OT      -0.834000       15.9994           0
     11624 TIP3     147      TIP3     H1       HT       0.417000       1.00800           0
     11625 TIP3     147      TIP3     H2       HT       0.417000       1.00800           0
     11626 TIP3     148      TIP3     OH2      OT      -0.834000       15.9994           0
     11627 TIP3     148      TIP3     H1       HT       0.417000       1.00800           0
     11628 TIP3     148      TIP3     H2       HT       0.417000       1.00800           0
     11629 TIP3     149      TIP3     OH2      OT      -0.834000       15.9994           0
     11630 TIP3     149      TIP3     H1       HT       0.417000       1.00800           0
     11631 TIP3     149      TIP3     H2       HT       0.417000       1.00800           0
     11632 TIP3     150      TIP3     OH2      OT      -0.834000       15.9994           0
     11633 TIP3     150      TIP3     H1       HT       0.417000       1.00800           0
     11634 TIP3     150      TIP3     H2       HT       0.417000       1.00800           0
     11635 TIP3     151      TIP3     OH2      OT      -0.834000       15.9994           0
     11636 TIP3     151      TIP3     H1       HT       0.417000       1.00800           0
     11637 TIP3     151      TIP3     H2       HT       0.417000       1.00800           0
     11638 TIP3     152      TIP3     OH2      OT      -0.834000       15.9994           0
     11639 TIP3     152      TIP3     H1       HT       0.417000       1.00800           0
     11640 TIP3     152      TIP3     H2       HT       0.417000       1.00800           0
     11641 TIP3     153      TIP3     OH2      OT      -0.834000       15.9994           0
     11642 TIP3     153      TIP3     H1       HT       0.417000       1.00800           0
     11643 TIP3     153      TIP3     H2       HT       0.417000       1.00800           0
     11644 TIP3     154      TIP3     OH2      OT      -0.834000       15.9994           0
     11645 TIP3     154      TIP3     H1       HT       0.417000       1.00800           0
     11646 TIP3     154      TIP3     H2       HT       0.417000       1.00800           0
     11647 TIP3     155      TIP3     OH2      OT      -0.834000       15.9994           0
     11648 TIP3     155      TIP3     H1       HT       0.417000       1.00800           0
     11649 TIP3     155      TIP3     H2       HT       0.417000       1.00800           0
     11650 TIP3     156      TIP3     OH2      OT      -0.834000       15.9994           0
     11651 TIP3     156      TIP3     H1       HT       0.417000       1.00800           0
     11652 TIP3     156      TIP3     H2       HT       0.417000       1.00800           0
     11653 TIP3     157      TIP3     OH2      OT      -0.834000       15.9994           0
     11654 TIP3     157      TIP3     H1       HT       0.417000       1.00800           0
     11655 TIP3     157      TIP3     H2       HT       0.417000       1.00800           0
     11656 TIP3     158      TIP3     OH2      OT      -0.834000       15.9994           0
     11657 TIP3     158      TIP3     H1       HT       0.417000       1.00800           0
     11658 TIP3     158      TIP3     H2       HT       0.417000       1.00800           0
     11659 TIP3     159      TIP3     OH2      OT      -0.834000       15.9994           0
     11660 TIP3     159      TIP3     H1       HT       0.417000       1.00800           0
     11661 TIP3     159      TIP3     H2       HT       0.417000       1.00800           0
     11662 TIP3     160      TIP3     OH2      OT      -0.834000       15.9994           0
     11663 TIP3     160      TIP3     H1       HT       0.417000       1.00800           0
     11664 TIP3     160      TIP3     H2       HT       0.417000       1.00800           0
     11665 TIP3     161      TIP3     OH2      OT      -0.834000       15.9994           0
     11666 TIP3     161      TIP3     H1       HT       0.417000       1.00800           0
     11667 TIP3     161      TIP3     H2       HT       0.417000       1.00800           0
     11668 TIP3     162      TIP3     OH2      OT      -0.834000       15.9994           0
     11669 TIP3     162      TIP3     H1       HT       0.417000       1.00800           0
     11670 TIP3     162      TIP3     H2       HT       0.417000       1.00800           0
     11671 TIP3     163      TIP3     OH2      OT      -0.834000       15.9994           0
     11672 TIP3     163      TIP3     H1       HT       0.417000       1.00800           0
     11673 TIP3     163      TIP3     H2       HT       0.417000       1.00800           0
     11674 TIP3     164      TIP3     OH2      OT      -0.834000       15.9994           0
     11675 TIP3     164      TIP3     H1       HT       0.417000       1.00800           0
     11676 TIP3     164      TIP3     H2       HT       0.417000       1.00800           0
     11677 TIP3     165      TIP3     OH2      OT      -0.834000       15.9994           0
     11678 TIP3     165      TIP3     H1       HT       0.417000       1.00800           0
     11679 TIP3     165      TIP3     H2       HT       0.417000       1.00800           0
     11680 TIP3     166      TIP3     OH2      OT      -0.834000       15.9994           0
     11681 TIP3     166      TIP3     H1       HT       0.417000       1.00800           0
     11682 TIP3     166      TIP3     H2       HT       0.417000       1.00800           0
     11683 TIP3     167      TIP3     OH2      OT      -0.834000       15.9994           0
     11684 TIP3     167      TIP3     H1       HT       0.417000       1.00800           0
     11685 TIP3     167      TIP3     H2       HT       0.417000       1.00800           0
     11686 TIP3     168      TIP3     OH2      OT      -0.834000       15.9994           0
     11687 TIP3     168      TIP3     H1       HT       0.417000       1.00800           0
     11688 TIP3     168      TIP3     H2       HT       0.417000       1.00800           0
     11689 TIP3     169      TIP3     OH2      OT      -0.834000       15.9994           0
     11690 TIP3     169      TIP3     H1       HT       0.417000       1.00800           0
     11691 TIP3     169      TIP3     H2       HT       0.417000       1.00800           0
     11692 TIP3     170      TIP3     OH2      OT      -0.834000       15.9994           0
     11693 TIP3     170      TIP3     H1       HT       0.417000       1.00800           0
     11694 TIP3     170      TIP3     H2       HT       0.417000       1.00800           0
     11695 TIP3     171      TIP3     OH2      OT      -0.834000       15.9994           0
     11696 TIP3     171      TIP3     H1       HT       0.417000       1.00800           0
     11697 TIP3     171      TIP3     H2       HT       0.417000       1.00800           0
     11698 TIP3     172      TIP3     OH2      OT      -0.834000       15.9994           0
     11699 TIP3     172      TIP3     H1       HT       0.417000       1.00800           0
     11700 TIP3     172      TIP3     H2       HT       0.417000       1.00800           0
     11701 TIP3     173      TIP3     OH2      OT      -0.834000       15.9994           0
     11702 TIP3     173      TIP3     H1       HT       0.417000       1.00800           0
     11703 TIP3     173      TIP3     H2       HT       0.417000       1.00800           0
     11704 TIP3     174      TIP3     OH2      OT      -0.834000       15.9994           0
     11705 TIP3     174      TIP3     H1       HT       0.417000       1.00800           0
     11706 TIP3     174      TIP3     H2       HT       0.417000       1.00800           0
     11707 TIP3     175      TIP3     OH2      OT      -0.834000       15.9994           0
     11708 TIP3     175      TIP3     H1       HT       0.417000       1.00800           0
     11709 TIP3     175      TIP3     H2       HT       0.417000       1.00800           0
     11710 TIP3     176      TIP3     OH2      OT      -0.834000       15.9994           0
     11711 TIP3     176      TIP3     H1       HT       0.417000       1.00800           0
     11712 TIP3     176      TIP3     H2       HT       0.417000       1.00800           0
     11713 TIP3     177      TIP3     OH2      OT      -0.834000       15.9994           0
     11714 TIP3     177      TIP3     H1       HT       0.417000       1.00800           0
     11715 TIP3     177      TIP3     H2       HT       0.417000       1.00800           0
     11716 TIP3     178      TIP3     OH2      OT      -0.834000       15.9994           0
     11717 TIP3     178      TIP3     H1       HT       0.417000       1.00800           0
     11718 TIP3     178      TIP3     H2       HT       0.417000       1.00800           0
     11719 TIP3     179      TIP3     OH2      OT      -0.834000       15.9994           0
     11720 TIP3     179      TIP3     H1       HT       0.417000       1.00800           0
     11721 TIP3     179      TIP3     H2       HT       0.417000       1.00800           0
     11722 TIP3     180      TIP3     OH2      OT      -0.834000       15.9994           0
     11723 TIP3     180      TIP3     H1       HT       0.417000       1.00800           0
     11724 TIP3     180      TIP3     H2       HT       0.417000       1.00800           0
     11725 TIP3     181      TIP3     OH2      OT      -0.834000       15.9994           0
     11726 TIP3     181      TIP3     H1       HT       0.417000       1.00800           0
     11727 TIP3     181      TIP3     H2       HT       0.417000       1.00800           0
     11728 TIP3     182      TIP3     OH2      OT      -0.834000       15.9994           0
     11729 TIP3     182      TIP3     H1       HT       0.417000       1.00800           0
     11730 TIP3     182      TIP3     H2       HT       0.417000       1.00800           0
     11731 TIP3     183      TIP3     OH2      OT      -0.834000       15.9994           0
     11732 TIP3     183      TIP3     H1       HT       0.417000       1.00800           0
     11733 TIP3     183      TIP3     H2       HT       0.417000       1.00800           0
     11734 TIP3     184      TIP3     OH2      OT      -0.834000       15.9994           0
     11735 TIP3     184      TIP3     H1       HT       0.417000       1.00800           0
     11736 TIP3     184      TIP3     H2       HT       0.417000       1.00800           0
     11737 TIP3     185      TIP3     OH2      OT      -0.834000       15.9994           0
     11738 TIP3     185      TIP3     H1       HT       0.417000       1.00800           0
     11739 TIP3     185      TIP3     H2       HT       0.417000       1.00800           0
     11740 TIP3     186      TIP3     OH2      OT      -0.834000       15.9994           0
     11741 TIP3     186      TIP3     H1       HT       0.417000       1.00800           0
     11742 TIP3     186      TIP3     H2       HT       0.417000       1.00800           0
     11743 TIP3     187      TIP3     OH2      OT      -0.834000       15.9994           0
     11744 TIP3     187      TIP3     H1       HT       0.417000       1.00800           0
     11745 TIP3     187      TIP3     H2       HT       0.417000       1.00800           0
     11746 TIP3     188      TIP3     OH2      OT      -0.834000       15.9994           0
     11747 TIP3     188      TIP3     H1       HT       0.417000       1.00800           0
     11748 TIP3     188      TIP3     H2       HT       0.417000       1.00800           0
     11749 TIP3     189      TIP3     OH2      OT      -0.834000       15.9994           0
     11750 TIP3     189      TIP3     H1       HT       0.417000       1.00800           0
     11751 TIP3     189      TIP3     H2       HT       0.417000       1.00800           0
     11752 TIP3     190      TIP3     OH2      OT      -0.834000       15.9994           0
     11753 TIP3     190      TIP3     H1       HT       0.417000       1.00800           0
     11754 TIP3     190      TIP3     H2       HT       0.417000       1.00800           0
     11755 TIP3     191      TIP3     OH2      OT      -0.834000       15.9994           0
     11756 TIP3     191      TIP3     H1       HT       0.417000       1.00800           0
     11757 TIP3     191      TIP3     H2       HT       0.417000       1.00800           0
     11758 TIP3     192      TIP3     OH2      OT      -0.834000       15.9994           0
     11759 TIP3     192      TIP3     H1       HT       0.417000       1.00800           0
     11760 TIP3     192      TIP3     H2       HT       0.417000       1.00800           0
     11761 TIP3     193      TIP3     OH2      OT      -0.834000       15.9994           0
     11762 TIP3     193      TIP3     H1       HT       0.417000       1.00800           0
     11763 TIP3     193      TIP3     H2       HT       0.417000       1.00800           0
     11764 TIP3     194      TIP3     OH2      OT      -0.834000       15.9994           0
     11765 TIP3     194      TIP3     H1       HT       0.417000       1.00800           0
     11766 TIP3     194      TIP3     H2       HT       0.417000       1.00800           0
     11767 TIP3     195      TIP3     OH2      OT      -0.834000       15.9994           0
     11768 TIP3     195      TIP3     H1       HT       0.417000       1.00800           0
     11769 TIP3     195      TIP3     H2       HT       0.417000       1.00800           0
     11770 TIP3     196      TIP3     OH2      OT      -0.834000       15.9994           0
     11771 TIP3     196      TIP3     H1       HT       0.417000       1.00800           0
     11772 TIP3     196      TIP3     H2       HT       0.417000       1.00800           0
     11773 TIP3     197      TIP3     OH2      OT      -0.834000       15.9994           0
     11774 TIP3     197      TIP3     H1       HT       0.417000       1.00800           0
     11775 TIP3     197      TIP3     H2       HT       0.417000       1.00800           0
     11776 TIP3     198      TIP3     OH2      OT      -0.834000       15.9994           0
     11777 TIP3     198      TIP3     H1       HT       0.417000       1.00800           0
     11778 TIP3     198      TIP3     H2       HT       0.417000       1.00800           0
     11779 TIP3     199      TIP3     OH2      OT      -0.834000       15.9994           0
     11780 TIP3     199      TIP3     H1       HT       0.417000       1.00800           0
     11781 TIP3     199      TIP3     H2       HT       0.417000       1.00800           0
     11782 TIP3     200      TIP3     OH2      OT      -0.834000       15.9994           0
     11783 TIP3     200      TIP3     H1       HT       0.417000       1.00800           0
     11784 TIP3     200      TIP3     H2       HT       0.417000       1.00800           0
     11785 TIP3     201      TIP3     OH2      OT      -0.834000       15.9994           0
     11786 TIP3     201      TIP3     H1       HT       0.417000       1.00800           0
     11787 TIP3     201      TIP3     H2       HT       0.417000       1.00800           0
     11788 TIP3     202      TIP3     OH2      OT      -0.834000       15.9994           0
     11789 TIP3     202      TIP3     H1       HT       0.417000       1.00800           0
     11790 TIP3     202      TIP3     H2       HT       0.417000       1.00800           0
     11791 TIP3     203      TIP3     OH2      OT      -0.834000       15.9994           0
     11792 TIP3     203      TIP3     H1       HT       0.417000       1.00800           0
     11793 TIP3     203      TIP3     H2       HT       0.417000       1.00800           0
     11794 TIP3     204      TIP3     OH2      OT      -0.834000       15.9994           0
     11795 TIP3     204      TIP3     H1       HT       0.417000       1.00800           0
     11796 TIP3     204      TIP3     H2       HT       0.417000       1.00800           0
     11797 TIP3     205      TIP3     OH2      OT      -0.834000       15.9994           0
     11798 TIP3     205      TIP3     H1       HT       0.417000       1.00800           0
     11799 TIP3     205      TIP3     H2       HT       0.417000       1.00800           0
     11800 TIP3     206      TIP3     OH2      OT      -0.834000       15.9994           0
     11801 TIP3     206      TIP3     H1       HT       0.417000       1.00800           0
     11802 TIP3     206      TIP3     H2       HT       0.417000       1.00800           0
     11803 TIP3     207      TIP3     OH2      OT      -0.834000       15.9994           0
     11804 TIP3     207      TIP3     H1       HT       0.417000       1.00800           0
     11805 TIP3     207      TIP3     H2       HT       0.417000       1.00800           0
     11806 TIP3     208      TIP3     OH2      OT      -0.834000       15.9994           0
     11807 TIP3     208      TIP3     H1       HT       0.417000       1.00800           0
     11808 TIP3     208      TIP3     H2       HT       0.417000       1.00800           0
     11809 TIP3     209      TIP3     OH2      OT      -0.834000       15.9994           0
     11810 TIP3     209      TIP3     H1       HT       0.417000       1.00800           0
     11811 TIP3     209      TIP3     H2       HT       0.417000       1.00800           0
     11812 TIP3     210      TIP3     OH2      OT      -0.834000       15.9994           0
     11813 TIP3     210      TIP3     H1       HT       0.417000       1.00800           0
     11814 TIP3     210      TIP3     H2       HT       0.417000       1.00800           0
     11815 TIP3     211      TIP3     OH2      OT      -0.834000       15.9994           0
     11816 TIP3     211      TIP3     H1       HT       0.417000       1.00800           0
     11817 TIP3     211      TIP3     H2       HT       0.417000       1.00800           0
     11818 TIP3     212      TIP3     OH2      OT      -0.834000       15.9994           0
     11819 TIP3     212      TIP3     H1       HT       0.417000       1.00800           0
     11820 TIP3     212      TIP3     H2       HT       0.417000       1.00800           0
     11821 TIP3     213      TIP3     OH2      OT      -0.834000       15.9994           0
     11822 TIP3     213      TIP3     H1       HT       0.417000       1.00800           0
     11823 TIP3     213      TIP3     H2       HT       0.417000       1.00800           0
     11824 TIP3     214      TIP3     OH2      OT      -0.834000       15.9994           0
     11825 TIP3     214      TIP3     H1       HT       0.417000       1.00800           0
     11826 TIP3     214      TIP3     H2       HT       0.417000       1.00800           0
     11827 TIP3     215      TIP3     OH2      OT      -0.834000       15.9994           0
     11828 TIP3     215      TIP3     H1       HT       0.417000       1.00800           0
     11829 TIP3     215      TIP3     H2       HT       0.417000       1.00800           0
     11830 TIP3     216      TIP3     OH2      OT      -0.834000       15.9994           0
     11831 TIP3     216      TIP3     H1       HT       0.417000       1.00800           0
     11832 TIP3     216      TIP3     H2       HT       0.417000       1.00800           0
     11833 TIP3     217      TIP3     OH2      OT      -0.834000       15.9994           0
     11834 TIP3     217      TIP3     H1       HT       0.417000       1.00800           0
     11835 TIP3     217      TIP3     H2       HT       0.417000       1.00800           0
     11836 TIP3     218      TIP3     OH2      OT      -0.834000       15.9994           0
     11837 TIP3     218      TIP3     H1       HT       0.417000       1.00800           0
     11838 TIP3     218      TIP3     H2       HT       0.417000       1.00800           0
     11839 TIP3     219      TIP3     OH2      OT      -0.834000       15.9994           0
     11840 TIP3     219      TIP3     H1       HT       0.417000       1.00800           0
     11841 TIP3     219      TIP3     H2       HT       0.417000       1.00800           0
     11842 TIP3     220      TIP3     OH2      OT      -0.834000       15.9994           0
     11843 TIP3     220      TIP3     H1       HT       0.417000       1.00800           0
     11844 TIP3     220      TIP3     H2       HT       0.417000       1.00800           0
     11845 TIP3     221      TIP3     OH2      OT      -0.834000       15.9994           0
     11846 TIP3     221      TIP3     H1       HT       0.417000       1.00800           0
     11847 TIP3     221      TIP3     H2       HT       0.417000       1.00800           0
     11848 TIP3     222      TIP3     OH2      OT      -0.834000       15.9994           0
     11849 TIP3     222      TIP3     H1       HT       0.417000       1.00800           0
     11850 TIP3     222      TIP3     H2       HT       0.417000       1.00800           0
     11851 TIP3     223      TIP3     OH2      OT      -0.834000       15.9994           0
     11852 TIP3     223      TIP3     H1       HT       0.417000       1.00800           0
     11853 TIP3     223      TIP3     H2       HT       0.417000       1.00800           0
     11854 TIP3     224      TIP3     OH2      OT      -0.834000       15.9994           0
     11855 TIP3     224      TIP3     H1       HT       0.417000       1.00800           0
     11856 TIP3     224      TIP3     H2       HT       0.417000       1.00800           0
     11857 TIP3     225      TIP3     OH2      OT      -0.834000       15.9994           0
     11858 TIP3     225      TIP3     H1       HT       0.417000       1.00800           0
     11859 TIP3     225      TIP3     H2       HT       0.417000       1.00800           0
     11860 TIP3     226      TIP3     OH2      OT      -0.834000       15.9994           0
     11861 TIP3     226      TIP3     H1       HT       0.417000       1.00800           0
     11862 TIP3     226      TIP3     H2       HT       0.417000       1.00800           0
     11863 TIP3     227      TIP3     OH2      OT      -0.834000       15.9994           0
     11864 TIP3     227      TIP3     H1       HT       0.417000       1.00800           0
     11865 TIP3     227      TIP3     H2       HT       0.417000       1.00800           0
     11866 TIP3     228      TIP3     OH2      OT      -0.834000       15.9994           0
     11867 TIP3     228      TIP3     H1       HT       0.417000       1.00800           0
     11868 TIP3     228      TIP3     H2       HT       0.417000       1.00800           0
     11869 TIP3     229      TIP3     OH2      OT      -0.834000       15.9994           0
     11870 TIP3     229      TIP3     H1       HT       0.417000       1.00800           0
     11871 TIP3     229      TIP3     H2       HT       0.417000       1.00800           0
     11872 TIP3     230      TIP3     OH2      OT      -0.834000       15.9994           0
     11873 TIP3     230      TIP3     H1       HT       0.417000       1.00800           0
     11874 TIP3     230      TIP3     H2       HT       0.417000       1.00800           0
     11875 TIP3     231      TIP3     OH2      OT      -0.834000       15.9994           0
     11876 TIP3     231      TIP3     H1       HT       0.417000       1.00800           0
     11877 TIP3     231      TIP3     H2       HT       0.417000       1.00800           0
     11878 TIP3     232      TIP3     OH2      OT      -0.834000       15.9994           0
     11879 TIP3     232      TIP3     H1       HT       0.417000       1.00800           0
     11880 TIP3     232      TIP3     H2       HT       0.417000       1.00800           0
     11881 TIP3     233      TIP3     OH2      OT      -0.834000       15.9994           0
     11882 TIP3     233      TIP3     H1       HT       0.417000       1.00800           0
     11883 TIP3     233      TIP3     H2       HT       0.417000       1.00800           0
     11884 TIP3     234      TIP3     OH2      OT      -0.834000       15.9994           0
     11885 TIP3     234      TIP3     H1       HT       0.417000       1.00800           0
     11886 TIP3     234      TIP3     H2       HT       0.417000       1.00800           0
     11887 TIP3     235      TIP3     OH2      OT      -0.834000       15.9994           0
     11888 TIP3     235      TIP3     H1       HT       0.417000       1.00800           0
     11889 TIP3     235      TIP3     H2       HT       0.417000       1.00800           0
     11890 TIP3     236      TIP3     OH2      OT      -0.834000       15.9994           0
     11891 TIP3     236      TIP3     H1       HT       0.417000       1.00800           0
     11892 TIP3     236      TIP3     H2       HT       0.417000       1.00800           0
     11893 TIP3     237      TIP3     OH2      OT      -0.834000       15.9994           0
     11894 TIP3     237      TIP3     H1       HT       0.417000       1.00800           0
     11895 TIP3     237      TIP3     H2       HT       0.417000       1.00800           0
     11896 TIP3     238      TIP3     OH2      OT      -0.834000       15.9994           0
     11897 TIP3     238      TIP3     H1       HT       0.417000       1.00800           0
     11898 TIP3     238      TIP3     H2       HT       0.417000       1.00800           0
     11899 TIP3     239      TIP3     OH2      OT      -0.834000       15.9994           0
     11900 TIP3     239      TIP3     H1       HT       0.417000       1.00800           0
     11901 TIP3     239      TIP3     H2       HT       0.417000       1.00800           0
     11902 TIP3     240      TIP3     OH2      OT      -0.834000       15.9994           0
     11903 TIP3     240      TIP3     H1       HT       0.417000       1.00800           0
     11904 TIP3     240      TIP3     H2       HT       0.417000       1.00800           0
     11905 TIP3     241      TIP3     OH2      OT      -0.834000       15.9994           0
     11906 TIP3     241      TIP3     H1       HT       0.417000       1.00800           0
     11907 TIP3     241      TIP3     H2       HT       0.417000       1.00800           0
     11908 TIP3     242      TIP3     OH2      OT      -0.834000       15.9994           0
     11909 TIP3     242      TIP3     H1       HT       0.417000       1.00800           0
     11910 TIP3     242      TIP3     H2       HT       0.417000       1.00800           0
     11911 TIP3     243      TIP3     OH2      OT      -0.834000       15.9994           0
     11912 TIP3     243      TIP3     H1       HT       0.417000       1.00800           0
     11913 TIP3     243      TIP3     H2       HT       0.417000       1.00800           0
     11914 TIP3     244      TIP3     OH2      OT      -0.834000       15.9994           0
     11915 TIP3     244      TIP3     H1       HT       0.417000       1.00800           0
     11916 TIP3     244      TIP3     H2       HT       0.417000       1.00800           0
     11917 TIP3     245      TIP3     OH2      OT      -0.834000       15.9994           0
     11918 TIP3     245      TIP3     H1       HT       0.417000       1.00800           0
     11919 TIP3     245      TIP3     H2       HT       0.417000       1.00800           0
     11920 TIP3     246      TIP3     OH2      OT      -0.834000       15.9994           0
     11921 TIP3     246      TIP3     H1       HT       0.417000       1.00800           0
     11922 TIP3     246      TIP3     H2       HT       0.417000       1.00800           0
     11923 TIP3     247      TIP3     OH2      OT      -0.834000       15.9994           0
     11924 TIP3     247      TIP3     H1       HT       0.417000       1.00800           0
     11925 TIP3     247      TIP3     H2       HT       0.417000       1.00800           0
     11926 TIP3     248      TIP3     OH2      OT      -0.834000       15.9994           0
     11927 TIP3     248      TIP3     H1       HT       0.417000       1.00800           0
     11928 TIP3     248      TIP3     H2       HT       0.417000       1.00800           0
     11929 TIP3     249      TIP3     OH2      OT      -0.834000       15.9994           0
     11930 TIP3     249      TIP3     H1       HT       0.417000       1.00800           0
     11931 TIP3     249      TIP3     H2       HT       0.417000       1.00800           0
     11932 TIP3     250      TIP3     OH2      OT      -0.834000       15.9994           0
     11933 TIP3     250      TIP3     H1       HT       0.417000       1.00800           0
     11934 TIP3     250      TIP3     H2       HT       0.417000       1.00800           0
     11935 TIP3     251      TIP3     OH2      OT      -0.834000       15.9994           0
     11936 TIP3     251      TIP3     H1       HT       0.417000       1.00800           0
     11937 TIP3     251      TIP3     H2       HT       0.417000       1.00800           0
     11938 TIP3     252      TIP3     OH2      OT      -0.834000       15.9994           0
     11939 TIP3     252      TIP3     H1       HT       0.417000       1.00800           0
     11940 TIP3     252      TIP3     H2       HT       0.417000       1.00800           0
     11941 TIP3     253      TIP3     OH2      OT      -0.834000       15.9994           0
     11942 TIP3     253      TIP3     H1       HT       0.417000       1.00800           0
     11943 TIP3     253      TIP3     H2       HT       0.417000       1.00800           0
     11944 TIP3     254      TIP3     OH2      OT      -0.834000       15.9994           0
     11945 TIP3     254      TIP3     H1       HT       0.417000       1.00800           0
     11946 TIP3     254      TIP3     H2       HT       0.417000       1.00800           0
     11947 TIP3     255      TIP3     OH2      OT      -0.834000       15.9994           0
     11948 TIP3     255      TIP3     H1       HT       0.417000       1.00800           0
     11949 TIP3     255      TIP3     H2       HT       0.417000       1.00800           0
     11950 TIP3     256      TIP3     OH2      OT      -0.834000       15.9994           0
     11951 TIP3     256      TIP3     H1       HT       0.417000       1.00800           0
     11952 TIP3     256      TIP3     H2       HT       0.417000       1.00800           0
     11953 TIP3     257      TIP3     OH2      OT      -0.834000       15.9994           0
     11954 TIP3     257      TIP3     H1       HT       0.417000       1.00800           0
     11955 TIP3     257      TIP3     H2       HT       0.417000       1.00800           0
     11956 TIP3     258      TIP3     OH2      OT      -0.834000       15.9994           0
     11957 TIP3     258      TIP3     H1       HT       0.417000       1.00800           0
     11958 TIP3     258      TIP3     H2       HT       0.417000       1.00800           0
     11959 TIP3     259      TIP3     OH2      OT      -0.834000       15.9994           0
     11960 TIP3     259      TIP3     H1       HT       0.417000       1.00800           0
     11961 TIP3     259      TIP3     H2       HT       0.417000       1.00800           0
     11962 TIP3     260      TIP3     OH2      OT      -0.834000       15.9994           0
     11963 TIP3     260      TIP3     H1       HT       0.417000       1.00800           0
     11964 TIP3     260      TIP3     H2       HT       0.417000       1.00800           0
     11965 TIP3     261      TIP3     OH2      OT      -0.834000       15.9994           0
     11966 TIP3     261      TIP3     H1       HT       0.417000       1.00800           0
     11967 TIP3     261      TIP3     H2       HT       0.417000       1.00800           0
     11968 TIP3     262      TIP3     OH2      OT      -0.834000       15.9994           0
     11969 TIP3     262      TIP3     H1       HT       0.417000       1.00800           0
     11970 TIP3     262      TIP3     H2       HT       0.417000       1.00800           0
     11971 TIP3     263      TIP3     OH2      OT      -0.834000       15.9994           0
     11972 TIP3     263      TIP3     H1       HT       0.417000       1.00800           0
     11973 TIP3     263      TIP3     H2       HT       0.417000       1.00800           0
     11974 TIP3     264      TIP3     OH2      OT      -0.834000       15.9994           0
     11975 TIP3     264      TIP3     H1       HT       0.417000       1.00800           0
     11976 TIP3     264      TIP3     H2       HT       0.417000       1.00800           0
     11977 TIP3     265      TIP3     OH2      OT      -0.834000       15.9994           0
     11978 TIP3     265      TIP3     H1       HT       0.417000       1.00800           0
     11979 TIP3     265      TIP3     H2       HT       0.417000       1.00800           0
     11980 TIP3     266      TIP3     OH2      OT      -0.834000       15.9994           0
     11981 TIP3     266      TIP3     H1       HT       0.417000       1.00800           0
     11982 TIP3     266      TIP3     H2       HT       0.417000       1.00800           0
     11983 TIP3     267      TIP3     OH2      OT      -0.834000       15.9994           0
     11984 TIP3     267      TIP3     H1       HT       0.417000       1.00800           0
     11985 TIP3     267      TIP3     H2       HT       0.417000       1.00800           0
     11986 TIP3     268      TIP3     OH2      OT      -0.834000       15.9994           0
     11987 TIP3     268      TIP3     H1       HT       0.417000       1.00800           0
     11988 TIP3     268      TIP3     H2       HT       0.417000       1.00800           0
     11989 TIP3     269      TIP3     OH2      OT      -0.834000       15.9994           0
     11990 TIP3     269      TIP3     H1       HT       0.417000       1.00800           0
     11991 TIP3     269      TIP3     H2       HT       0.417000       1.00800           0
     11992 TIP3     270      TIP3     OH2      OT      -0.834000       15.9994           0
     11993 TIP3     270      TIP3     H1       HT       0.417000       1.00800           0
     11994 TIP3     270      TIP3     H2       HT       0.417000       1.00800           0
     11995 TIP3     271      TIP3     OH2      OT      -0.834000       15.9994           0
     11996 TIP3     271      TIP3     H1       HT       0.417000       1.00800           0
     11997 TIP3     271      TIP3     H2       HT       0.417000       1.00800           0
     11998 TIP3     272      TIP3     OH2      OT      -0.834000       15.9994           0
     11999 TIP3     272      TIP3     H1       HT       0.417000       1.00800           0
     12000 TIP3     272      TIP3     H2       HT       0.417000       1.00800           0
     12001 TIP3     273      TIP3     OH2      OT      -0.834000       15.9994           0
     12002 TIP3     273      TIP3     H1       HT       0.417000       1.00800           0
     12003 TIP3     273      TIP3     H2       HT       0.417000       1.00800           0
     12004 TIP3     274      TIP3     OH2      OT      -0.834000       15.9994           0
     12005 TIP3     274      TIP3     H1       HT       0.417000       1.00800           0
     12006 TIP3     274      TIP3     H2       HT       0.417000       1.00800           0
     12007 TIP3     275      TIP3     OH2      OT      -0.834000       15.9994           0
     12008 TIP3     275      TIP3     H1       HT       0.417000       1.00800           0
     12009 TIP3     275      TIP3     H2       HT       0.417000       1.00800           0
     12010 TIP3     276      TIP3     OH2      OT      -0.834000       15.9994           0
     12011 TIP3     276      TIP3     H1       HT       0.417000       1.00800           0
     12012 TIP3     276      TIP3     H2       HT       0.417000       1.00800           0
     12013 TIP3     277      TIP3     OH2      OT      -0.834000       15.9994           0
     12014 TIP3     277      TIP3     H1       HT       0.417000       1.00800           0
     12015 TIP3     277      TIP3     H2       HT       0.417000       1.00800           0
     12016 TIP3     278      TIP3     OH2      OT      -0.834000       15.9994           0
     12017 TIP3     278      TIP3     H1       HT       0.417000       1.00800           0
     12018 TIP3     278      TIP3     H2       HT       0.417000       1.00800           0
     12019 TIP3     279      TIP3     OH2      OT      -0.834000       15.9994           0
     12020 TIP3     279      TIP3     H1       HT       0.417000       1.00800           0
     12021 TIP3     279      TIP3     H2       HT       0.417000       1.00800           0
     12022 TIP3     280      TIP3     OH2      OT      -0.834000       15.9994           0
     12023 TIP3     280      TIP3     H1       HT       0.417000       1.00800           0
     12024 TIP3     280      TIP3     H2       HT       0.417000       1.00800           0
     12025 TIP3     281      TIP3     OH2      OT      -0.834000       15.9994           0
     12026 TIP3     281      TIP3     H1       HT       0.417000       1.00800           0
     12027 TIP3     281      TIP3     H2       HT       0.417000       1.00800           0
     12028 TIP3     282      TIP3     OH2      OT      -0.834000       15.9994           0
     12029 TIP3     282      TIP3     H1       HT       0.417000       1.00800           0
     12030 TIP3     282      TIP3     H2       HT       0.417000       1.00800           0
     12031 TIP3     283      TIP3     OH2      OT      -0.834000       15.9994           0
     12032 TIP3     283      TIP3     H1       HT       0.417000       1.00800           0
     12033 TIP3     283      TIP3     H2       HT       0.417000       1.00800           0
     12034 TIP3     284      TIP3     OH2      OT      -0.834000       15.9994           0
     12035 TIP3     284      TIP3     H1       HT       0.417000       1.00800           0
     12036 TIP3     284      TIP3     H2       HT       0.417000       1.00800           0
     12037 TIP3     285      TIP3     OH2      OT      -0.834000       15.9994           0
     12038 TIP3     285      TIP3     H1       HT       0.417000       1.00800           0
     12039 TIP3     285      TIP3     H2       HT       0.417000       1.00800           0
     12040 TIP3     286      TIP3     OH2      OT      -0.834000       15.9994           0
     12041 TIP3     286      TIP3     H1       HT       0.417000       1.00800           0
     12042 TIP3     286      TIP3     H2       HT       0.417000       1.00800           0
     12043 TIP3     287      TIP3     OH2      OT      -0.834000       15.9994           0
     12044 TIP3     287      TIP3     H1       HT       0.417000       1.00800           0
     12045 TIP3     287      TIP3     H2       HT       0.417000       1.00800           0
     12046 TIP3     288      TIP3     OH2      OT      -0.834000       15.9994           0
     12047 TIP3     288      TIP3     H1       HT       0.417000       1.00800           0
     12048 TIP3     288      TIP3     H2       HT       0.417000       1.00800           0
     12049 TIP3     289      TIP3     OH2      OT      -0.834000       15.9994           0
     12050 TIP3     289      TIP3     H1       HT       0.417000       1.00800           0
     12051 TIP3     289      TIP3     H2       HT       0.417000       1.00800           0
     12052 TIP3     290      TIP3     OH2      OT      -0.834000       15.9994           0
     12053 TIP3     290      TIP3     H1       HT       0.417000       1.00800           0
     12054 TIP3     290      TIP3     H2       HT       0.417000       1.00800           0
     12055 TIP3     291      TIP3     OH2      OT      -0.834000       15.9994           0
     12056 TIP3     291      TIP3     H1       HT       0.417000       1.00800           0
     12057 TIP3     291      TIP3     H2       HT       0.417000       1.00800           0
     12058 TIP3     292      TIP3     OH2      OT      -0.834000       15.9994           0
     12059 TIP3     292      TIP3     H1       HT       0.417000       1.00800           0
     12060 TIP3     292      TIP3     H2       HT       0.417000       1.00800           0
     12061 TIP3     293      TIP3     OH2      OT      -0.834000       15.9994           0
     12062 TIP3     293      TIP3     H1       HT       0.417000       1.00800           0
     12063 TIP3     293      TIP3     H2       HT       0.417000       1.00800           0
     12064 TIP3     294      TIP3     OH2      OT      -0.834000       15.9994           0
     12065 TIP3     294      TIP3     H1       HT       0.417000       1.00800           0
     12066 TIP3     294      TIP3     H2       HT       0.417000       1.00800           0
     12067 TIP3     295      TIP3     OH2      OT      -0.834000       15.9994           0
     12068 TIP3     295      TIP3     H1       HT       0.417000       1.00800           0
     12069 TIP3     295      TIP3     H2       HT       0.417000       1.00800           0
     12070 TIP3     296      TIP3     OH2      OT      -0.834000       15.9994           0
     12071 TIP3     296      TIP3     H1       HT       0.417000       1.00800           0
     12072 TIP3     296      TIP3     H2       HT       0.417000       1.00800           0
     12073 TIP3     297      TIP3     OH2      OT      -0.834000       15.9994           0
     12074 TIP3     297      TIP3     H1       HT       0.417000       1.00800           0
     12075 TIP3     297      TIP3     H2       HT       0.417000       1.00800           0
     12076 TIP3     298      TIP3     OH2      OT      -0.834000       15.9994           0
     12077 TIP3     298      TIP3     H1       HT       0.417000       1.00800           0
     12078 TIP3     298      TIP3     H2       HT       0.417000       1.00800           0
     12079 TIP3     299      TIP3     OH2      OT      -0.834000       15.9994           0
     12080 TIP3     299      TIP3     H1       HT       0.417000       1.00800           0
     12081 TIP3     299      TIP3     H2       HT       0.417000       1.00800           0
     12082 TIP3     300      TIP3     OH2      OT      -0.834000       15.9994           0
     12083 TIP3     300      TIP3     H1       HT       0.417000       1.00800           0
     12084 TIP3     300      TIP3     H2       HT       0.417000       1.00800           0
     12085 TIP3     301      TIP3     OH2      OT      -0.834000       15.9994           0
     12086 TIP3     301      TIP3     H1       HT       0.417000       1.00800           0
     12087 TIP3     301      TIP3     H2       HT       0.417000       1.00800           0
     12088 TIP3     302      TIP3     OH2      OT      -0.834000       15.9994           0
     12089 TIP3     302      TIP3     H1       HT       0.417000       1.00800           0
     12090 TIP3     302      TIP3     H2       HT       0.417000       1.00800           0
     12091 TIP3     303      TIP3     OH2      OT      -0.834000       15.9994           0
     12092 TIP3     303      TIP3     H1       HT       0.417000       1.00800           0
     12093 TIP3     303      TIP3     H2       HT       0.417000       1.00800           0
     12094 TIP3     304      TIP3     OH2      OT      -0.834000       15.9994           0
     12095 TIP3     304      TIP3     H1       HT       0.417000       1.00800           0
     12096 TIP3     304      TIP3     H2       HT       0.417000       1.00800           0
     12097 TIP3     305      TIP3     OH2      OT      -0.834000       15.9994           0
     12098 TIP3     305      TIP3     H1       HT       0.417000       1.00800           0
     12099 TIP3     305      TIP3     H2       HT       0.417000       1.00800           0
     12100 TIP3     306      TIP3     OH2      OT      -0.834000       15.9994           0
     12101 TIP3     306      TIP3     H1       HT       0.417000       1.00800           0
     12102 TIP3     306      TIP3     H2       HT       0.417000       1.00800           0
     12103 TIP3     307      TIP3     OH2      OT      -0.834000       15.9994           0
     12104 TIP3     307      TIP3     H1       HT       0.417000       1.00800           0
     12105 TIP3     307      TIP3     H2       HT       0.417000       1.00800           0
     12106 TIP3     308      TIP3     OH2      OT      -0.834000       15.9994           0
     12107 TIP3     308      TIP3     H1       HT       0.417000       1.00800           0
     12108 TIP3     308      TIP3     H2       HT       0.417000       1.00800           0
     12109 TIP3     309      TIP3     OH2      OT      -0.834000       15.9994           0
     12110 TIP3     309      TIP3     H1       HT       0.417000       1.00800           0
     12111 TIP3     309      TIP3     H2       HT       0.417000       1.00800           0
     12112 TIP3     310      TIP3     OH2      OT      -0.834000       15.9994           0
     12113 TIP3     310      TIP3     H1       HT       0.417000       1.00800           0
     12114 TIP3     310      TIP3     H2       HT       0.417000       1.00800           0
     12115 TIP3     311      TIP3     OH2      OT      -0.834000       15.9994           0
     12116 TIP3     311      TIP3     H1       HT       0.417000       1.00800           0
     12117 TIP3     311      TIP3     H2       HT       0.417000       1.00800           0
     12118 TIP3     312      TIP3     OH2      OT      -0.834000       15.9994           0
     12119 TIP3     312      TIP3     H1       HT       0.417000       1.00800           0
     12120 TIP3     312      TIP3     H2       HT       0.417000       1.00800           0
     12121 TIP3     313      TIP3     OH2      OT      -0.834000       15.9994           0
     12122 TIP3     313      TIP3     H1       HT       0.417000       1.00800           0
     12123 TIP3     313      TIP3     H2       HT       0.417000       1.00800           0
     12124 TIP3     314      TIP3     OH2      OT      -0.834000       15.9994           0
     12125 TIP3     314      TIP3     H1       HT       0.417000       1.00800           0
     12126 TIP3     314      TIP3     H2       HT       0.417000       1.00800           0
     12127 TIP3     315      TIP3     OH2      OT      -0.834000       15.9994           0
     12128 TIP3     315      TIP3     H1       HT       0.417000       1.00800           0
     12129 TIP3     315      TIP3     H2       HT       0.417000       1.00800           0
     12130 TIP3     316      TIP3     OH2      OT      -0.834000       15.9994           0
     12131 TIP3     316      TIP3     H1       HT       0.417000       1.00800           0
     12132 TIP3     316      TIP3     H2       HT       0.417000       1.00800           0
     12133 TIP3     317      TIP3     OH2      OT      -0.834000       15.9994           0
     12134 TIP3     317      TIP3     H1       HT       0.417000       1.00800           0
     12135 TIP3     317      TIP3     H2       HT       0.417000       1.00800           0
     12136 TIP3     318      TIP3     OH2      OT      -0.834000       15.9994           0
     12137 TIP3     318      TIP3     H1       HT       0.417000       1.00800           0
     12138 TIP3     318      TIP3     H2       HT       0.417000       1.00800           0
     12139 TIP3     319      TIP3     OH2      OT      -0.834000       15.9994           0
     12140 TIP3     319      TIP3     H1       HT       0.417000       1.00800           0
     12141 TIP3     319      TIP3     H2       HT       0.417000       1.00800           0
     12142 TIP3     320      TIP3     OH2      OT      -0.834000       15.9994           0
     12143 TIP3     320      TIP3     H1       HT       0.417000       1.00800           0
     12144 TIP3     320      TIP3     H2       HT       0.417000       1.00800           0
     12145 TIP3     321      TIP3     OH2      OT      -0.834000       15.9994           0
     12146 TIP3     321      TIP3     H1       HT       0.417000       1.00800           0
     12147 TIP3     321      TIP3     H2       HT       0.417000       1.00800           0
     12148 TIP3     322      TIP3     OH2      OT      -0.834000       15.9994           0
     12149 TIP3     322      TIP3     H1       HT       0.417000       1.00800           0
     12150 TIP3     322      TIP3     H2       HT       0.417000       1.00800           0
     12151 TIP3     323      TIP3     OH2      OT      -0.834000       15.9994           0
     12152 TIP3     323      TIP3     H1       HT       0.417000       1.00800           0
     12153 TIP3     323      TIP3     H2       HT       0.417000       1.00800           0
     12154 TIP3     324      TIP3     OH2      OT      -0.834000       15.9994           0
     12155 TIP3     324      TIP3     H1       HT       0.417000       1.00800           0
     12156 TIP3     324      TIP3     H2       HT       0.417000       1.00800           0
     12157 TIP3     325      TIP3     OH2      OT      -0.834000       15.9994           0
     12158 TIP3     325      TIP3     H1       HT       0.417000       1.00800           0
     12159 TIP3     325      TIP3     H2       HT       0.417000       1.00800           0
     12160 TIP3     326      TIP3     OH2      OT      -0.834000       15.9994           0
     12161 TIP3     326      TIP3     H1       HT       0.417000       1.00800           0
     12162 TIP3     326      TIP3     H2       HT       0.417000       1.00800           0
     12163 TIP3     327      TIP3     OH2      OT      -0.834000       15.9994           0
     12164 TIP3     327      TIP3     H1       HT       0.417000       1.00800           0
     12165 TIP3     327      TIP3     H2       HT       0.417000       1.00800           0
     12166 TIP3     328      TIP3     OH2      OT      -0.834000       15.9994           0
     12167 TIP3     328      TIP3     H1       HT       0.417000       1.00800           0
     12168 TIP3     328      TIP3     H2       HT       0.417000       1.00800           0
     12169 TIP3     329      TIP3     OH2      OT      -0.834000       15.9994           0
     12170 TIP3     329      TIP3     H1       HT       0.417000       1.00800           0
     12171 TIP3     329      TIP3     H2       HT       0.417000       1.00800           0
     12172 TIP3     330      TIP3     OH2      OT      -0.834000       15.9994           0
     12173 TIP3     330      TIP3     H1       HT       0.417000       1.00800           0
     12174 TIP3     330      TIP3     H2       HT       0.417000       1.00800           0
     12175 TIP3     331      TIP3     OH2      OT      -0.834000       15.9994           0
     12176 TIP3     331      TIP3     H1       HT       0.417000       1.00800           0
     12177 TIP3     331      TIP3     H2       HT       0.417000       1.00800           0
     12178 TIP3     332      TIP3     OH2      OT      -0.834000       15.9994           0
     12179 TIP3     332      TIP3     H1       HT       0.417000       1.00800           0
     12180 TIP3     332      TIP3     H2       HT       0.417000       1.00800           0
     12181 TIP3     333      TIP3     OH2      OT      -0.834000       15.9994           0
     12182 TIP3     333      TIP3     H1       HT       0.417000       1.00800           0
     12183 TIP3     333      TIP3     H2       HT       0.417000       1.00800           0
     12184 TIP3     334      TIP3     OH2      OT      -0.834000       15.9994           0
     12185 TIP3     334      TIP3     H1       HT       0.417000       1.00800           0
     12186 TIP3     334      TIP3     H2       HT       0.417000       1.00800           0
     12187 TIP3     335      TIP3     OH2      OT      -0.834000       15.9994           0
     12188 TIP3     335      TIP3     H1       HT       0.417000       1.00800           0
     12189 TIP3     335      TIP3     H2       HT       0.417000       1.00800           0
     12190 TIP3     336      TIP3     OH2      OT      -0.834000       15.9994           0
     12191 TIP3     336      TIP3     H1       HT       0.417000       1.00800           0
     12192 TIP3     336      TIP3     H2       HT       0.417000       1.00800           0
     12193 TIP3     337      TIP3     OH2      OT      -0.834000       15.9994           0
     12194 TIP3     337      TIP3     H1       HT       0.417000       1.00800           0
     12195 TIP3     337      TIP3     H2       HT       0.417000       1.00800           0
     12196 TIP3     338      TIP3     OH2      OT      -0.834000       15.9994           0
     12197 TIP3     338      TIP3     H1       HT       0.417000       1.00800           0
     12198 TIP3     338      TIP3     H2       HT       0.417000       1.00800           0
     12199 TIP3     339      TIP3     OH2      OT      -0.834000       15.9994           0
     12200 TIP3     339      TIP3     H1       HT       0.417000       1.00800           0
     12201 TIP3     339      TIP3     H2       HT       0.417000       1.00800           0
     12202 TIP3     340      TIP3     OH2      OT      -0.834000       15.9994           0
     12203 TIP3     340      TIP3     H1       HT       0.417000       1.00800           0
     12204 TIP3     340      TIP3     H2       HT       0.417000       1.00800           0
     12205 TIP3     341      TIP3     OH2      OT      -0.834000       15.9994           0
     12206 TIP3     341      TIP3     H1       HT       0.417000       1.00800           0
     12207 TIP3     341      TIP3     H2       HT       0.417000       1.00800           0
     12208 TIP3     342      TIP3     OH2      OT      -0.834000       15.9994           0
     12209 TIP3     342      TIP3     H1       HT       0.417000       1.00800           0
     12210 TIP3     342      TIP3     H2       HT       0.417000       1.00800           0
     12211 TIP3     343      TIP3     OH2      OT      -0.834000       15.9994           0
     12212 TIP3     343      TIP3     H1       HT       0.417000       1.00800           0
     12213 TIP3     343      TIP3     H2       HT       0.417000       1.00800           0
     12214 TIP3     344      TIP3     OH2      OT      -0.834000       15.9994           0
     12215 TIP3     344      TIP3     H1       HT       0.417000       1.00800           0
     12216 TIP3     344      TIP3     H2       HT       0.417000       1.00800           0
     12217 TIP3     345      TIP3     OH2      OT      -0.834000       15.9994           0
     12218 TIP3     345      TIP3     H1       HT       0.417000       1.00800           0
     12219 TIP3     345      TIP3     H2       HT       0.417000       1.00800           0
     12220 TIP3     346      TIP3     OH2      OT      -0.834000       15.9994           0
     12221 TIP3     346      TIP3     H1       HT       0.417000       1.00800           0
     12222 TIP3     346      TIP3     H2       HT       0.417000       1.00800           0
     12223 TIP3     347      TIP3     OH2      OT      -0.834000       15.9994           0
     12224 TIP3     347      TIP3     H1       HT       0.417000       1.00800           0
     12225 TIP3     347      TIP3     H2       HT       0.417000       1.00800           0
     12226 TIP3     348      TIP3     OH2      OT      -0.834000       15.9994           0
     12227 TIP3     348      TIP3     H1       HT       0.417000       1.00800           0
     12228 TIP3     348      TIP3     H2       HT       0.417000       1.00800           0
     12229 TIP3     349      TIP3     OH2      OT      -0.834000       15.9994           0
     12230 TIP3     349      TIP3     H1       HT       0.417000       1.00800           0
     12231 TIP3     349      TIP3     H2       HT       0.417000       1.00800           0
     12232 TIP3     350      TIP3     OH2      OT      -0.834000       15.9994           0
     12233 TIP3     350      TIP3     H1       HT       0.417000       1.00800           0
     12234 TIP3     350      TIP3     H2       HT       0.417000       1.00800           0
     12235 TIP3     351      TIP3     OH2      OT      -0.834000       15.9994           0
     12236 TIP3     351      TIP3     H1       HT       0.417000       1.00800           0
     12237 TIP3     351      TIP3     H2       HT       0.417000       1.00800           0
     12238 TIP3     352      TIP3     OH2      OT      -0.834000       15.9994           0
     12239 TIP3     352      TIP3     H1       HT       0.417000       1.00800           0
     12240 TIP3     352      TIP3     H2       HT       0.417000       1.00800           0
     12241 TIP3     353      TIP3     OH2      OT      -0.834000       15.9994           0
     12242 TIP3     353      TIP3     H1       HT       0.417000       1.00800           0
     12243 TIP3     353      TIP3     H2       HT       0.417000       1.00800           0
     12244 TIP3     354      TIP3     OH2      OT      -0.834000       15.9994           0
     12245 TIP3     354      TIP3     H1       HT       0.417000       1.00800           0
     12246 TIP3     354      TIP3     H2       HT       0.417000       1.00800           0
     12247 TIP3     355      TIP3     OH2      OT      -0.834000       15.9994           0
     12248 TIP3     355      TIP3     H1       HT       0.417000       1.00800           0
     12249 TIP3     355      TIP3     H2       HT       0.417000       1.00800           0
     12250 TIP3     356      TIP3     OH2      OT      -0.834000       15.9994           0
     12251 TIP3     356      TIP3     H1       HT       0.417000       1.00800           0
     12252 TIP3     356      TIP3     H2       HT       0.417000       1.00800           0
     12253 TIP3     357      TIP3     OH2      OT      -0.834000       15.9994           0
     12254 TIP3     357      TIP3     H1       HT       0.417000       1.00800           0
     12255 TIP3     357      TIP3     H2       HT       0.417000       1.00800           0
     12256 TIP3     358      TIP3     OH2      OT      -0.834000       15.9994           0
     12257 TIP3     358      TIP3     H1       HT       0.417000       1.00800           0
     12258 TIP3     358      TIP3     H2       HT       0.417000       1.00800           0
     12259 TIP3     359      TIP3     OH2      OT      -0.834000       15.9994           0
     12260 TIP3     359      TIP3     H1       HT       0.417000       1.00800           0
     12261 TIP3     359      TIP3     H2       HT       0.417000       1.00800           0
     12262 TIP3     360      TIP3     OH2      OT      -0.834000       15.9994           0
     12263 TIP3     360      TIP3     H1       HT       0.417000       1.00800           0
     12264 TIP3     360      TIP3     H2       HT       0.417000       1.00800           0
     12265 TIP3     361      TIP3     OH2      OT      -0.834000       15.9994           0
     12266 TIP3     361      TIP3     H1       HT       0.417000       1.00800           0
     12267 TIP3     361      TIP3     H2       HT       0.417000       1.00800           0
     12268 TIP3     362      TIP3     OH2      OT      -0.834000       15.9994           0
     12269 TIP3     362      TIP3     H1       HT       0.417000       1.00800           0
     12270 TIP3     362      TIP3     H2       HT       0.417000       1.00800           0
     12271 TIP3     363      TIP3     OH2      OT      -0.834000       15.9994           0
     12272 TIP3     363      TIP3     H1       HT       0.417000       1.00800           0
     12273 TIP3     363      TIP3     H2       HT       0.417000       1.00800           0
     12274 TIP3     364      TIP3     OH2      OT      -0.834000       15.9994           0
     12275 TIP3     364      TIP3     H1       HT       0.417000       1.00800           0
     12276 TIP3     364      TIP3     H2       HT       0.417000       1.00800           0
     12277 TIP3     365      TIP3     OH2      OT      -0.834000       15.9994           0
     12278 TIP3     365      TIP3     H1       HT       0.417000       1.00800           0
     12279 TIP3     365      TIP3     H2       HT       0.417000       1.00800           0
     12280 TIP3     366      TIP3     OH2      OT      -0.834000       15.9994           0
     12281 TIP3     366      TIP3     H1       HT       0.417000       1.00800           0
     12282 TIP3     366      TIP3     H2       HT       0.417000       1.00800           0
     12283 TIP3     367      TIP3     OH2      OT      -0.834000       15.9994           0
     12284 TIP3     367      TIP3     H1       HT       0.417000       1.00800           0
     12285 TIP3     367      TIP3     H2       HT       0.417000       1.00800           0
     12286 TIP3     368      TIP3     OH2      OT      -0.834000       15.9994           0
     12287 TIP3     368      TIP3     H1       HT       0.417000       1.00800           0
     12288 TIP3     368      TIP3     H2       HT       0.417000       1.00800           0
     12289 TIP3     369      TIP3     OH2      OT      -0.834000       15.9994           0
     12290 TIP3     369      TIP3     H1       HT       0.417000       1.00800           0
     12291 TIP3     369      TIP3     H2       HT       0.417000       1.00800           0
     12292 TIP3     370      TIP3     OH2      OT      -0.834000       15.9994           0
     12293 TIP3     370      TIP3     H1       HT       0.417000       1.00800           0
     12294 TIP3     370      TIP3     H2       HT       0.417000       1.00800           0
     12295 TIP3     371      TIP3     OH2      OT      -0.834000       15.9994           0
     12296 TIP3     371      TIP3     H1       HT       0.417000       1.00800           0
     12297 TIP3     371      TIP3     H2       HT       0.417000       1.00800           0
     12298 TIP3     372      TIP3     OH2      OT      -0.834000       15.9994           0
     12299 TIP3     372      TIP3     H1       HT       0.417000       1.00800           0
     12300 TIP3     372      TIP3     H2       HT       0.417000       1.00800           0
     12301 TIP3     373      TIP3     OH2      OT      -0.834000       15.9994           0
     12302 TIP3     373      TIP3     H1       HT       0.417000       1.00800           0
     12303 TIP3     373      TIP3     H2       HT       0.417000       1.00800           0
     12304 TIP3     374      TIP3     OH2      OT      -0.834000       15.9994           0
     12305 TIP3     374      TIP3     H1       HT       0.417000       1.00800           0
     12306 TIP3     374      TIP3     H2       HT       0.417000       1.00800           0
     12307 TIP3     375      TIP3     OH2      OT      -0.834000       15.9994           0
     12308 TIP3     375      TIP3     H1       HT       0.417000       1.00800           0
     12309 TIP3     375      TIP3     H2       HT       0.417000       1.00800           0
     12310 TIP3     376      TIP3     OH2      OT      -0.834000       15.9994           0
     12311 TIP3     376      TIP3     H1       HT       0.417000       1.00800           0
     12312 TIP3     376      TIP3     H2       HT       0.417000       1.00800           0
     12313 TIP3     377      TIP3     OH2      OT      -0.834000       15.9994           0
     12314 TIP3     377      TIP3     H1       HT       0.417000       1.00800           0
     12315 TIP3     377      TIP3     H2       HT       0.417000       1.00800           0
     12316 TIP3     378      TIP3     OH2      OT      -0.834000       15.9994           0
     12317 TIP3     378      TIP3     H1       HT       0.417000       1.00800           0
     12318 TIP3     378      TIP3     H2       HT       0.417000       1.00800           0
     12319 TIP3     379      TIP3     OH2      OT      -0.834000       15.9994           0
     12320 TIP3     379      TIP3     H1       HT       0.417000       1.00800           0
     12321 TIP3     379      TIP3     H2       HT       0.417000       1.00800           0
     12322 TIP3     380      TIP3     OH2      OT      -0.834000       15.9994           0
     12323 TIP3     380      TIP3     H1       HT       0.417000       1.00800           0
     12324 TIP3     380      TIP3     H2       HT       0.417000       1.00800           0
     12325 TIP3     381      TIP3     OH2      OT      -0.834000       15.9994           0
     12326 TIP3     381      TIP3     H1       HT       0.417000       1.00800           0
     12327 TIP3     381      TIP3     H2       HT       0.417000       1.00800           0
     12328 TIP3     382      TIP3     OH2      OT      -0.834000       15.9994           0
     12329 TIP3     382      TIP3     H1       HT       0.417000       1.00800           0
     12330 TIP3     382      TIP3     H2       HT       0.417000       1.00800           0
     12331 TIP3     383      TIP3     OH2      OT      -0.834000       15.9994           0
     12332 TIP3     383      TIP3     H1       HT       0.417000       1.00800           0
     12333 TIP3     383      TIP3     H2       HT       0.417000       1.00800           0
     12334 TIP3     384      TIP3     OH2      OT      -0.834000       15.9994           0
     12335 TIP3     384      TIP3     H1       HT       0.417000       1.00800           0
     12336 TIP3     384      TIP3     H2       HT       0.417000       1.00800           0
     12337 TIP3     385      TIP3     OH2      OT      -0.834000       15.9994           0
     12338 TIP3     385      TIP3     H1       HT       0.417000       1.00800           0
     12339 TIP3     385      TIP3     H2       HT       0.417000       1.00800           0
     12340 TIP3     386      TIP3     OH2      OT      -0.834000       15.9994           0
     12341 TIP3     386      TIP3     H1       HT       0.417000       1.00800           0
     12342 TIP3     386      TIP3     H2       HT       0.417000       1.00800           0
     12343 TIP3     387      TIP3     OH2      OT      -0.834000       15.9994           0
     12344 TIP3     387      TIP3     H1       HT       0.417000       1.00800           0
     12345 TIP3     387      TIP3     H2       HT       0.417000       1.00800           0
     12346 TIP3     388      TIP3     OH2      OT      -0.834000       15.9994           0
     12347 TIP3     388      TIP3     H1       HT       0.417000       1.00800           0
     12348 TIP3     388      TIP3     H2       HT       0.417000       1.00800           0
     12349 TIP3     389      TIP3     OH2      OT      -0.834000       15.9994           0
     12350 TIP3     389      TIP3     H1       HT       0.417000       1.00800           0
     12351 TIP3     389      TIP3     H2       HT       0.417000       1.00800           0
     12352 TIP3     390      TIP3     OH2      OT      -0.834000       15.9994           0
     12353 TIP3     390      TIP3     H1       HT       0.417000       1.00800           0
     12354 TIP3     390      TIP3     H2       HT       0.417000       1.00800           0
     12355 TIP3     391      TIP3     OH2      OT      -0.834000       15.9994           0
     12356 TIP3     391      TIP3     H1       HT       0.417000       1.00800           0
     12357 TIP3     391      TIP3     H2       HT       0.417000       1.00800           0
     12358 TIP3     392      TIP3     OH2      OT      -0.834000       15.9994           0
     12359 TIP3     392      TIP3     H1       HT       0.417000       1.00800           0
     12360 TIP3     392      TIP3     H2       HT       0.417000       1.00800           0
     12361 TIP3     393      TIP3     OH2      OT      -0.834000       15.9994           0
     12362 TIP3     393      TIP3     H1       HT       0.417000       1.00800           0
     12363 TIP3     393      TIP3     H2       HT       0.417000       1.00800           0
     12364 TIP3     394      TIP3     OH2      OT      -0.834000       15.9994           0
     12365 TIP3     394      TIP3     H1       HT       0.417000       1.00800           0
     12366 TIP3     394      TIP3     H2       HT       0.417000       1.00800           0
     12367 TIP3     395      TIP3     OH2      OT      -0.834000       15.9994           0
     12368 TIP3     395      TIP3     H1       HT       0.417000       1.00800           0
     12369 TIP3     395      TIP3     H2       HT       0.417000       1.00800           0
     12370 TIP3     396      TIP3     OH2      OT      -0.834000       15.9994           0
     12371 TIP3     396      TIP3     H1       HT       0.417000       1.00800           0
     12372 TIP3     396      TIP3     H2       HT       0.417000       1.00800           0
     12373 TIP3     397      TIP3     OH2      OT      -0.834000       15.9994           0
     12374 TIP3     397      TIP3     H1       HT       0.417000       1.00800           0
     12375 TIP3     397      TIP3     H2       HT       0.417000       1.00800           0
     12376 TIP3     398      TIP3     OH2      OT      -0.834000       15.9994           0
     12377 TIP3     398      TIP3     H1       HT       0.417000       1.00800           0
     12378 TIP3     398      TIP3     H2       HT       0.417000       1.00800           0
     12379 TIP3     399      TIP3     OH2      OT      -0.834000       15.9994           0
     12380 TIP3     399      TIP3     H1       HT       0.417000       1.00800           0
     12381 TIP3     399      TIP3     H2       HT       0.417000       1.00800           0
     12382 TIP3     400      TIP3     OH2      OT      -0.834000       15.9994           0
     12383 TIP3     400      TIP3     H1       HT       0.417000       1.00800           0
     12384 TIP3     400      TIP3     H2       HT       0.417000       1.00800           0
     12385 TIP3     401      TIP3     OH2      OT      -0.834000       15.9994           0
     12386 TIP3     401      TIP3     H1       HT       0.417000       1.00800           0
     12387 TIP3     401      TIP3     H2       HT       0.417000       1.00800           0
     12388 TIP3     402      TIP3     OH2      OT      -0.834000       15.9994           0
     12389 TIP3     402      TIP3     H1       HT       0.417000       1.00800           0
     12390 TIP3     402      TIP3     H2       HT       0.417000       1.00800           0
     12391 TIP3     403      TIP3     OH2      OT      -0.834000       15.9994           0
     12392 TIP3     403      TIP3     H1       HT       0.417000       1.00800           0
     12393 TIP3     403      TIP3     H2       HT       0.417000       1.00800           0
     12394 TIP3     404      TIP3     OH2      OT      -0.834000       15.9994           0
     12395 TIP3     404      TIP3     H1       HT       0.417000       1.00800           0
     12396 TIP3     404      TIP3     H2       HT       0.417000       1.00800           0
     12397 TIP3     405      TIP3     OH2      OT      -0.834000       15.9994           0
     12398 TIP3     405      TIP3     H1       HT       0.417000       1.00800           0
     12399 TIP3     405      TIP3     H2       HT       0.417000       1.00800           0
     12400 TIP3     406      TIP3     OH2      OT      -0.834000       15.9994           0
     12401 TIP3     406      TIP3     H1       HT       0.417000       1.00800           0
     12402 TIP3     406      TIP3     H2       HT       0.417000       1.00800           0
     12403 TIP3     407      TIP3     OH2      OT      -0.834000       15.9994           0
     12404 TIP3     407      TIP3     H1       HT       0.417000       1.00800           0
     12405 TIP3     407      TIP3     H2       HT       0.417000       1.00800           0
     12406 TIP3     408      TIP3     OH2      OT      -0.834000       15.9994           0
     12407 TIP3     408      TIP3     H1       HT       0.417000       1.00800           0
     12408 TIP3     408      TIP3     H2       HT       0.417000       1.00800           0
     12409 TIP3     409      TIP3     OH2      OT      -0.834000       15.9994           0
     12410 TIP3     409      TIP3     H1       HT       0.417000       1.00800           0
     12411 TIP3     409      TIP3     H2       HT       0.417000       1.00800           0
     12412 TIP3     410      TIP3     OH2      OT      -0.834000       15.9994           0
     12413 TIP3     410      TIP3     H1       HT       0.417000       1.00800           0
     12414 TIP3     410      TIP3     H2       HT       0.417000       1.00800           0
     12415 TIP3     411      TIP3     OH2      OT      -0.834000       15.9994           0
     12416 TIP3     411      TIP3     H1       HT       0.417000       1.00800           0
     12417 TIP3     411      TIP3     H2       HT       0.417000       1.00800           0
     12418 TIP3     412      TIP3     OH2      OT      -0.834000       15.9994           0
     12419 TIP3     412      TIP3     H1       HT       0.417000       1.00800           0
     12420 TIP3     412      TIP3     H2       HT       0.417000       1.00800           0
     12421 TIP3     413      TIP3     OH2      OT      -0.834000       15.9994           0
     12422 TIP3     413      TIP3     H1       HT       0.417000       1.00800           0
     12423 TIP3     413      TIP3     H2       HT       0.417000       1.00800           0
     12424 TIP3     414      TIP3     OH2      OT      -0.834000       15.9994           0
     12425 TIP3     414      TIP3     H1       HT       0.417000       1.00800           0
     12426 TIP3     414      TIP3     H2       HT       0.417000       1.00800           0
     12427 TIP3     415      TIP3     OH2      OT      -0.834000       15.9994           0
     12428 TIP3     415      TIP3     H1       HT       0.417000       1.00800           0
     12429 TIP3     415      TIP3     H2       HT       0.417000       1.00800           0
     12430 TIP3     416      TIP3     OH2      OT      -0.834000       15.9994           0
     12431 TIP3     416      TIP3     H1       HT       0.417000       1.00800           0
     12432 TIP3     416      TIP3     H2       HT       0.417000       1.00800           0
     12433 TIP3     417      TIP3     OH2      OT      -0.834000       15.9994           0
     12434 TIP3     417      TIP3     H1       HT       0.417000       1.00800           0
     12435 TIP3     417      TIP3     H2       HT       0.417000       1.00800           0
     12436 TIP3     418      TIP3     OH2      OT      -0.834000       15.9994           0
     12437 TIP3     418      TIP3     H1       HT       0.417000       1.00800           0
     12438 TIP3     418      TIP3     H2       HT       0.417000       1.00800           0
     12439 TIP3     419      TIP3     OH2      OT      -0.834000       15.9994           0
     12440 TIP3     419      TIP3     H1       HT       0.417000       1.00800           0
     12441 TIP3     419      TIP3     H2       HT       0.417000       1.00800           0
     12442 TIP3     420      TIP3     OH2      OT      -0.834000       15.9994           0
     12443 TIP3     420      TIP3     H1       HT       0.417000       1.00800           0
     12444 TIP3     420      TIP3     H2       HT       0.417000       1.00800           0
     12445 TIP3     421      TIP3     OH2      OT      -0.834000       15.9994           0
     12446 TIP3     421      TIP3     H1       HT       0.417000       1.00800           0
     12447 TIP3     421      TIP3     H2       HT       0.417000       1.00800           0
     12448 TIP3     422      TIP3     OH2      OT      -0.834000       15.9994           0
     12449 TIP3     422      TIP3     H1       HT       0.417000       1.00800           0
     12450 TIP3     422      TIP3     H2       HT       0.417000       1.00800           0
     12451 TIP3     423      TIP3     OH2      OT      -0.834000       15.9994           0
     12452 TIP3     423      TIP3     H1       HT       0.417000       1.00800           0
     12453 TIP3     423      TIP3     H2       HT       0.417000       1.00800           0
     12454 TIP3     424      TIP3     OH2      OT      -0.834000       15.9994           0
     12455 TIP3     424      TIP3     H1       HT       0.417000       1.00800           0
     12456 TIP3     424      TIP3     H2       HT       0.417000       1.00800           0
     12457 TIP3     425      TIP3     OH2      OT      -0.834000       15.9994           0
     12458 TIP3     425      TIP3     H1       HT       0.417000       1.00800           0
     12459 TIP3     425      TIP3     H2       HT       0.417000       1.00800           0
     12460 TIP3     426      TIP3     OH2      OT      -0.834000       15.9994           0
     12461 TIP3     426      TIP3     H1       HT       0.417000       1.00800           0
     12462 TIP3     426      TIP3     H2       HT       0.417000       1.00800           0
     12463 TIP3     427      TIP3     OH2      OT      -0.834000       15.9994           0
     12464 TIP3     427      TIP3     H1       HT       0.417000       1.00800           0
     12465 TIP3     427      TIP3     H2       HT       0.417000       1.00800           0
     12466 TIP3     428      TIP3     OH2      OT      -0.834000       15.9994           0
     12467 TIP3     428      TIP3     H1       HT       0.417000       1.00800           0
     12468 TIP3     428      TIP3     H2       HT       0.417000       1.00800           0
     12469 TIP3     429      TIP3     OH2      OT      -0.834000       15.9994           0
     12470 TIP3     429      TIP3     H1       HT       0.417000       1.00800           0
     12471 TIP3     429      TIP3     H2       HT       0.417000       1.00800           0
     12472 TIP3     430      TIP3     OH2      OT      -0.834000       15.9994           0
     12473 TIP3     430      TIP3     H1       HT       0.417000       1.00800           0
     12474 TIP3     430      TIP3     H2       HT       0.417000       1.00800           0
     12475 TIP3     431      TIP3     OH2      OT      -0.834000       15.9994           0
     12476 TIP3     431      TIP3     H1       HT       0.417000       1.00800           0
     12477 TIP3     431      TIP3     H2       HT       0.417000       1.00800           0
     12478 TIP3     432      TIP3     OH2      OT      -0.834000       15.9994           0
     12479 TIP3     432      TIP3     H1       HT       0.417000       1.00800           0
     12480 TIP3     432      TIP3     H2       HT       0.417000       1.00800           0
     12481 TIP3     433      TIP3     OH2      OT      -0.834000       15.9994           0
     12482 TIP3     433      TIP3     H1       HT       0.417000       1.00800           0
     12483 TIP3     433      TIP3     H2       HT       0.417000       1.00800           0
     12484 TIP3     434      TIP3     OH2      OT      -0.834000       15.9994           0
     12485 TIP3     434      TIP3     H1       HT       0.417000       1.00800           0
     12486 TIP3     434      TIP3     H2       HT       0.417000       1.00800           0
     12487 TIP3     435      TIP3     OH2      OT      -0.834000       15.9994           0
     12488 TIP3     435      TIP3     H1       HT       0.417000       1.00800           0
     12489 TIP3     435      TIP3     H2       HT       0.417000       1.00800           0
     12490 TIP3     436      TIP3     OH2      OT      -0.834000       15.9994           0
     12491 TIP3     436      TIP3     H1       HT       0.417000       1.00800           0
     12492 TIP3     436      TIP3     H2       HT       0.417000       1.00800           0
     12493 TIP3     437      TIP3     OH2      OT      -0.834000       15.9994           0
     12494 TIP3     437      TIP3     H1       HT       0.417000       1.00800           0
     12495 TIP3     437      TIP3     H2       HT       0.417000       1.00800           0
     12496 TIP3     438      TIP3     OH2      OT      -0.834000       15.9994           0
     12497 TIP3     438      TIP3     H1       HT       0.417000       1.00800           0
     12498 TIP3     438      TIP3     H2       HT       0.417000       1.00800           0
     12499 TIP3     439      TIP3     OH2      OT      -0.834000       15.9994           0
     12500 TIP3     439      TIP3     H1       HT       0.417000       1.00800           0
     12501 TIP3     439      TIP3     H2       HT       0.417000       1.00800           0
     12502 TIP3     440      TIP3     OH2      OT      -0.834000       15.9994           0
     12503 TIP3     440      TIP3     H1       HT       0.417000       1.00800           0
     12504 TIP3     440      TIP3     H2       HT       0.417000       1.00800           0
     12505 TIP3     441      TIP3     OH2      OT      -0.834000       15.9994           0
     12506 TIP3     441      TIP3     H1       HT       0.417000       1.00800           0
     12507 TIP3     441      TIP3     H2       HT       0.417000       1.00800           0
     12508 TIP3     442      TIP3     OH2      OT      -0.834000       15.9994           0
     12509 TIP3     442      TIP3     H1       HT       0.417000       1.00800           0
     12510 TIP3     442      TIP3     H2       HT       0.417000       1.00800           0
     12511 TIP3     443      TIP3     OH2      OT      -0.834000       15.9994           0
     12512 TIP3     443      TIP3     H1       HT       0.417000       1.00800           0
     12513 TIP3     443      TIP3     H2       HT       0.417000       1.00800           0
     12514 TIP3     444      TIP3     OH2      OT      -0.834000       15.9994           0
     12515 TIP3     444      TIP3     H1       HT       0.417000       1.00800           0
     12516 TIP3     444      TIP3     H2       HT       0.417000       1.00800           0
     12517 TIP3     445      TIP3     OH2      OT      -0.834000       15.9994           0
     12518 TIP3     445      TIP3     H1       HT       0.417000       1.00800           0
     12519 TIP3     445      TIP3     H2       HT       0.417000       1.00800           0
     12520 TIP3     446      TIP3     OH2      OT      -0.834000       15.9994           0
     12521 TIP3     446      TIP3     H1       HT       0.417000       1.00800           0
     12522 TIP3     446      TIP3     H2       HT       0.417000       1.00800           0
     12523 TIP3     447      TIP3     OH2      OT      -0.834000       15.9994           0
     12524 TIP3     447      TIP3     H1       HT       0.417000       1.00800           0
     12525 TIP3     447      TIP3     H2       HT       0.417000       1.00800           0
     12526 TIP3     448      TIP3     OH2      OT      -0.834000       15.9994           0
     12527 TIP3     448      TIP3     H1       HT       0.417000       1.00800           0
     12528 TIP3     448      TIP3     H2       HT       0.417000       1.00800           0
     12529 TIP3     449      TIP3     OH2      OT      -0.834000       15.9994           0
     12530 TIP3     449      TIP3     H1       HT       0.417000       1.00800           0
     12531 TIP3     449      TIP3     H2       HT       0.417000       1.00800           0
     12532 TIP3     450      TIP3     OH2      OT      -0.834000       15.9994           0
     12533 TIP3     450      TIP3     H1       HT       0.417000       1.00800           0
     12534 TIP3     450      TIP3     H2       HT       0.417000       1.00800           0
     12535 TIP3     451      TIP3     OH2      OT      -0.834000       15.9994           0
     12536 TIP3     451      TIP3     H1       HT       0.417000       1.00800           0
     12537 TIP3     451      TIP3     H2       HT       0.417000       1.00800           0
     12538 TIP3     452      TIP3     OH2      OT      -0.834000       15.9994           0
     12539 TIP3     452      TIP3     H1       HT       0.417000       1.00800           0
     12540 TIP3     452      TIP3     H2       HT       0.417000       1.00800           0
     12541 TIP3     453      TIP3     OH2      OT      -0.834000       15.9994           0
     12542 TIP3     453      TIP3     H1       HT       0.417000       1.00800           0
     12543 TIP3     453      TIP3     H2       HT       0.417000       1.00800           0
     12544 TIP3     454      TIP3     OH2      OT      -0.834000       15.9994           0
     12545 TIP3     454      TIP3     H1       HT       0.417000       1.00800           0
     12546 TIP3     454      TIP3     H2       HT       0.417000       1.00800           0
     12547 TIP3     455      TIP3     OH2      OT      -0.834000       15.9994           0
     12548 TIP3     455      TIP3     H1       HT       0.417000       1.00800           0
     12549 TIP3     455      TIP3     H2       HT       0.417000       1.00800           0
     12550 TIP3     456      TIP3     OH2      OT      -0.834000       15.9994           0
     12551 TIP3     456      TIP3     H1       HT       0.417000       1.00800           0
     12552 TIP3     456      TIP3     H2       HT       0.417000       1.00800           0
     12553 TIP3     457      TIP3     OH2      OT      -0.834000       15.9994           0
     12554 TIP3     457      TIP3     H1       HT       0.417000       1.00800           0
     12555 TIP3     457      TIP3     H2       HT       0.417000       1.00800           0
     12556 TIP3     458      TIP3     OH2      OT      -0.834000       15.9994           0
     12557 TIP3     458      TIP3     H1       HT       0.417000       1.00800           0
     12558 TIP3     458      TIP3     H2       HT       0.417000       1.00800           0
     12559 TIP3     459      TIP3     OH2      OT      -0.834000       15.9994           0
     12560 TIP3     459      TIP3     H1       HT       0.417000       1.00800           0
     12561 TIP3     459      TIP3     H2       HT       0.417000       1.00800           0
     12562 TIP3     460      TIP3     OH2      OT      -0.834000       15.9994           0
     12563 TIP3     460      TIP3     H1       HT       0.417000       1.00800           0
     12564 TIP3     460      TIP3     H2       HT       0.417000       1.00800           0
     12565 TIP3     461      TIP3     OH2      OT      -0.834000       15.9994           0
     12566 TIP3     461      TIP3     H1       HT       0.417000       1.00800           0
     12567 TIP3     461      TIP3     H2       HT       0.417000       1.00800           0
     12568 TIP3     462      TIP3     OH2      OT      -0.834000       15.9994           0
     12569 TIP3     462      TIP3     H1       HT       0.417000       1.00800           0
     12570 TIP3     462      TIP3     H2       HT       0.417000       1.00800           0
     12571 TIP3     463      TIP3     OH2      OT      -0.834000       15.9994           0
     12572 TIP3     463      TIP3     H1       HT       0.417000       1.00800           0
     12573 TIP3     463      TIP3     H2       HT       0.417000       1.00800           0
     12574 TIP3     464      TIP3     OH2      OT      -0.834000       15.9994           0
     12575 TIP3     464      TIP3     H1       HT       0.417000       1.00800           0
     12576 TIP3     464      TIP3     H2       HT       0.417000       1.00800           0
     12577 TIP3     465      TIP3     OH2      OT      -0.834000       15.9994           0
     12578 TIP3     465      TIP3     H1       HT       0.417000       1.00800           0
     12579 TIP3     465      TIP3     H2       HT       0.417000       1.00800           0
     12580 TIP3     466      TIP3     OH2      OT      -0.834000       15.9994           0
     12581 TIP3     466      TIP3     H1       HT       0.417000       1.00800           0
     12582 TIP3     466      TIP3     H2       HT       0.417000       1.00800           0
     12583 TIP3     467      TIP3     OH2      OT      -0.834000       15.9994           0
     12584 TIP3     467      TIP3     H1       HT       0.417000       1.00800           0
     12585 TIP3     467      TIP3     H2       HT       0.417000       1.00800           0
     12586 TIP3     468      TIP3     OH2      OT      -0.834000       15.9994           0
     12587 TIP3     468      TIP3     H1       HT       0.417000       1.00800           0
     12588 TIP3     468      TIP3     H2       HT       0.417000       1.00800           0
     12589 TIP3     469      TIP3     OH2      OT      -0.834000       15.9994           0
     12590 TIP3     469      TIP3     H1       HT       0.417000       1.00800           0
     12591 TIP3     469      TIP3     H2       HT       0.417000       1.00800           0
     12592 TIP3     470      TIP3     OH2      OT      -0.834000       15.9994           0
     12593 TIP3     470      TIP3     H1       HT       0.417000       1.00800           0
     12594 TIP3     470      TIP3     H2       HT       0.417000       1.00800           0
     12595 TIP3     471      TIP3     OH2      OT      -0.834000       15.9994           0
     12596 TIP3     471      TIP3     H1       HT       0.417000       1.00800           0
     12597 TIP3     471      TIP3     H2       HT       0.417000       1.00800           0
     12598 TIP3     472      TIP3     OH2      OT      -0.834000       15.9994           0
     12599 TIP3     472      TIP3     H1       HT       0.417000       1.00800           0
     12600 TIP3     472      TIP3     H2       HT       0.417000       1.00800           0
     12601 TIP3     473      TIP3     OH2      OT      -0.834000       15.9994           0
     12602 TIP3     473      TIP3     H1       HT       0.417000       1.00800           0
     12603 TIP3     473      TIP3     H2       HT       0.417000       1.00800           0
     12604 TIP3     474      TIP3     OH2      OT      -0.834000       15.9994           0
     12605 TIP3     474      TIP3     H1       HT       0.417000       1.00800           0
     12606 TIP3     474      TIP3     H2       HT       0.417000       1.00800           0
     12607 TIP3     475      TIP3     OH2      OT      -0.834000       15.9994           0
     12608 TIP3     475      TIP3     H1       HT       0.417000       1.00800           0
     12609 TIP3     475      TIP3     H2       HT       0.417000       1.00800           0
     12610 TIP3     476      TIP3     OH2      OT      -0.834000       15.9994           0
     12611 TIP3     476      TIP3     H1       HT       0.417000       1.00800           0
     12612 TIP3     476      TIP3     H2       HT       0.417000       1.00800           0
     12613 TIP3     477      TIP3     OH2      OT      -0.834000       15.9994           0
     12614 TIP3     477      TIP3     H1       HT       0.417000       1.00800           0
     12615 TIP3     477      TIP3     H2       HT       0.417000       1.00800           0
     12616 TIP3     478      TIP3     OH2      OT      -0.834000       15.9994           0
     12617 TIP3     478      TIP3     H1       HT       0.417000       1.00800           0
     12618 TIP3     478      TIP3     H2       HT       0.417000       1.00800           0
     12619 TIP3     479      TIP3     OH2      OT      -0.834000       15.9994           0
     12620 TIP3     479      TIP3     H1       HT       0.417000       1.00800           0
     12621 TIP3     479      TIP3     H2       HT       0.417000       1.00800           0
     12622 TIP3     480      TIP3     OH2      OT      -0.834000       15.9994           0
     12623 TIP3     480      TIP3     H1       HT       0.417000       1.00800           0
     12624 TIP3     480      TIP3     H2       HT       0.417000       1.00800           0
     12625 TIP3     481      TIP3     OH2      OT      -0.834000       15.9994           0
     12626 TIP3     481      TIP3     H1       HT       0.417000       1.00800           0
     12627 TIP3     481      TIP3     H2       HT       0.417000       1.00800           0
     12628 TIP3     482      TIP3     OH2      OT      -0.834000       15.9994           0
     12629 TIP3     482      TIP3     H1       HT       0.417000       1.00800           0
     12630 TIP3     482      TIP3     H2       HT       0.417000       1.00800           0
     12631 TIP3     483      TIP3     OH2      OT      -0.834000       15.9994           0
     12632 TIP3     483      TIP3     H1       HT       0.417000       1.00800           0
     12633 TIP3     483      TIP3     H2       HT       0.417000       1.00800           0
     12634 TIP3     484      TIP3     OH2      OT      -0.834000       15.9994           0
     12635 TIP3     484      TIP3     H1       HT       0.417000       1.00800           0
     12636 TIP3     484      TIP3     H2       HT       0.417000       1.00800           0
     12637 TIP3     485      TIP3     OH2      OT      -0.834000       15.9994           0
     12638 TIP3     485      TIP3     H1       HT       0.417000       1.00800           0
     12639 TIP3     485      TIP3     H2       HT       0.417000       1.00800           0
     12640 TIP3     486      TIP3     OH2      OT      -0.834000       15.9994           0
     12641 TIP3     486      TIP3     H1       HT       0.417000       1.00800           0
     12642 TIP3     486      TIP3     H2       HT       0.417000       1.00800           0
     12643 TIP3     487      TIP3     OH2      OT      -0.834000       15.9994           0
     12644 TIP3     487      TIP3     H1       HT       0.417000       1.00800           0
     12645 TIP3     487      TIP3     H2       HT       0.417000       1.00800           0
     12646 TIP3     488      TIP3     OH2      OT      -0.834000       15.9994           0
     12647 TIP3     488      TIP3     H1       HT       0.417000       1.00800           0
     12648 TIP3     488      TIP3     H2       HT       0.417000       1.00800           0
     12649 TIP3     489      TIP3     OH2      OT      -0.834000       15.9994           0
     12650 TIP3     489      TIP3     H1       HT       0.417000       1.00800           0
     12651 TIP3     489      TIP3     H2       HT       0.417000       1.00800           0
     12652 TIP3     490      TIP3     OH2      OT      -0.834000       15.9994           0
     12653 TIP3     490      TIP3     H1       HT       0.417000       1.00800           0
     12654 TIP3     490      TIP3     H2       HT       0.417000       1.00800           0
     12655 TIP3     491      TIP3     OH2      OT      -0.834000       15.9994           0
     12656 TIP3     491      TIP3     H1       HT       0.417000       1.00800           0
     12657 TIP3     491      TIP3     H2       HT       0.417000       1.00800           0
     12658 TIP3     492      TIP3     OH2      OT      -0.834000       15.9994           0
     12659 TIP3     492      TIP3     H1       HT       0.417000       1.00800           0
     12660 TIP3     492      TIP3     H2       HT       0.417000       1.00800           0
     12661 TIP3     493      TIP3     OH2      OT      -0.834000       15.9994           0
     12662 TIP3     493      TIP3     H1       HT       0.417000       1.00800           0
     12663 TIP3     493      TIP3     H2       HT       0.417000       1.00800           0
     12664 TIP3     494      TIP3     OH2      OT      -0.834000       15.9994           0
     12665 TIP3     494      TIP3     H1       HT       0.417000       1.00800           0
     12666 TIP3     494      TIP3     H2       HT       0.417000       1.00800           0
     12667 TIP3     495      TIP3     OH2      OT      -0.834000       15.9994           0
     12668 TIP3     495      TIP3     H1       HT       0.417000       1.00800           0
     12669 TIP3     495      TIP3     H2       HT       0.417000       1.00800           0
     12670 TIP3     496      TIP3     OH2      OT      -0.834000       15.9994           0
     12671 TIP3     496      TIP3     H1       HT       0.417000       1.00800           0
     12672 TIP3     496      TIP3     H2       HT       0.417000       1.00800           0
     12673 TIP3     497      TIP3     OH2      OT      -0.834000       15.9994           0
     12674 TIP3     497      TIP3     H1       HT       0.417000       1.00800           0
     12675 TIP3     497      TIP3     H2       HT       0.417000       1.00800           0
     12676 TIP3     498      TIP3     OH2      OT      -0.834000       15.9994           0
     12677 TIP3     498      TIP3     H1       HT       0.417000       1.00800           0
     12678 TIP3     498      TIP3     H2       HT       0.417000       1.00800           0
     12679 TIP3     499      TIP3     OH2      OT      -0.834000       15.9994           0
     12680 TIP3     499      TIP3     H1       HT       0.417000       1.00800           0
     12681 TIP3     499      TIP3     H2       HT       0.417000       1.00800           0
     12682 TIP3     500      TIP3     OH2      OT      -0.834000       15.9994           0
     12683 TIP3     500      TIP3     H1       HT       0.417000       1.00800           0
     12684 TIP3     500      TIP3     H2       HT       0.417000       1.00800           0
     12685 TIP3     501      TIP3     OH2      OT      -0.834000       15.9994           0
     12686 TIP3     501      TIP3     H1       HT       0.417000       1.00800           0
     12687 TIP3     501      TIP3     H2       HT       0.417000       1.00800           0
     12688 TIP3     502      TIP3     OH2      OT      -0.834000       15.9994           0
     12689 TIP3     502      TIP3     H1       HT       0.417000       1.00800           0
     12690 TIP3     502      TIP3     H2       HT       0.417000       1.00800           0
     12691 TIP3     503      TIP3     OH2      OT      -0.834000       15.9994           0
     12692 TIP3     503      TIP3     H1       HT       0.417000       1.00800           0
     12693 TIP3     503      TIP3     H2       HT       0.417000       1.00800           0
     12694 TIP3     504      TIP3     OH2      OT      -0.834000       15.9994           0
     12695 TIP3     504      TIP3     H1       HT       0.417000       1.00800           0
     12696 TIP3     504      TIP3     H2       HT       0.417000       1.00800           0
     12697 TIP3     505      TIP3     OH2      OT      -0.834000       15.9994           0
     12698 TIP3     505      TIP3     H1       HT       0.417000       1.00800           0
     12699 TIP3     505      TIP3     H2       HT       0.417000       1.00800           0
     12700 TIP3     506      TIP3     OH2      OT      -0.834000       15.9994           0
     12701 TIP3     506      TIP3     H1       HT       0.417000       1.00800           0
     12702 TIP3     506      TIP3     H2       HT       0.417000       1.00800           0
     12703 TIP3     507      TIP3     OH2      OT      -0.834000       15.9994           0
     12704 TIP3     507      TIP3     H1       HT       0.417000       1.00800           0
     12705 TIP3     507      TIP3     H2       HT       0.417000       1.00800           0
     12706 TIP3     508      TIP3     OH2      OT      -0.834000       15.9994           0
     12707 TIP3     508      TIP3     H1       HT       0.417000       1.00800           0
     12708 TIP3     508      TIP3     H2       HT       0.417000       1.00800           0
     12709 TIP3     509      TIP3     OH2      OT      -0.834000       15.9994           0
     12710 TIP3     509      TIP3     H1       HT       0.417000       1.00800           0
     12711 TIP3     509      TIP3     H2       HT       0.417000       1.00800           0
     12712 TIP3     510      TIP3     OH2      OT      -0.834000       15.9994           0
     12713 TIP3     510      TIP3     H1       HT       0.417000       1.00800           0
     12714 TIP3     510      TIP3     H2       HT       0.417000       1.00800           0
     12715 TIP3     511      TIP3     OH2      OT      -0.834000       15.9994           0
     12716 TIP3     511      TIP3     H1       HT       0.417000       1.00800           0
     12717 TIP3     511      TIP3     H2       HT       0.417000       1.00800           0
     12718 TIP3     512      TIP3     OH2      OT      -0.834000       15.9994           0
     12719 TIP3     512      TIP3     H1       HT       0.417000       1.00800           0
     12720 TIP3     512      TIP3     H2       HT       0.417000       1.00800           0
     12721 TIP3     513      TIP3     OH2      OT      -0.834000       15.9994           0
     12722 TIP3     513      TIP3     H1       HT       0.417000       1.00800           0
     12723 TIP3     513      TIP3     H2       HT       0.417000       1.00800           0
     12724 TIP3     514      TIP3     OH2      OT      -0.834000       15.9994           0
     12725 TIP3     514      TIP3     H1       HT       0.417000       1.00800           0
     12726 TIP3     514      TIP3     H2       HT       0.417000       1.00800           0
     12727 TIP3     515      TIP3     OH2      OT      -0.834000       15.9994           0
     12728 TIP3     515      TIP3     H1       HT       0.417000       1.00800           0
     12729 TIP3     515      TIP3     H2       HT       0.417000       1.00800           0
     12730 TIP3     516      TIP3     OH2      OT      -0.834000       15.9994           0
     12731 TIP3     516      TIP3     H1       HT       0.417000       1.00800           0
     12732 TIP3     516      TIP3     H2       HT       0.417000       1.00800           0
     12733 TIP3     517      TIP3     OH2      OT      -0.834000       15.9994           0
     12734 TIP3     517      TIP3     H1       HT       0.417000       1.00800           0
     12735 TIP3     517      TIP3     H2       HT       0.417000       1.00800           0
     12736 TIP3     518      TIP3     OH2      OT      -0.834000       15.9994           0
     12737 TIP3     518      TIP3     H1       HT       0.417000       1.00800           0
     12738 TIP3     518      TIP3     H2       HT       0.417000       1.00800           0
     12739 TIP3     519      TIP3     OH2      OT      -0.834000       15.9994           0
     12740 TIP3     519      TIP3     H1       HT       0.417000       1.00800           0
     12741 TIP3     519      TIP3     H2       HT       0.417000       1.00800           0
     12742 TIP3     520      TIP3     OH2      OT      -0.834000       15.9994           0
     12743 TIP3     520      TIP3     H1       HT       0.417000       1.00800           0
     12744 TIP3     520      TIP3     H2       HT       0.417000       1.00800           0
     12745 TIP3     521      TIP3     OH2      OT      -0.834000       15.9994           0
     12746 TIP3     521      TIP3     H1       HT       0.417000       1.00800           0
     12747 TIP3     521      TIP3     H2       HT       0.417000       1.00800           0
     12748 TIP3     522      TIP3     OH2      OT      -0.834000       15.9994           0
     12749 TIP3     522      TIP3     H1       HT       0.417000       1.00800           0
     12750 TIP3     522      TIP3     H2       HT       0.417000       1.00800           0
     12751 TIP3     523      TIP3     OH2      OT      -0.834000       15.9994           0
     12752 TIP3     523      TIP3     H1       HT       0.417000       1.00800           0
     12753 TIP3     523      TIP3     H2       HT       0.417000       1.00800           0
     12754 TIP3     524      TIP3     OH2      OT      -0.834000       15.9994           0
     12755 TIP3     524      TIP3     H1       HT       0.417000       1.00800           0
     12756 TIP3     524      TIP3     H2       HT       0.417000       1.00800           0
     12757 TIP3     525      TIP3     OH2      OT      -0.834000       15.9994           0
     12758 TIP3     525      TIP3     H1       HT       0.417000       1.00800           0
     12759 TIP3     525      TIP3     H2       HT       0.417000       1.00800           0
     12760 TIP3     526      TIP3     OH2      OT      -0.834000       15.9994           0
     12761 TIP3     526      TIP3     H1       HT       0.417000       1.00800           0
     12762 TIP3     526      TIP3     H2       HT       0.417000       1.00800           0
     12763 TIP3     527      TIP3     OH2      OT      -0.834000       15.9994           0
     12764 TIP3     527      TIP3     H1       HT       0.417000       1.00800           0
     12765 TIP3     527      TIP3     H2       HT       0.417000       1.00800           0
     12766 TIP3     528      TIP3     OH2      OT      -0.834000       15.9994           0
     12767 TIP3     528      TIP3     H1       HT       0.417000       1.00800           0
     12768 TIP3     528      TIP3     H2       HT       0.417000       1.00800           0
     12769 TIP3     529      TIP3     OH2      OT      -0.834000       15.9994           0
     12770 TIP3     529      TIP3     H1       HT       0.417000       1.00800           0
     12771 TIP3     529      TIP3     H2       HT       0.417000       1.00800           0
     12772 TIP3     530      TIP3     OH2      OT      -0.834000       15.9994           0
     12773 TIP3     530      TIP3     H1       HT       0.417000       1.00800           0
     12774 TIP3     530      TIP3     H2       HT       0.417000       1.00800           0
     12775 TIP3     531      TIP3     OH2      OT      -0.834000       15.9994           0
     12776 TIP3     531      TIP3     H1       HT       0.417000       1.00800           0
     12777 TIP3     531      TIP3     H2       HT       0.417000       1.00800           0
     12778 TIP3     532      TIP3     OH2      OT      -0.834000       15.9994           0
     12779 TIP3     532      TIP3     H1       HT       0.417000       1.00800           0
     12780 TIP3     532      TIP3     H2       HT       0.417000       1.00800           0
     12781 TIP3     533      TIP3     OH2      OT      -0.834000       15.9994           0
     12782 TIP3     533      TIP3     H1       HT       0.417000       1.00800           0
     12783 TIP3     533      TIP3     H2       HT       0.417000       1.00800           0
     12784 TIP3     534      TIP3     OH2      OT      -0.834000       15.9994           0
     12785 TIP3     534      TIP3     H1       HT       0.417000       1.00800           0
     12786 TIP3     534      TIP3     H2       HT       0.417000       1.00800           0
     12787 TIP3     535      TIP3     OH2      OT      -0.834000       15.9994           0
     12788 TIP3     535      TIP3     H1       HT       0.417000       1.00800           0
     12789 TIP3     535      TIP3     H2       HT       0.417000       1.00800           0
     12790 TIP3     536      TIP3     OH2      OT      -0.834000       15.9994           0
     12791 TIP3     536      TIP3     H1       HT       0.417000       1.00800           0
     12792 TIP3     536      TIP3     H2       HT       0.417000       1.00800           0
     12793 TIP3     537      TIP3     OH2      OT      -0.834000       15.9994           0
     12794 TIP3     537      TIP3     H1       HT       0.417000       1.00800           0
     12795 TIP3     537      TIP3     H2       HT       0.417000       1.00800           0
     12796 TIP3     538      TIP3     OH2      OT      -0.834000       15.9994           0
     12797 TIP3     538      TIP3     H1       HT       0.417000       1.00800           0
     12798 TIP3     538      TIP3     H2       HT       0.417000       1.00800           0
     12799 TIP3     539      TIP3     OH2      OT      -0.834000       15.9994           0
     12800 TIP3     539      TIP3     H1       HT       0.417000       1.00800           0
     12801 TIP3     539      TIP3     H2       HT       0.417000       1.00800           0
     12802 TIP3     540      TIP3     OH2      OT      -0.834000       15.9994           0
     12803 TIP3     540      TIP3     H1       HT       0.417000       1.00800           0
     12804 TIP3     540      TIP3     H2       HT       0.417000       1.00800           0
     12805 TIP3     541      TIP3     OH2      OT      -0.834000       15.9994           0
     12806 TIP3     541      TIP3     H1       HT       0.417000       1.00800           0
     12807 TIP3     541      TIP3     H2       HT       0.417000       1.00800           0
     12808 TIP3     542      TIP3     OH2      OT      -0.834000       15.9994           0
     12809 TIP3     542      TIP3     H1       HT       0.417000       1.00800           0
     12810 TIP3     542      TIP3     H2       HT       0.417000       1.00800           0
     12811 TIP3     543      TIP3     OH2      OT      -0.834000       15.9994           0
     12812 TIP3     543      TIP3     H1       HT       0.417000       1.00800           0
     12813 TIP3     543      TIP3     H2       HT       0.417000       1.00800           0
     12814 TIP3     544      TIP3     OH2      OT      -0.834000       15.9994           0
     12815 TIP3     544      TIP3     H1       HT       0.417000       1.00800           0
     12816 TIP3     544      TIP3     H2       HT       0.417000       1.00800           0
     12817 TIP3     545      TIP3     OH2      OT      -0.834000       15.9994           0
     12818 TIP3     545      TIP3     H1       HT       0.417000       1.00800           0
     12819 TIP3     545      TIP3     H2       HT       0.417000       1.00800           0
     12820 TIP3     546      TIP3     OH2      OT      -0.834000       15.9994           0
     12821 TIP3     546      TIP3     H1       HT       0.417000       1.00800           0
     12822 TIP3     546      TIP3     H2       HT       0.417000       1.00800           0
     12823 TIP3     547      TIP3     OH2      OT      -0.834000       15.9994           0
     12824 TIP3     547      TIP3     H1       HT       0.417000       1.00800           0
     12825 TIP3     547      TIP3     H2       HT       0.417000       1.00800           0
     12826 TIP3     548      TIP3     OH2      OT      -0.834000       15.9994           0
     12827 TIP3     548      TIP3     H1       HT       0.417000       1.00800           0
     12828 TIP3     548      TIP3     H2       HT       0.417000       1.00800           0
     12829 TIP3     549      TIP3     OH2      OT      -0.834000       15.9994           0
     12830 TIP3     549      TIP3     H1       HT       0.417000       1.00800           0
     12831 TIP3     549      TIP3     H2       HT       0.417000       1.00800           0
     12832 TIP3     550      TIP3     OH2      OT      -0.834000       15.9994           0
     12833 TIP3     550      TIP3     H1       HT       0.417000       1.00800           0
     12834 TIP3     550      TIP3     H2       HT       0.417000       1.00800           0
     12835 TIP3     551      TIP3     OH2      OT      -0.834000       15.9994           0
     12836 TIP3     551      TIP3     H1       HT       0.417000       1.00800           0
     12837 TIP3     551      TIP3     H2       HT       0.417000       1.00800           0
     12838 TIP3     552      TIP3     OH2      OT      -0.834000       15.9994           0
     12839 TIP3     552      TIP3     H1       HT       0.417000       1.00800           0
     12840 TIP3     552      TIP3     H2       HT       0.417000       1.00800           0
     12841 TIP3     553      TIP3     OH2      OT      -0.834000       15.9994           0
     12842 TIP3     553      TIP3     H1       HT       0.417000       1.00800           0
     12843 TIP3     553      TIP3     H2       HT       0.417000       1.00800           0
     12844 TIP3     554      TIP3     OH2      OT      -0.834000       15.9994           0
     12845 TIP3     554      TIP3     H1       HT       0.417000       1.00800           0
     12846 TIP3     554      TIP3     H2       HT       0.417000       1.00800           0
     12847 TIP3     555      TIP3     OH2      OT      -0.834000       15.9994           0
     12848 TIP3     555      TIP3     H1       HT       0.417000       1.00800           0
     12849 TIP3     555      TIP3     H2       HT       0.417000       1.00800           0
     12850 TIP3     556      TIP3     OH2      OT      -0.834000       15.9994           0
     12851 TIP3     556      TIP3     H1       HT       0.417000       1.00800           0
     12852 TIP3     556      TIP3     H2       HT       0.417000       1.00800           0
     12853 TIP3     557      TIP3     OH2      OT      -0.834000       15.9994           0
     12854 TIP3     557      TIP3     H1       HT       0.417000       1.00800           0
     12855 TIP3     557      TIP3     H2       HT       0.417000       1.00800           0
     12856 TIP3     558      TIP3     OH2      OT      -0.834000       15.9994           0
     12857 TIP3     558      TIP3     H1       HT       0.417000       1.00800           0
     12858 TIP3     558      TIP3     H2       HT       0.417000       1.00800           0
     12859 TIP3     559      TIP3     OH2      OT      -0.834000       15.9994           0
     12860 TIP3     559      TIP3     H1       HT       0.417000       1.00800           0
     12861 TIP3     559      TIP3     H2       HT       0.417000       1.00800           0
     12862 TIP3     560      TIP3     OH2      OT      -0.834000       15.9994           0
     12863 TIP3     560      TIP3     H1       HT       0.417000       1.00800           0
     12864 TIP3     560      TIP3     H2       HT       0.417000       1.00800           0
     12865 TIP3     561      TIP3     OH2      OT      -0.834000       15.9994           0
     12866 TIP3     561      TIP3     H1       HT       0.417000       1.00800           0
     12867 TIP3     561      TIP3     H2       HT       0.417000       1.00800           0
     12868 TIP3     562      TIP3     OH2      OT      -0.834000       15.9994           0
     12869 TIP3     562      TIP3     H1       HT       0.417000       1.00800           0
     12870 TIP3     562      TIP3     H2       HT       0.417000       1.00800           0
     12871 TIP3     563      TIP3     OH2      OT      -0.834000       15.9994           0
     12872 TIP3     563      TIP3     H1       HT       0.417000       1.00800           0
     12873 TIP3     563      TIP3     H2       HT       0.417000       1.00800           0
     12874 TIP3     564      TIP3     OH2      OT      -0.834000       15.9994           0
     12875 TIP3     564      TIP3     H1       HT       0.417000       1.00800           0
     12876 TIP3     564      TIP3     H2       HT       0.417000       1.00800           0
     12877 TIP3     565      TIP3     OH2      OT      -0.834000       15.9994           0
     12878 TIP3     565      TIP3     H1       HT       0.417000       1.00800           0
     12879 TIP3     565      TIP3     H2       HT       0.417000       1.00800           0
     12880 TIP3     566      TIP3     OH2      OT      -0.834000       15.9994           0
     12881 TIP3     566      TIP3     H1       HT       0.417000       1.00800           0
     12882 TIP3     566      TIP3     H2       HT       0.417000       1.00800           0
     12883 TIP3     567      TIP3     OH2      OT      -0.834000       15.9994           0
     12884 TIP3     567      TIP3     H1       HT       0.417000       1.00800           0
     12885 TIP3     567      TIP3     H2       HT       0.417000       1.00800           0
     12886 TIP3     568      TIP3     OH2      OT      -0.834000       15.9994           0
     12887 TIP3     568      TIP3     H1       HT       0.417000       1.00800           0
     12888 TIP3     568      TIP3     H2       HT       0.417000       1.00800           0
     12889 TIP3     569      TIP3     OH2      OT      -0.834000       15.9994           0
     12890 TIP3     569      TIP3     H1       HT       0.417000       1.00800           0
     12891 TIP3     569      TIP3     H2       HT       0.417000       1.00800           0
     12892 TIP3     570      TIP3     OH2      OT      -0.834000       15.9994           0
     12893 TIP3     570      TIP3     H1       HT       0.417000       1.00800           0
     12894 TIP3     570      TIP3     H2       HT       0.417000       1.00800           0
     12895 TIP3     571      TIP3     OH2      OT      -0.834000       15.9994           0
     12896 TIP3     571      TIP3     H1       HT       0.417000       1.00800           0
     12897 TIP3     571      TIP3     H2       HT       0.417000       1.00800           0
     12898 TIP3     572      TIP3     OH2      OT      -0.834000       15.9994           0
     12899 TIP3     572      TIP3     H1       HT       0.417000       1.00800           0
     12900 TIP3     572      TIP3     H2       HT       0.417000       1.00800           0
     12901 TIP3     573      TIP3     OH2      OT      -0.834000       15.9994           0
     12902 TIP3     573      TIP3     H1       HT       0.417000       1.00800           0
     12903 TIP3     573      TIP3     H2       HT       0.417000       1.00800           0
     12904 TIP3     574      TIP3     OH2      OT      -0.834000       15.9994           0
     12905 TIP3     574      TIP3     H1       HT       0.417000       1.00800           0
     12906 TIP3     574      TIP3     H2       HT       0.417000       1.00800           0
     12907 TIP3     575      TIP3     OH2      OT      -0.834000       15.9994           0
     12908 TIP3     575      TIP3     H1       HT       0.417000       1.00800           0
     12909 TIP3     575      TIP3     H2       HT       0.417000       1.00800           0
     12910 TIP3     576      TIP3     OH2      OT      -0.834000       15.9994           0
     12911 TIP3     576      TIP3     H1       HT       0.417000       1.00800           0
     12912 TIP3     576      TIP3     H2       HT       0.417000       1.00800           0
     12913 TIP3     577      TIP3     OH2      OT      -0.834000       15.9994           0
     12914 TIP3     577      TIP3     H1       HT       0.417000       1.00800           0
     12915 TIP3     577      TIP3     H2       HT       0.417000       1.00800           0
     12916 TIP3     578      TIP3     OH2      OT      -0.834000       15.9994           0
     12917 TIP3     578      TIP3     H1       HT       0.417000       1.00800           0
     12918 TIP3     578      TIP3     H2       HT       0.417000       1.00800           0
     12919 TIP3     579      TIP3     OH2      OT      -0.834000       15.9994           0
     12920 TIP3     579      TIP3     H1       HT       0.417000       1.00800           0
     12921 TIP3     579      TIP3     H2       HT       0.417000       1.00800           0
     12922 TIP3     580      TIP3     OH2      OT      -0.834000       15.9994           0
     12923 TIP3     580      TIP3     H1       HT       0.417000       1.00800           0
     12924 TIP3     580      TIP3     H2       HT       0.417000       1.00800           0
     12925 TIP3     581      TIP3     OH2      OT      -0.834000       15.9994           0
     12926 TIP3     581      TIP3     H1       HT       0.417000       1.00800           0
     12927 TIP3     581      TIP3     H2       HT       0.417000       1.00800           0
     12928 TIP3     582      TIP3     OH2      OT      -0.834000       15.9994           0
     12929 TIP3     582      TIP3     H1       HT       0.417000       1.00800           0
     12930 TIP3     582      TIP3     H2       HT       0.417000       1.00800           0
     12931 TIP3     583      TIP3     OH2      OT      -0.834000       15.9994           0
     12932 TIP3     583      TIP3     H1       HT       0.417000       1.00800           0
     12933 TIP3     583      TIP3     H2       HT       0.417000       1.00800           0
     12934 TIP3     584      TIP3     OH2      OT      -0.834000       15.9994           0
     12935 TIP3     584      TIP3     H1       HT       0.417000       1.00800           0
     12936 TIP3     584      TIP3     H2       HT       0.417000       1.00800           0
     12937 TIP3     585      TIP3     OH2      OT      -0.834000       15.9994           0
     12938 TIP3     585      TIP3     H1       HT       0.417000       1.00800           0
     12939 TIP3     585      TIP3     H2       HT       0.417000       1.00800           0
     12940 TIP3     586      TIP3     OH2      OT      -0.834000       15.9994           0
     12941 TIP3     586      TIP3     H1       HT       0.417000       1.00800           0
     12942 TIP3     586      TIP3     H2       HT       0.417000       1.00800           0
     12943 TIP3     587      TIP3     OH2      OT      -0.834000       15.9994           0
     12944 TIP3     587      TIP3     H1       HT       0.417000       1.00800           0
     12945 TIP3     587      TIP3     H2       HT       0.417000       1.00800           0
     12946 TIP3     588      TIP3     OH2      OT      -0.834000       15.9994           0
     12947 TIP3     588      TIP3     H1       HT       0.417000       1.00800           0
     12948 TIP3     588      TIP3     H2       HT       0.417000       1.00800           0
     12949 TIP3     589      TIP3     OH2      OT      -0.834000       15.9994           0
     12950 TIP3     589      TIP3     H1       HT       0.417000       1.00800           0
     12951 TIP3     589      TIP3     H2       HT       0.417000       1.00800           0
     12952 TIP3     590      TIP3     OH2      OT      -0.834000       15.9994           0
     12953 TIP3     590      TIP3     H1       HT       0.417000       1.00800           0
     12954 TIP3     590      TIP3     H2       HT       0.417000       1.00800           0
     12955 TIP3     591      TIP3     OH2      OT      -0.834000       15.9994           0
     12956 TIP3     591      TIP3     H1       HT       0.417000       1.00800           0
     12957 TIP3     591      TIP3     H2       HT       0.417000       1.00800           0
     12958 TIP3     592      TIP3     OH2      OT      -0.834000       15.9994           0
     12959 TIP3     592      TIP3     H1       HT       0.417000       1.00800           0
     12960 TIP3     592      TIP3     H2       HT       0.417000       1.00800           0
     12961 TIP3     593      TIP3     OH2      OT      -0.834000       15.9994           0
     12962 TIP3     593      TIP3     H1       HT       0.417000       1.00800           0
     12963 TIP3     593      TIP3     H2       HT       0.417000       1.00800           0
     12964 TIP3     594      TIP3     OH2      OT      -0.834000       15.9994           0
     12965 TIP3     594      TIP3     H1       HT       0.417000       1.00800           0
     12966 TIP3     594      TIP3     H2       HT       0.417000       1.00800           0
     12967 TIP3     595      TIP3     OH2      OT      -0.834000       15.9994           0
     12968 TIP3     595      TIP3     H1       HT       0.417000       1.00800           0
     12969 TIP3     595      TIP3     H2       HT       0.417000       1.00800           0
     12970 TIP3     596      TIP3     OH2      OT      -0.834000       15.9994           0
     12971 TIP3     596      TIP3     H1       HT       0.417000       1.00800           0
     12972 TIP3     596      TIP3     H2       HT       0.417000       1.00800           0
     12973 TIP3     597      TIP3     OH2      OT      -0.834000       15.9994           0
     12974 TIP3     597      TIP3     H1       HT       0.417000       1.00800           0
     12975 TIP3     597      TIP3     H2       HT       0.417000       1.00800           0
     12976 TIP3     598      TIP3     OH2      OT      -0.834000       15.9994           0
     12977 TIP3     598      TIP3     H1       HT       0.417000       1.00800           0
     12978 TIP3     598      TIP3     H2       HT       0.417000       1.00800           0
     12979 TIP3     599      TIP3     OH2      OT      -0.834000       15.9994           0
     12980 TIP3     599      TIP3     H1       HT       0.417000       1.00800           0
     12981 TIP3     599      TIP3     H2       HT       0.417000       1.00800           0
     12982 TIP3     600      TIP3     OH2      OT      -0.834000       15.9994           0
     12983 TIP3     600      TIP3     H1       HT       0.417000       1.00800           0
     12984 TIP3     600      TIP3     H2       HT       0.417000       1.00800           0
     12985 TIP3     601      TIP3     OH2      OT      -0.834000       15.9994           0
     12986 TIP3     601      TIP3     H1       HT       0.417000       1.00800           0
     12987 TIP3     601      TIP3     H2       HT       0.417000       1.00800           0
     12988 TIP3     602      TIP3     OH2      OT      -0.834000       15.9994           0
     12989 TIP3     602      TIP3     H1       HT       0.417000       1.00800           0
     12990 TIP3     602      TIP3     H2       HT       0.417000       1.00800           0
     12991 TIP3     603      TIP3     OH2      OT      -0.834000       15.9994           0
     12992 TIP3     603      TIP3     H1       HT       0.417000       1.00800           0
     12993 TIP3     603      TIP3     H2       HT       0.417000       1.00800           0
     12994 TIP3     604      TIP3     OH2      OT      -0.834000       15.9994           0
     12995 TIP3     604      TIP3     H1       HT       0.417000       1.00800           0
     12996 TIP3     604      TIP3     H2       HT       0.417000       1.00800           0
     12997 TIP3     605      TIP3     OH2      OT      -0.834000       15.9994           0
     12998 TIP3     605      TIP3     H1       HT       0.417000       1.00800           0
     12999 TIP3     605      TIP3     H2       HT       0.417000       1.00800           0
     13000 TIP3     606      TIP3     OH2      OT      -0.834000       15.9994           0
     13001 TIP3     606      TIP3     H1       HT       0.417000       1.00800           0
     13002 TIP3     606      TIP3     H2       HT       0.417000       1.00800           0
     13003 TIP3     607      TIP3     OH2      OT      -0.834000       15.9994           0
     13004 TIP3     607      TIP3     H1       HT       0.417000       1.00800           0
     13005 TIP3     607      TIP3     H2       HT       0.417000       1.00800           0
     13006 TIP3     608      TIP3     OH2      OT      -0.834000       15.9994           0
     13007 TIP3     608      TIP3     H1       HT       0.417000       1.00800           0
     13008 TIP3     608      TIP3     H2       HT       0.417000       1.00800           0
     13009 TIP3     609      TIP3     OH2      OT      -0.834000       15.9994           0
     13010 TIP3     609      TIP3     H1       HT       0.417000       1.00800           0
     13011 TIP3     609      TIP3     H2       HT       0.417000       1.00800           0
     13012 TIP3     610      TIP3     OH2      OT      -0.834000       15.9994           0
     13013 TIP3     610      TIP3     H1       HT       0.417000       1.00800           0
     13014 TIP3     610      TIP3     H2       HT       0.417000       1.00800           0
     13015 TIP3     611      TIP3     OH2      OT      -0.834000       15.9994           0
     13016 TIP3     611      TIP3     H1       HT       0.417000       1.00800           0
     13017 TIP3     611      TIP3     H2       HT       0.417000       1.00800           0
     13018 TIP3     612      TIP3     OH2      OT      -0.834000       15.9994           0
     13019 TIP3     612      TIP3     H1       HT       0.417000       1.00800           0
     13020 TIP3     612      TIP3     H2       HT       0.417000       1.00800           0
     13021 TIP3     613      TIP3     OH2      OT      -0.834000       15.9994           0
     13022 TIP3     613      TIP3     H1       HT       0.417000       1.00800           0
     13023 TIP3     613      TIP3     H2       HT       0.417000       1.00800           0
     13024 TIP3     614      TIP3     OH2      OT      -0.834000       15.9994           0
     13025 TIP3     614      TIP3     H1       HT       0.417000       1.00800           0
     13026 TIP3     614      TIP3     H2       HT       0.417000       1.00800           0
     13027 TIP3     615      TIP3     OH2      OT      -0.834000       15.9994           0
     13028 TIP3     615      TIP3     H1       HT       0.417000       1.00800           0
     13029 TIP3     615      TIP3     H2       HT       0.417000       1.00800           0
     13030 TIP3     616      TIP3     OH2      OT      -0.834000       15.9994           0
     13031 TIP3     616      TIP3     H1       HT       0.417000       1.00800           0
     13032 TIP3     616      TIP3     H2       HT       0.417000       1.00800           0
     13033 TIP3     617      TIP3     OH2      OT      -0.834000       15.9994           0
     13034 TIP3     617      TIP3     H1       HT       0.417000       1.00800           0
     13035 TIP3     617      TIP3     H2       HT       0.417000       1.00800           0
     13036 TIP3     618      TIP3     OH2      OT      -0.834000       15.9994           0
     13037 TIP3     618      TIP3     H1       HT       0.417000       1.00800           0
     13038 TIP3     618      TIP3     H2       HT       0.417000       1.00800           0
     13039 TIP3     619      TIP3     OH2      OT      -0.834000       15.9994           0
     13040 TIP3     619      TIP3     H1       HT       0.417000       1.00800           0
     13041 TIP3     619      TIP3     H2       HT       0.417000       1.00800           0
     13042 TIP3     620      TIP3     OH2      OT      -0.834000       15.9994           0
     13043 TIP3     620      TIP3     H1       HT       0.417000       1.00800           0
     13044 TIP3     620      TIP3     H2       HT       0.417000       1.00800           0
     13045 TIP3     621      TIP3     OH2      OT      -0.834000       15.9994           0
     13046 TIP3     621      TIP3     H1       HT       0.417000       1.00800           0
     13047 TIP3     621      TIP3     H2       HT       0.417000       1.00800           0
     13048 TIP3     622      TIP3     OH2      OT      -0.834000       15.9994           0
     13049 TIP3     622      TIP3     H1       HT       0.417000       1.00800           0
     13050 TIP3     622      TIP3     H2       HT       0.417000       1.00800           0
     13051 TIP3     623      TIP3     OH2      OT      -0.834000       15.9994           0
     13052 TIP3     623      TIP3     H1       HT       0.417000       1.00800           0
     13053 TIP3     623      TIP3     H2       HT       0.417000       1.00800           0
     13054 TIP3     624      TIP3     OH2      OT      -0.834000       15.9994           0
     13055 TIP3     624      TIP3     H1       HT       0.417000       1.00800           0
     13056 TIP3     624      TIP3     H2       HT       0.417000       1.00800           0
     13057 TIP3     625      TIP3     OH2      OT      -0.834000       15.9994           0
     13058 TIP3     625      TIP3     H1       HT       0.417000       1.00800           0
     13059 TIP3     625      TIP3     H2       HT       0.417000       1.00800           0
     13060 TIP3     626      TIP3     OH2      OT      -0.834000       15.9994           0
     13061 TIP3     626      TIP3     H1       HT       0.417000       1.00800           0
     13062 TIP3     626      TIP3     H2       HT       0.417000       1.00800           0
     13063 TIP3     627      TIP3     OH2      OT      -0.834000       15.9994           0
     13064 TIP3     627      TIP3     H1       HT       0.417000       1.00800           0
     13065 TIP3     627      TIP3     H2       HT       0.417000       1.00800           0
     13066 TIP3     628      TIP3     OH2      OT      -0.834000       15.9994           0
     13067 TIP3     628      TIP3     H1       HT       0.417000       1.00800           0
     13068 TIP3     628      TIP3     H2       HT       0.417000       1.00800           0
     13069 TIP3     629      TIP3     OH2      OT      -0.834000       15.9994           0
     13070 TIP3     629      TIP3     H1       HT       0.417000       1.00800           0
     13071 TIP3     629      TIP3     H2       HT       0.417000       1.00800           0
     13072 TIP3     630      TIP3     OH2      OT      -0.834000       15.9994           0
     13073 TIP3     630      TIP3     H1       HT       0.417000       1.00800           0
     13074 TIP3     630      TIP3     H2       HT       0.417000       1.00800           0
     13075 TIP3     631      TIP3     OH2      OT      -0.834000       15.9994           0
     13076 TIP3     631      TIP3     H1       HT       0.417000       1.00800           0
     13077 TIP3     631      TIP3     H2       HT       0.417000       1.00800           0
     13078 TIP3     632      TIP3     OH2      OT      -0.834000       15.9994           0
     13079 TIP3     632      TIP3     H1       HT       0.417000       1.00800           0
     13080 TIP3     632      TIP3     H2       HT       0.417000       1.00800           0
     13081 TIP3     633      TIP3     OH2      OT      -0.834000       15.9994           0
     13082 TIP3     633      TIP3     H1       HT       0.417000       1.00800           0
     13083 TIP3     633      TIP3     H2       HT       0.417000       1.00800           0
     13084 TIP3     634      TIP3     OH2      OT      -0.834000       15.9994           0
     13085 TIP3     634      TIP3     H1       HT       0.417000       1.00800           0
     13086 TIP3     634      TIP3     H2       HT       0.417000       1.00800           0
     13087 TIP3     635      TIP3     OH2      OT      -0.834000       15.9994           0
     13088 TIP3     635      TIP3     H1       HT       0.417000       1.00800           0
     13089 TIP3     635      TIP3     H2       HT       0.417000       1.00800           0
     13090 TIP3     636      TIP3     OH2      OT      -0.834000       15.9994           0
     13091 TIP3     636      TIP3     H1       HT       0.417000       1.00800           0
     13092 TIP3     636      TIP3     H2       HT       0.417000       1.00800           0
     13093 TIP3     637      TIP3     OH2      OT      -0.834000       15.9994           0
     13094 TIP3     637      TIP3     H1       HT       0.417000       1.00800           0
     13095 TIP3     637      TIP3     H2       HT       0.417000       1.00800           0
     13096 TIP3     638      TIP3     OH2      OT      -0.834000       15.9994           0
     13097 TIP3     638      TIP3     H1       HT       0.417000       1.00800           0
     13098 TIP3     638      TIP3     H2       HT       0.417000       1.00800           0
     13099 TIP3     639      TIP3     OH2      OT      -0.834000       15.9994           0
     13100 TIP3     639      TIP3     H1       HT       0.417000       1.00800           0
     13101 TIP3     639      TIP3     H2       HT       0.417000       1.00800           0
     13102 TIP3     640      TIP3     OH2      OT      -0.834000       15.9994           0
     13103 TIP3     640      TIP3     H1       HT       0.417000       1.00800           0
     13104 TIP3     640      TIP3     H2       HT       0.417000       1.00800           0
     13105 TIP3     641      TIP3     OH2      OT      -0.834000       15.9994           0
     13106 TIP3     641      TIP3     H1       HT       0.417000       1.00800           0
     13107 TIP3     641      TIP3     H2       HT       0.417000       1.00800           0
     13108 TIP3     642      TIP3     OH2      OT      -0.834000       15.9994           0
     13109 TIP3     642      TIP3     H1       HT       0.417000       1.00800           0
     13110 TIP3     642      TIP3     H2       HT       0.417000       1.00800           0
     13111 TIP3     643      TIP3     OH2      OT      -0.834000       15.9994           0
     13112 TIP3     643      TIP3     H1       HT       0.417000       1.00800           0
     13113 TIP3     643      TIP3     H2       HT       0.417000       1.00800           0
     13114 TIP3     644      TIP3     OH2      OT      -0.834000       15.9994           0
     13115 TIP3     644      TIP3     H1       HT       0.417000       1.00800           0
     13116 TIP3     644      TIP3     H2       HT       0.417000       1.00800           0
     13117 TIP3     645      TIP3     OH2      OT      -0.834000       15.9994           0
     13118 TIP3     645      TIP3     H1       HT       0.417000       1.00800           0
     13119 TIP3     645      TIP3     H2       HT       0.417000       1.00800           0
     13120 TIP3     646      TIP3     OH2      OT      -0.834000       15.9994           0
     13121 TIP3     646      TIP3     H1       HT       0.417000       1.00800           0
     13122 TIP3     646      TIP3     H2       HT       0.417000       1.00800           0
     13123 TIP3     647      TIP3     OH2      OT      -0.834000       15.9994           0
     13124 TIP3     647      TIP3     H1       HT       0.417000       1.00800           0
     13125 TIP3     647      TIP3     H2       HT       0.417000       1.00800           0
     13126 TIP3     648      TIP3     OH2      OT      -0.834000       15.9994           0
     13127 TIP3     648      TIP3     H1       HT       0.417000       1.00800           0
     13128 TIP3     648      TIP3     H2       HT       0.417000       1.00800           0
     13129 TIP3     649      TIP3     OH2      OT      -0.834000       15.9994           0
     13130 TIP3     649      TIP3     H1       HT       0.417000       1.00800           0
     13131 TIP3     649      TIP3     H2       HT       0.417000       1.00800           0
     13132 TIP3     650      TIP3     OH2      OT      -0.834000       15.9994           0
     13133 TIP3     650      TIP3     H1       HT       0.417000       1.00800           0
     13134 TIP3     650      TIP3     H2       HT       0.417000       1.00800           0
     13135 TIP3     651      TIP3     OH2      OT      -0.834000       15.9994           0
     13136 TIP3     651      TIP3     H1       HT       0.417000       1.00800           0
     13137 TIP3     651      TIP3     H2       HT       0.417000       1.00800           0
     13138 TIP3     652      TIP3     OH2      OT      -0.834000       15.9994           0
     13139 TIP3     652      TIP3     H1       HT       0.417000       1.00800           0
     13140 TIP3     652      TIP3     H2       HT       0.417000       1.00800           0
     13141 TIP3     653      TIP3     OH2      OT      -0.834000       15.9994           0
     13142 TIP3     653      TIP3     H1       HT       0.417000       1.00800           0
     13143 TIP3     653      TIP3     H2       HT       0.417000       1.00800           0
     13144 TIP3     654      TIP3     OH2      OT      -0.834000       15.9994           0
     13145 TIP3     654      TIP3     H1       HT       0.417000       1.00800           0
     13146 TIP3     654      TIP3     H2       HT       0.417000       1.00800           0
     13147 TIP3     655      TIP3     OH2      OT      -0.834000       15.9994           0
     13148 TIP3     655      TIP3     H1       HT       0.417000       1.00800           0
     13149 TIP3     655      TIP3     H2       HT       0.417000       1.00800           0
     13150 TIP3     656      TIP3     OH2      OT      -0.834000       15.9994           0
     13151 TIP3     656      TIP3     H1       HT       0.417000       1.00800           0
     13152 TIP3     656      TIP3     H2       HT       0.417000       1.00800           0
     13153 TIP3     657      TIP3     OH2      OT      -0.834000       15.9994           0
     13154 TIP3     657      TIP3     H1       HT       0.417000       1.00800           0
     13155 TIP3     657      TIP3     H2       HT       0.417000       1.00800           0
     13156 TIP3     658      TIP3     OH2      OT      -0.834000       15.9994           0
     13157 TIP3     658      TIP3     H1       HT       0.417000       1.00800           0
     13158 TIP3     658      TIP3     H2       HT       0.417000       1.00800           0
     13159 TIP3     659      TIP3     OH2      OT      -0.834000       15.9994           0
     13160 TIP3     659      TIP3     H1       HT       0.417000       1.00800           0
     13161 TIP3     659      TIP3     H2       HT       0.417000       1.00800           0
     13162 TIP3     660      TIP3     OH2      OT      -0.834000       15.9994           0
     13163 TIP3     660      TIP3     H1       HT       0.417000       1.00800           0
     13164 TIP3     660      TIP3     H2       HT       0.417000       1.00800           0
     13165 TIP3     661      TIP3     OH2      OT      -0.834000       15.9994           0
     13166 TIP3     661      TIP3     H1       HT       0.417000       1.00800           0
     13167 TIP3     661      TIP3     H2       HT       0.417000       1.00800           0
     13168 TIP3     662      TIP3     OH2      OT      -0.834000       15.9994           0
     13169 TIP3     662      TIP3     H1       HT       0.417000       1.00800           0
     13170 TIP3     662      TIP3     H2       HT       0.417000       1.00800           0
     13171 TIP3     663      TIP3     OH2      OT      -0.834000       15.9994           0
     13172 TIP3     663      TIP3     H1       HT       0.417000       1.00800           0
     13173 TIP3     663      TIP3     H2       HT       0.417000       1.00800           0
     13174 TIP3     664      TIP3     OH2      OT      -0.834000       15.9994           0
     13175 TIP3     664      TIP3     H1       HT       0.417000       1.00800           0
     13176 TIP3     664      TIP3     H2       HT       0.417000       1.00800           0
     13177 TIP3     665      TIP3     OH2      OT      -0.834000       15.9994           0
     13178 TIP3     665      TIP3     H1       HT       0.417000       1.00800           0
     13179 TIP3     665      TIP3     H2       HT       0.417000       1.00800           0
     13180 TIP3     666      TIP3     OH2      OT      -0.834000       15.9994           0
     13181 TIP3     666      TIP3     H1       HT       0.417000       1.00800           0
     13182 TIP3     666      TIP3     H2       HT       0.417000       1.00800           0
     13183 TIP3     667      TIP3     OH2      OT      -0.834000       15.9994           0
     13184 TIP3     667      TIP3     H1       HT       0.417000       1.00800           0
     13185 TIP3     667      TIP3     H2       HT       0.417000       1.00800           0
     13186 TIP3     668      TIP3     OH2      OT      -0.834000       15.9994           0
     13187 TIP3     668      TIP3     H1       HT       0.417000       1.00800           0
     13188 TIP3     668      TIP3     H2       HT       0.417000       1.00800           0
     13189 TIP3     669      TIP3     OH2      OT      -0.834000       15.9994           0
     13190 TIP3     669      TIP3     H1       HT       0.417000       1.00800           0
     13191 TIP3     669      TIP3     H2       HT       0.417000       1.00800           0
     13192 TIP3     670      TIP3     OH2      OT      -0.834000       15.9994           0
     13193 TIP3     670      TIP3     H1       HT       0.417000       1.00800           0
     13194 TIP3     670      TIP3     H2       HT       0.417000       1.00800           0
     13195 TIP3     671      TIP3     OH2      OT      -0.834000       15.9994           0
     13196 TIP3     671      TIP3     H1       HT       0.417000       1.00800           0
     13197 TIP3     671      TIP3     H2       HT       0.417000       1.00800           0
     13198 TIP3     672      TIP3     OH2      OT      -0.834000       15.9994           0
     13199 TIP3     672      TIP3     H1       HT       0.417000       1.00800           0
     13200 TIP3     672      TIP3     H2       HT       0.417000       1.00800           0
     13201 TIP3     673      TIP3     OH2      OT      -0.834000       15.9994           0
     13202 TIP3     673      TIP3     H1       HT       0.417000       1.00800           0
     13203 TIP3     673      TIP3     H2       HT       0.417000       1.00800           0
     13204 TIP3     674      TIP3     OH2      OT      -0.834000       15.9994           0
     13205 TIP3     674      TIP3     H1       HT       0.417000       1.00800           0
     13206 TIP3     674      TIP3     H2       HT       0.417000       1.00800           0
     13207 TIP3     675      TIP3     OH2      OT      -0.834000       15.9994           0
     13208 TIP3     675      TIP3     H1       HT       0.417000       1.00800           0
     13209 TIP3     675      TIP3     H2       HT       0.417000       1.00800           0
     13210 TIP3     676      TIP3     OH2      OT      -0.834000       15.9994           0
     13211 TIP3     676      TIP3     H1       HT       0.417000       1.00800           0
     13212 TIP3     676      TIP3     H2       HT       0.417000       1.00800           0
     13213 TIP3     677      TIP3     OH2      OT      -0.834000       15.9994           0
     13214 TIP3     677      TIP3     H1       HT       0.417000       1.00800           0
     13215 TIP3     677      TIP3     H2       HT       0.417000       1.00800           0
     13216 TIP3     678      TIP3     OH2      OT      -0.834000       15.9994           0
     13217 TIP3     678      TIP3     H1       HT       0.417000       1.00800           0
     13218 TIP3     678      TIP3     H2       HT       0.417000       1.00800           0
     13219 TIP3     679      TIP3     OH2      OT      -0.834000       15.9994           0
     13220 TIP3     679      TIP3     H1       HT       0.417000       1.00800           0
     13221 TIP3     679      TIP3     H2       HT       0.417000       1.00800           0
     13222 TIP3     680      TIP3     OH2      OT      -0.834000       15.9994           0
     13223 TIP3     680      TIP3     H1       HT       0.417000       1.00800           0
     13224 TIP3     680      TIP3     H2       HT       0.417000       1.00800           0
     13225 TIP3     681      TIP3     OH2      OT      -0.834000       15.9994           0
     13226 TIP3     681      TIP3     H1       HT       0.417000       1.00800           0
     13227 TIP3     681      TIP3     H2       HT       0.417000       1.00800           0
     13228 TIP3     682      TIP3     OH2      OT      -0.834000       15.9994           0
     13229 TIP3     682      TIP3     H1       HT       0.417000       1.00800           0
     13230 TIP3     682      TIP3     H2       HT       0.417000       1.00800           0
     13231 TIP3     683      TIP3     OH2      OT      -0.834000       15.9994           0
     13232 TIP3     683      TIP3     H1       HT       0.417000       1.00800           0
     13233 TIP3     683      TIP3     H2       HT       0.417000       1.00800           0
     13234 TIP3     684      TIP3     OH2      OT      -0.834000       15.9994           0
     13235 TIP3     684      TIP3     H1       HT       0.417000       1.00800           0
     13236 TIP3     684      TIP3     H2       HT       0.417000       1.00800           0
     13237 TIP3     685      TIP3     OH2      OT      -0.834000       15.9994           0
     13238 TIP3     685      TIP3     H1       HT       0.417000       1.00800           0
     13239 TIP3     685      TIP3     H2       HT       0.417000       1.00800           0
     13240 TIP3     686      TIP3     OH2      OT      -0.834000       15.9994           0
     13241 TIP3     686      TIP3     H1       HT       0.417000       1.00800           0
     13242 TIP3     686      TIP3     H2       HT       0.417000       1.00800           0
     13243 TIP3     687      TIP3     OH2      OT      -0.834000       15.9994           0
     13244 TIP3     687      TIP3     H1       HT       0.417000       1.00800           0
     13245 TIP3     687      TIP3     H2       HT       0.417000       1.00800           0
     13246 TIP3     688      TIP3     OH2      OT      -0.834000       15.9994           0
     13247 TIP3     688      TIP3     H1       HT       0.417000       1.00800           0
     13248 TIP3     688      TIP3     H2       HT       0.417000       1.00800           0
     13249 TIP3     689      TIP3     OH2      OT      -0.834000       15.9994           0
     13250 TIP3     689      TIP3     H1       HT       0.417000       1.00800           0
     13251 TIP3     689      TIP3     H2       HT       0.417000       1.00800           0
     13252 TIP3     690      TIP3     OH2      OT      -0.834000       15.9994           0
     13253 TIP3     690      TIP3     H1       HT       0.417000       1.00800           0
     13254 TIP3     690      TIP3     H2       HT       0.417000       1.00800           0
     13255 TIP3     691      TIP3     OH2      OT      -0.834000       15.9994           0
     13256 TIP3     691      TIP3     H1       HT       0.417000       1.00800           0
     13257 TIP3     691      TIP3     H2       HT       0.417000       1.00800           0
     13258 TIP3     692      TIP3     OH2      OT      -0.834000       15.9994           0
     13259 TIP3     692      TIP3     H1       HT       0.417000       1.00800           0
     13260 TIP3     692      TIP3     H2       HT       0.417000       1.00800           0
     13261 TIP3     693      TIP3     OH2      OT      -0.834000       15.9994           0
     13262 TIP3     693      TIP3     H1       HT       0.417000       1.00800           0
     13263 TIP3     693      TIP3     H2       HT       0.417000       1.00800           0
     13264 TIP3     694      TIP3     OH2      OT      -0.834000       15.9994           0
     13265 TIP3     694      TIP3     H1       HT       0.417000       1.00800           0
     13266 TIP3     694      TIP3     H2       HT       0.417000       1.00800           0
     13267 TIP3     695      TIP3     OH2      OT      -0.834000       15.9994           0
     13268 TIP3     695      TIP3     H1       HT       0.417000       1.00800           0
     13269 TIP3     695      TIP3     H2       HT       0.417000       1.00800           0
     13270 TIP3     696      TIP3     OH2      OT      -0.834000       15.9994           0
     13271 TIP3     696      TIP3     H1       HT       0.417000       1.00800           0
     13272 TIP3     696      TIP3     H2       HT       0.417000       1.00800           0
     13273 TIP3     697      TIP3     OH2      OT      -0.834000       15.9994           0
     13274 TIP3     697      TIP3     H1       HT       0.417000       1.00800           0
     13275 TIP3     697      TIP3     H2       HT       0.417000       1.00800           0
     13276 TIP3     698      TIP3     OH2      OT      -0.834000       15.9994           0
     13277 TIP3     698      TIP3     H1       HT       0.417000       1.00800           0
     13278 TIP3     698      TIP3     H2       HT       0.417000       1.00800           0
     13279 TIP3     699      TIP3     OH2      OT      -0.834000       15.9994           0
     13280 TIP3     699      TIP3     H1       HT       0.417000       1.00800           0
     13281 TIP3     699      TIP3     H2       HT       0.417000       1.00800           0
     13282 TIP3     700      TIP3     OH2      OT      -0.834000       15.9994           0
     13283 TIP3     700      TIP3     H1       HT       0.417000       1.00800           0
     13284 TIP3     700      TIP3     H2       HT       0.417000       1.00800           0
     13285 TIP3     701      TIP3     OH2      OT      -0.834000       15.9994           0
     13286 TIP3     701      TIP3     H1       HT       0.417000       1.00800           0
     13287 TIP3     701      TIP3     H2       HT       0.417000       1.00800           0
     13288 TIP3     702      TIP3     OH2      OT      -0.834000       15.9994           0
     13289 TIP3     702      TIP3     H1       HT       0.417000       1.00800           0
     13290 TIP3     702      TIP3     H2       HT       0.417000       1.00800           0
     13291 TIP3     703      TIP3     OH2      OT      -0.834000       15.9994           0
     13292 TIP3     703      TIP3     H1       HT       0.417000       1.00800           0
     13293 TIP3     703      TIP3     H2       HT       0.417000       1.00800           0
     13294 TIP3     704      TIP3     OH2      OT      -0.834000       15.9994           0
     13295 TIP3     704      TIP3     H1       HT       0.417000       1.00800           0
     13296 TIP3     704      TIP3     H2       HT       0.417000       1.00800           0
     13297 TIP3     705      TIP3     OH2      OT      -0.834000       15.9994           0
     13298 TIP3     705      TIP3     H1       HT       0.417000       1.00800           0
     13299 TIP3     705      TIP3     H2       HT       0.417000       1.00800           0
     13300 TIP3     706      TIP3     OH2      OT      -0.834000       15.9994           0
     13301 TIP3     706      TIP3     H1       HT       0.417000       1.00800           0
     13302 TIP3     706      TIP3     H2       HT       0.417000       1.00800           0
     13303 TIP3     707      TIP3     OH2      OT      -0.834000       15.9994           0
     13304 TIP3     707      TIP3     H1       HT       0.417000       1.00800           0
     13305 TIP3     707      TIP3     H2       HT       0.417000       1.00800           0
     13306 TIP3     708      TIP3     OH2      OT      -0.834000       15.9994           0
     13307 TIP3     708      TIP3     H1       HT       0.417000       1.00800           0
     13308 TIP3     708      TIP3     H2       HT       0.417000       1.00800           0
     13309 TIP3     709      TIP3     OH2      OT      -0.834000       15.9994           0
     13310 TIP3     709      TIP3     H1       HT       0.417000       1.00800           0
     13311 TIP3     709      TIP3     H2       HT       0.417000       1.00800           0
     13312 TIP3     710      TIP3     OH2      OT      -0.834000       15.9994           0
     13313 TIP3     710      TIP3     H1       HT       0.417000       1.00800           0
     13314 TIP3     710      TIP3     H2       HT       0.417000       1.00800           0
     13315 TIP3     711      TIP3     OH2      OT      -0.834000       15.9994           0
     13316 TIP3     711      TIP3     H1       HT       0.417000       1.00800           0
     13317 TIP3     711      TIP3     H2       HT       0.417000       1.00800           0
     13318 TIP3     712      TIP3     OH2      OT      -0.834000       15.9994           0
     13319 TIP3     712      TIP3     H1       HT       0.417000       1.00800           0
     13320 TIP3     712      TIP3     H2       HT       0.417000       1.00800           0
     13321 TIP3     713      TIP3     OH2      OT      -0.834000       15.9994           0
     13322 TIP3     713      TIP3     H1       HT       0.417000       1.00800           0
     13323 TIP3     713      TIP3     H2       HT       0.417000       1.00800           0
     13324 TIP3     714      TIP3     OH2      OT      -0.834000       15.9994           0
     13325 TIP3     714      TIP3     H1       HT       0.417000       1.00800           0
     13326 TIP3     714      TIP3     H2       HT       0.417000       1.00800           0
     13327 TIP3     715      TIP3     OH2      OT      -0.834000       15.9994           0
     13328 TIP3     715      TIP3     H1       HT       0.417000       1.00800           0
     13329 TIP3     715      TIP3     H2       HT       0.417000       1.00800           0
     13330 TIP3     716      TIP3     OH2      OT      -0.834000       15.9994           0
     13331 TIP3     716      TIP3     H1       HT       0.417000       1.00800           0
     13332 TIP3     716      TIP3     H2       HT       0.417000       1.00800           0
     13333 TIP3     717      TIP3     OH2      OT      -0.834000       15.9994           0
     13334 TIP3     717      TIP3     H1       HT       0.417000       1.00800           0
     13335 TIP3     717      TIP3     H2       HT       0.417000       1.00800           0
     13336 TIP3     718      TIP3     OH2      OT      -0.834000       15.9994           0
     13337 TIP3     718      TIP3     H1       HT       0.417000       1.00800           0
     13338 TIP3     718      TIP3     H2       HT       0.417000       1.00800           0
     13339 TIP3     719      TIP3     OH2      OT      -0.834000       15.9994           0
     13340 TIP3     719      TIP3     H1       HT       0.417000       1.00800           0
     13341 TIP3     719      TIP3     H2       HT       0.417000       1.00800           0
     13342 TIP3     720      TIP3     OH2      OT      -0.834000       15.9994           0
     13343 TIP3     720      TIP3     H1       HT       0.417000       1.00800           0
     13344 TIP3     720      TIP3     H2       HT       0.417000       1.00800           0
     13345 TIP3     721      TIP3     OH2      OT      -0.834000       15.9994           0
     13346 TIP3     721      TIP3     H1       HT       0.417000       1.00800           0
     13347 TIP3     721      TIP3     H2       HT       0.417000       1.00800           0
     13348 TIP3     722      TIP3     OH2      OT      -0.834000       15.9994           0
     13349 TIP3     722      TIP3     H1       HT       0.417000       1.00800           0
     13350 TIP3     722      TIP3     H2       HT       0.417000       1.00800           0
     13351 TIP3     723      TIP3     OH2      OT      -0.834000       15.9994           0
     13352 TIP3     723      TIP3     H1       HT       0.417000       1.00800           0
     13353 TIP3     723      TIP3     H2       HT       0.417000       1.00800           0
     13354 TIP3     724      TIP3     OH2      OT      -0.834000       15.9994           0
     13355 TIP3     724      TIP3     H1       HT       0.417000       1.00800           0
     13356 TIP3     724      TIP3     H2       HT       0.417000       1.00800           0
     13357 TIP3     725      TIP3     OH2      OT      -0.834000       15.9994           0
     13358 TIP3     725      TIP3     H1       HT       0.417000       1.00800           0
     13359 TIP3     725      TIP3     H2       HT       0.417000       1.00800           0
     13360 TIP3     726      TIP3     OH2      OT      -0.834000       15.9994           0
     13361 TIP3     726      TIP3     H1       HT       0.417000       1.00800           0
     13362 TIP3     726      TIP3     H2       HT       0.417000       1.00800           0
     13363 TIP3     727      TIP3     OH2      OT      -0.834000       15.9994           0
     13364 TIP3     727      TIP3     H1       HT       0.417000       1.00800           0
     13365 TIP3     727      TIP3     H2       HT       0.417000       1.00800           0
     13366 TIP3     728      TIP3     OH2      OT      -0.834000       15.9994           0
     13367 TIP3     728      TIP3     H1       HT       0.417000       1.00800           0
     13368 TIP3     728      TIP3     H2       HT       0.417000       1.00800           0
     13369 TIP3     729      TIP3     OH2      OT      -0.834000       15.9994           0
     13370 TIP3     729      TIP3     H1       HT       0.417000       1.00800           0
     13371 TIP3     729      TIP3     H2       HT       0.417000       1.00800           0
     13372 TIP3     730      TIP3     OH2      OT      -0.834000       15.9994           0
     13373 TIP3     730      TIP3     H1       HT       0.417000       1.00800           0
     13374 TIP3     730      TIP3     H2       HT       0.417000       1.00800           0
     13375 TIP3     731      TIP3     OH2      OT      -0.834000       15.9994           0
     13376 TIP3     731      TIP3     H1       HT       0.417000       1.00800           0
     13377 TIP3     731      TIP3     H2       HT       0.417000       1.00800           0
     13378 TIP3     732      TIP3     OH2      OT      -0.834000       15.9994           0
     13379 TIP3     732      TIP3     H1       HT       0.417000       1.00800           0
     13380 TIP3     732      TIP3     H2       HT       0.417000       1.00800           0
     13381 TIP3     733      TIP3     OH2      OT      -0.834000       15.9994           0
     13382 TIP3     733      TIP3     H1       HT       0.417000       1.00800           0
     13383 TIP3     733      TIP3     H2       HT       0.417000       1.00800           0
     13384 TIP3     734      TIP3     OH2      OT      -0.834000       15.9994           0
     13385 TIP3     734      TIP3     H1       HT       0.417000       1.00800           0
     13386 TIP3     734      TIP3     H2       HT       0.417000       1.00800           0
     13387 TIP3     735      TIP3     OH2      OT      -0.834000       15.9994           0
     13388 TIP3     735      TIP3     H1       HT       0.417000       1.00800           0
     13389 TIP3     735      TIP3     H2       HT       0.417000       1.00800           0
     13390 TIP3     736      TIP3     OH2      OT      -0.834000       15.9994           0
     13391 TIP3     736      TIP3     H1       HT       0.417000       1.00800           0
     13392 TIP3     736      TIP3     H2       HT       0.417000       1.00800           0
     13393 TIP3     737      TIP3     OH2      OT      -0.834000       15.9994           0
     13394 TIP3     737      TIP3     H1       HT       0.417000       1.00800           0
     13395 TIP3     737      TIP3     H2       HT       0.417000       1.00800           0
     13396 TIP3     738      TIP3     OH2      OT      -0.834000       15.9994           0
     13397 TIP3     738      TIP3     H1       HT       0.417000       1.00800           0
     13398 TIP3     738      TIP3     H2       HT       0.417000       1.00800           0
     13399 TIP3     739      TIP3     OH2      OT      -0.834000       15.9994           0
     13400 TIP3     739      TIP3     H1       HT       0.417000       1.00800           0
     13401 TIP3     739      TIP3     H2       HT       0.417000       1.00800           0
     13402 TIP3     740      TIP3     OH2      OT      -0.834000       15.9994           0
     13403 TIP3     740      TIP3     H1       HT       0.417000       1.00800           0
     13404 TIP3     740      TIP3     H2       HT       0.417000       1.00800           0
     13405 TIP3     741      TIP3     OH2      OT      -0.834000       15.9994           0
     13406 TIP3     741      TIP3     H1       HT       0.417000       1.00800           0
     13407 TIP3     741      TIP3     H2       HT       0.417000       1.00800           0
     13408 TIP3     742      TIP3     OH2      OT      -0.834000       15.9994           0
     13409 TIP3     742      TIP3     H1       HT       0.417000       1.00800           0
     13410 TIP3     742      TIP3     H2       HT       0.417000       1.00800           0
     13411 TIP3     743      TIP3     OH2      OT      -0.834000       15.9994           0
     13412 TIP3     743      TIP3     H1       HT       0.417000       1.00800           0
     13413 TIP3     743      TIP3     H2       HT       0.417000       1.00800           0
     13414 TIP3     744      TIP3     OH2      OT      -0.834000       15.9994           0
     13415 TIP3     744      TIP3     H1       HT       0.417000       1.00800           0
     13416 TIP3     744      TIP3     H2       HT       0.417000       1.00800           0
     13417 TIP3     745      TIP3     OH2      OT      -0.834000       15.9994           0
     13418 TIP3     745      TIP3     H1       HT       0.417000       1.00800           0
     13419 TIP3     745      TIP3     H2       HT       0.417000       1.00800           0
     13420 TIP3     746      TIP3     OH2      OT      -0.834000       15.9994           0
     13421 TIP3     746      TIP3     H1       HT       0.417000       1.00800           0
     13422 TIP3     746      TIP3     H2       HT       0.417000       1.00800           0
     13423 TIP3     747      TIP3     OH2      OT      -0.834000       15.9994           0
     13424 TIP3     747      TIP3     H1       HT       0.417000       1.00800           0
     13425 TIP3     747      TIP3     H2       HT       0.417000       1.00800           0
     13426 TIP3     748      TIP3     OH2      OT      -0.834000       15.9994           0
     13427 TIP3     748      TIP3     H1       HT       0.417000       1.00800           0
     13428 TIP3     748      TIP3     H2       HT       0.417000       1.00800           0
     13429 TIP3     749      TIP3     OH2      OT      -0.834000       15.9994           0
     13430 TIP3     749      TIP3     H1       HT       0.417000       1.00800           0
     13431 TIP3     749      TIP3     H2       HT       0.417000       1.00800           0
     13432 TIP3     750      TIP3     OH2      OT      -0.834000       15.9994           0
     13433 TIP3     750      TIP3     H1       HT       0.417000       1.00800           0
     13434 TIP3     750      TIP3     H2       HT       0.417000       1.00800           0
     13435 TIP3     751      TIP3     OH2      OT      -0.834000       15.9994           0
     13436 TIP3     751      TIP3     H1       HT       0.417000       1.00800           0
     13437 TIP3     751      TIP3     H2       HT       0.417000       1.00800           0
     13438 TIP3     752      TIP3     OH2      OT      -0.834000       15.9994           0
     13439 TIP3     752      TIP3     H1       HT       0.417000       1.00800           0
     13440 TIP3     752      TIP3     H2       HT       0.417000       1.00800           0
     13441 TIP3     753      TIP3     OH2      OT      -0.834000       15.9994           0
     13442 TIP3     753      TIP3     H1       HT       0.417000       1.00800           0
     13443 TIP3     753      TIP3     H2       HT       0.417000       1.00800           0
     13444 TIP3     754      TIP3     OH2      OT      -0.834000       15.9994           0
     13445 TIP3     754      TIP3     H1       HT       0.417000       1.00800           0
     13446 TIP3     754      TIP3     H2       HT       0.417000       1.00800           0
     13447 TIP3     755      TIP3     OH2      OT      -0.834000       15.9994           0
     13448 TIP3     755      TIP3     H1       HT       0.417000       1.00800           0
     13449 TIP3     755      TIP3     H2       HT       0.417000       1.00800           0
     13450 TIP3     756      TIP3     OH2      OT      -0.834000       15.9994           0
     13451 TIP3     756      TIP3     H1       HT       0.417000       1.00800           0
     13452 TIP3     756      TIP3     H2       HT       0.417000       1.00800           0
     13453 TIP3     757      TIP3     OH2      OT      -0.834000       15.9994           0
     13454 TIP3     757      TIP3     H1       HT       0.417000       1.00800           0
     13455 TIP3     757      TIP3     H2       HT       0.417000       1.00800           0
     13456 TIP3     758      TIP3     OH2      OT      -0.834000       15.9994           0
     13457 TIP3     758      TIP3     H1       HT       0.417000       1.00800           0
     13458 TIP3     758      TIP3     H2       HT       0.417000       1.00800           0
     13459 TIP3     759      TIP3     OH2      OT      -0.834000       15.9994           0
     13460 TIP3     759      TIP3     H1       HT       0.417000       1.00800           0
     13461 TIP3     759      TIP3     H2       HT       0.417000       1.00800           0
     13462 TIP3     760      TIP3     OH2      OT      -0.834000       15.9994           0
     13463 TIP3     760      TIP3     H1       HT       0.417000       1.00800           0
     13464 TIP3     760      TIP3     H2       HT       0.417000       1.00800           0
     13465 TIP3     761      TIP3     OH2      OT      -0.834000       15.9994           0
     13466 TIP3     761      TIP3     H1       HT       0.417000       1.00800           0
     13467 TIP3     761      TIP3     H2       HT       0.417000       1.00800           0
     13468 TIP3     762      TIP3     OH2      OT      -0.834000       15.9994           0
     13469 TIP3     762      TIP3     H1       HT       0.417000       1.00800           0
     13470 TIP3     762      TIP3     H2       HT       0.417000       1.00800           0
     13471 TIP3     763      TIP3     OH2      OT      -0.834000       15.9994           0
     13472 TIP3     763      TIP3     H1       HT       0.417000       1.00800           0
     13473 TIP3     763      TIP3     H2       HT       0.417000       1.00800           0
     13474 TIP3     764      TIP3     OH2      OT      -0.834000       15.9994           0
     13475 TIP3     764      TIP3     H1       HT       0.417000       1.00800           0
     13476 TIP3     764      TIP3     H2       HT       0.417000       1.00800           0
     13477 TIP3     765      TIP3     OH2      OT      -0.834000       15.9994           0
     13478 TIP3     765      TIP3     H1       HT       0.417000       1.00800           0
     13479 TIP3     765      TIP3     H2       HT       0.417000       1.00800           0
     13480 TIP3     766      TIP3     OH2      OT      -0.834000       15.9994           0
     13481 TIP3     766      TIP3     H1       HT       0.417000       1.00800           0
     13482 TIP3     766      TIP3     H2       HT       0.417000       1.00800           0
     13483 TIP3     767      TIP3     OH2      OT      -0.834000       15.9994           0
     13484 TIP3     767      TIP3     H1       HT       0.417000       1.00800           0
     13485 TIP3     767      TIP3     H2       HT       0.417000       1.00800           0
     13486 TIP3     768      TIP3     OH2      OT      -0.834000       15.9994           0
     13487 TIP3     768      TIP3     H1       HT       0.417000       1.00800           0
     13488 TIP3     768      TIP3     H2       HT       0.417000       1.00800           0
     13489 TIP3     769      TIP3     OH2      OT      -0.834000       15.9994           0
     13490 TIP3     769      TIP3     H1       HT       0.417000       1.00800           0
     13491 TIP3     769      TIP3     H2       HT       0.417000       1.00800           0
     13492 TIP3     770      TIP3     OH2      OT      -0.834000       15.9994           0
     13493 TIP3     770      TIP3     H1       HT       0.417000       1.00800           0
     13494 TIP3     770      TIP3     H2       HT       0.417000       1.00800           0
     13495 TIP3     771      TIP3     OH2      OT      -0.834000       15.9994           0
     13496 TIP3     771      TIP3     H1       HT       0.417000       1.00800           0
     13497 TIP3     771      TIP3     H2       HT       0.417000       1.00800           0
     13498 TIP3     772      TIP3     OH2      OT      -0.834000       15.9994           0
     13499 TIP3     772      TIP3     H1       HT       0.417000       1.00800           0
     13500 TIP3     772      TIP3     H2       HT       0.417000       1.00800           0
     13501 TIP3     773      TIP3     OH2      OT      -0.834000       15.9994           0
     13502 TIP3     773      TIP3     H1       HT       0.417000       1.00800           0
     13503 TIP3     773      TIP3     H2       HT       0.417000       1.00800           0
     13504 TIP3     774      TIP3     OH2      OT      -0.834000       15.9994           0
     13505 TIP3     774      TIP3     H1       HT       0.417000       1.00800           0
     13506 TIP3     774      TIP3     H2       HT       0.417000       1.00800           0
     13507 TIP3     775      TIP3     OH2      OT      -0.834000       15.9994           0
     13508 TIP3     775      TIP3     H1       HT       0.417000       1.00800           0
     13509 TIP3     775      TIP3     H2       HT       0.417000       1.00800           0
     13510 TIP3     776      TIP3     OH2      OT      -0.834000       15.9994           0
     13511 TIP3     776      TIP3     H1       HT       0.417000       1.00800           0
     13512 TIP3     776      TIP3     H2       HT       0.417000       1.00800           0
     13513 TIP3     777      TIP3     OH2      OT      -0.834000       15.9994           0
     13514 TIP3     777      TIP3     H1       HT       0.417000       1.00800           0
     13515 TIP3     777      TIP3     H2       HT       0.417000       1.00800           0
     13516 TIP3     778      TIP3     OH2      OT      -0.834000       15.9994           0
     13517 TIP3     778      TIP3     H1       HT       0.417000       1.00800           0
     13518 TIP3     778      TIP3     H2       HT       0.417000       1.00800           0
     13519 TIP3     779      TIP3     OH2      OT      -0.834000       15.9994           0
     13520 TIP3     779      TIP3     H1       HT       0.417000       1.00800           0
     13521 TIP3     779      TIP3     H2       HT       0.417000       1.00800           0
     13522 TIP3     780      TIP3     OH2      OT      -0.834000       15.9994           0
     13523 TIP3     780      TIP3     H1       HT       0.417000       1.00800           0
     13524 TIP3     780      TIP3     H2       HT       0.417000       1.00800           0
     13525 TIP3     781      TIP3     OH2      OT      -0.834000       15.9994           0
     13526 TIP3     781      TIP3     H1       HT       0.417000       1.00800           0
     13527 TIP3     781      TIP3     H2       HT       0.417000       1.00800           0
     13528 TIP3     782      TIP3     OH2      OT      -0.834000       15.9994           0
     13529 TIP3     782      TIP3     H1       HT       0.417000       1.00800           0
     13530 TIP3     782      TIP3     H2       HT       0.417000       1.00800           0
     13531 TIP3     783      TIP3     OH2      OT      -0.834000       15.9994           0
     13532 TIP3     783      TIP3     H1       HT       0.417000       1.00800           0
     13533 TIP3     783      TIP3     H2       HT       0.417000       1.00800           0
     13534 TIP3     784      TIP3     OH2      OT      -0.834000       15.9994           0
     13535 TIP3     784      TIP3     H1       HT       0.417000       1.00800           0
     13536 TIP3     784      TIP3     H2       HT       0.417000       1.00800           0
     13537 TIP3     785      TIP3     OH2      OT      -0.834000       15.9994           0
     13538 TIP3     785      TIP3     H1       HT       0.417000       1.00800           0
     13539 TIP3     785      TIP3     H2       HT       0.417000       1.00800           0
     13540 TIP3     786      TIP3     OH2      OT      -0.834000       15.9994           0
     13541 TIP3     786      TIP3     H1       HT       0.417000       1.00800           0
     13542 TIP3     786      TIP3     H2       HT       0.417000       1.00800           0
     13543 TIP3     787      TIP3     OH2      OT      -0.834000       15.9994           0
     13544 TIP3     787      TIP3     H1       HT       0.417000       1.00800           0
     13545 TIP3     787      TIP3     H2       HT       0.417000       1.00800           0
     13546 TIP3     788      TIP3     OH2      OT      -0.834000       15.9994           0
     13547 TIP3     788      TIP3     H1       HT       0.417000       1.00800           0
     13548 TIP3     788      TIP3     H2       HT       0.417000       1.00800           0
     13549 TIP3     789      TIP3     OH2      OT      -0.834000       15.9994           0
     13550 TIP3     789      TIP3     H1       HT       0.417000       1.00800           0
     13551 TIP3     789      TIP3     H2       HT       0.417000       1.00800           0
     13552 TIP3     790      TIP3     OH2      OT      -0.834000       15.9994           0
     13553 TIP3     790      TIP3     H1       HT       0.417000       1.00800           0
     13554 TIP3     790      TIP3     H2       HT       0.417000       1.00800           0
     13555 TIP3     791      TIP3     OH2      OT      -0.834000       15.9994           0
     13556 TIP3     791      TIP3     H1       HT       0.417000       1.00800           0
     13557 TIP3     791      TIP3     H2       HT       0.417000       1.00800           0
     13558 TIP3     792      TIP3     OH2      OT      -0.834000       15.9994           0
     13559 TIP3     792      TIP3     H1       HT       0.417000       1.00800           0
     13560 TIP3     792      TIP3     H2       HT       0.417000       1.00800           0
     13561 TIP3     793      TIP3     OH2      OT      -0.834000       15.9994           0
     13562 TIP3     793      TIP3     H1       HT       0.417000       1.00800           0
     13563 TIP3     793      TIP3     H2       HT       0.417000       1.00800           0
     13564 TIP3     794      TIP3     OH2      OT      -0.834000       15.9994           0
     13565 TIP3     794      TIP3     H1       HT       0.417000       1.00800           0
     13566 TIP3     794      TIP3     H2       HT       0.417000       1.00800           0
     13567 TIP3     795      TIP3     OH2      OT      -0.834000       15.9994           0
     13568 TIP3     795      TIP3     H1       HT       0.417000       1.00800           0
     13569 TIP3     795      TIP3     H2       HT       0.417000       1.00800           0
     13570 TIP3     796      TIP3     OH2      OT      -0.834000       15.9994           0
     13571 TIP3     796      TIP3     H1       HT       0.417000       1.00800           0
     13572 TIP3     796      TIP3     H2       HT       0.417000       1.00800           0
     13573 TIP3     797      TIP3     OH2      OT      -0.834000       15.9994           0
     13574 TIP3     797      TIP3     H1       HT       0.417000       1.00800           0
     13575 TIP3     797      TIP3     H2       HT       0.417000       1.00800           0
     13576 TIP3     798      TIP3     OH2      OT      -0.834000       15.9994           0
     13577 TIP3     798      TIP3     H1       HT       0.417000       1.00800           0
     13578 TIP3     798      TIP3     H2       HT       0.417000       1.00800           0
     13579 TIP3     799      TIP3     OH2      OT      -0.834000       15.9994           0
     13580 TIP3     799      TIP3     H1       HT       0.417000       1.00800           0
     13581 TIP3     799      TIP3     H2       HT       0.417000       1.00800           0
     13582 TIP3     800      TIP3     OH2      OT      -0.834000       15.9994           0
     13583 TIP3     800      TIP3     H1       HT       0.417000       1.00800           0
     13584 TIP3     800      TIP3     H2       HT       0.417000       1.00800           0
     13585 TIP3     801      TIP3     OH2      OT      -0.834000       15.9994           0
     13586 TIP3     801      TIP3     H1       HT       0.417000       1.00800           0
     13587 TIP3     801      TIP3     H2       HT       0.417000       1.00800           0
     13588 TIP3     802      TIP3     OH2      OT      -0.834000       15.9994           0
     13589 TIP3     802      TIP3     H1       HT       0.417000       1.00800           0
     13590 TIP3     802      TIP3     H2       HT       0.417000       1.00800           0
     13591 TIP3     803      TIP3     OH2      OT      -0.834000       15.9994           0
     13592 TIP3     803      TIP3     H1       HT       0.417000       1.00800           0
     13593 TIP3     803      TIP3     H2       HT       0.417000       1.00800           0
     13594 TIP3     804      TIP3     OH2      OT      -0.834000       15.9994           0
     13595 TIP3     804      TIP3     H1       HT       0.417000       1.00800           0
     13596 TIP3     804      TIP3     H2       HT       0.417000       1.00800           0
     13597 TIP3     805      TIP3     OH2      OT      -0.834000       15.9994           0
     13598 TIP3     805      TIP3     H1       HT       0.417000       1.00800           0
     13599 TIP3     805      TIP3     H2       HT       0.417000       1.00800           0
     13600 TIP3     806      TIP3     OH2      OT      -0.834000       15.9994           0
     13601 TIP3     806      TIP3     H1       HT       0.417000       1.00800           0
     13602 TIP3     806      TIP3     H2       HT       0.417000       1.00800           0
     13603 TIP3     807      TIP3     OH2      OT      -0.834000       15.9994           0
     13604 TIP3     807      TIP3     H1       HT       0.417000       1.00800           0
     13605 TIP3     807      TIP3     H2       HT       0.417000       1.00800           0
     13606 TIP3     808      TIP3     OH2      OT      -0.834000       15.9994           0
     13607 TIP3     808      TIP3     H1       HT       0.417000       1.00800           0
     13608 TIP3     808      TIP3     H2       HT       0.417000       1.00800           0
     13609 TIP3     809      TIP3     OH2      OT      -0.834000       15.9994           0
     13610 TIP3     809      TIP3     H1       HT       0.417000       1.00800           0
     13611 TIP3     809      TIP3     H2       HT       0.417000       1.00800           0
     13612 TIP3     810      TIP3     OH2      OT      -0.834000       15.9994           0
     13613 TIP3     810      TIP3     H1       HT       0.417000       1.00800           0
     13614 TIP3     810      TIP3     H2       HT       0.417000       1.00800           0
     13615 TIP3     811      TIP3     OH2      OT      -0.834000       15.9994           0
     13616 TIP3     811      TIP3     H1       HT       0.417000       1.00800           0
     13617 TIP3     811      TIP3     H2       HT       0.417000       1.00800           0
     13618 TIP3     812      TIP3     OH2      OT      -0.834000       15.9994           0
     13619 TIP3     812      TIP3     H1       HT       0.417000       1.00800           0
     13620 TIP3     812      TIP3     H2       HT       0.417000       1.00800           0
     13621 TIP3     813      TIP3     OH2      OT      -0.834000       15.9994           0
     13622 TIP3     813      TIP3     H1       HT       0.417000       1.00800           0
     13623 TIP3     813      TIP3     H2       HT       0.417000       1.00800           0
     13624 TIP3     814      TIP3     OH2      OT      -0.834000       15.9994           0
     13625 TIP3     814      TIP3     H1       HT       0.417000       1.00800           0
     13626 TIP3     814      TIP3     H2       HT       0.417000       1.00800           0
     13627 TIP3     815      TIP3     OH2      OT      -0.834000       15.9994           0
     13628 TIP3     815      TIP3     H1       HT       0.417000       1.00800           0
     13629 TIP3     815      TIP3     H2       HT       0.417000       1.00800           0
     13630 TIP3     816      TIP3     OH2      OT      -0.834000       15.9994           0
     13631 TIP3     816      TIP3     H1       HT       0.417000       1.00800           0
     13632 TIP3     816      TIP3     H2       HT       0.417000       1.00800           0
     13633 TIP3     817      TIP3     OH2      OT      -0.834000       15.9994           0
     13634 TIP3     817      TIP3     H1       HT       0.417000       1.00800           0
     13635 TIP3     817      TIP3     H2       HT       0.417000       1.00800           0
     13636 TIP3     818      TIP3     OH2      OT      -0.834000       15.9994           0
     13637 TIP3     818      TIP3     H1       HT       0.417000       1.00800           0
     13638 TIP3     818      TIP3     H2       HT       0.417000       1.00800           0
     13639 TIP3     819      TIP3     OH2      OT      -0.834000       15.9994           0
     13640 TIP3     819      TIP3     H1       HT       0.417000       1.00800           0
     13641 TIP3     819      TIP3     H2       HT       0.417000       1.00800           0
     13642 TIP3     820      TIP3     OH2      OT      -0.834000       15.9994           0
     13643 TIP3     820      TIP3     H1       HT       0.417000       1.00800           0
     13644 TIP3     820      TIP3     H2       HT       0.417000       1.00800           0
     13645 TIP3     821      TIP3     OH2      OT      -0.834000       15.9994           0
     13646 TIP3     821      TIP3     H1       HT       0.417000       1.00800           0
     13647 TIP3     821      TIP3     H2       HT       0.417000       1.00800           0
     13648 TIP3     822      TIP3     OH2      OT      -0.834000       15.9994           0
     13649 TIP3     822      TIP3     H1       HT       0.417000       1.00800           0
     13650 TIP3     822      TIP3     H2       HT       0.417000       1.00800           0
     13651 TIP3     823      TIP3     OH2      OT      -0.834000       15.9994           0
     13652 TIP3     823      TIP3     H1       HT       0.417000       1.00800           0
     13653 TIP3     823      TIP3     H2       HT       0.417000       1.00800           0
     13654 TIP3     824      TIP3     OH2      OT      -0.834000       15.9994           0
     13655 TIP3     824      TIP3     H1       HT       0.417000       1.00800           0
     13656 TIP3     824      TIP3     H2       HT       0.417000       1.00800           0
     13657 TIP3     825      TIP3     OH2      OT      -0.834000       15.9994           0
     13658 TIP3     825      TIP3     H1       HT       0.417000       1.00800           0
     13659 TIP3     825      TIP3     H2       HT       0.417000       1.00800           0
     13660 TIP3     826      TIP3     OH2      OT      -0.834000       15.9994           0
     13661 TIP3     826      TIP3     H1       HT       0.417000       1.00800           0
     13662 TIP3     826      TIP3     H2       HT       0.417000       1.00800           0
     13663 TIP3     827      TIP3     OH2      OT      -0.834000       15.9994           0
     13664 TIP3     827      TIP3     H1       HT       0.417000       1.00800           0
     13665 TIP3     827      TIP3     H2       HT       0.417000       1.00800           0
     13666 TIP3     828      TIP3     OH2      OT      -0.834000       15.9994           0
     13667 TIP3     828      TIP3     H1       HT       0.417000       1.00800           0
     13668 TIP3     828      TIP3     H2       HT       0.417000       1.00800           0
     13669 TIP3     829      TIP3     OH2      OT      -0.834000       15.9994           0
     13670 TIP3     829      TIP3     H1       HT       0.417000       1.00800           0
     13671 TIP3     829      TIP3     H2       HT       0.417000       1.00800           0
     13672 TIP3     830      TIP3     OH2      OT      -0.834000       15.9994           0
     13673 TIP3     830      TIP3     H1       HT       0.417000       1.00800           0
     13674 TIP3     830      TIP3     H2       HT       0.417000       1.00800           0
     13675 TIP3     831      TIP3     OH2      OT      -0.834000       15.9994           0
     13676 TIP3     831      TIP3     H1       HT       0.417000       1.00800           0
     13677 TIP3     831      TIP3     H2       HT       0.417000       1.00800           0
     13678 TIP3     832      TIP3     OH2      OT      -0.834000       15.9994           0
     13679 TIP3     832      TIP3     H1       HT       0.417000       1.00800           0
     13680 TIP3     832      TIP3     H2       HT       0.417000       1.00800           0
     13681 TIP3     833      TIP3     OH2      OT      -0.834000       15.9994           0
     13682 TIP3     833      TIP3     H1       HT       0.417000       1.00800           0
     13683 TIP3     833      TIP3     H2       HT       0.417000       1.00800           0
     13684 TIP3     834      TIP3     OH2      OT      -0.834000       15.9994           0
     13685 TIP3     834      TIP3     H1       HT       0.417000       1.00800           0
     13686 TIP3     834      TIP3     H2       HT       0.417000       1.00800           0
     13687 TIP3     835      TIP3     OH2      OT      -0.834000       15.9994           0
     13688 TIP3     835      TIP3     H1       HT       0.417000       1.00800           0
     13689 TIP3     835      TIP3     H2       HT       0.417000       1.00800           0
     13690 TIP3     836      TIP3     OH2      OT      -0.834000       15.9994           0
     13691 TIP3     836      TIP3     H1       HT       0.417000       1.00800           0
     13692 TIP3     836      TIP3     H2       HT       0.417000       1.00800           0
     13693 TIP3     837      TIP3     OH2      OT      -0.834000       15.9994           0
     13694 TIP3     837      TIP3     H1       HT       0.417000       1.00800           0
     13695 TIP3     837      TIP3     H2       HT       0.417000       1.00800           0
     13696 TIP3     838      TIP3     OH2      OT      -0.834000       15.9994           0
     13697 TIP3     838      TIP3     H1       HT       0.417000       1.00800           0
     13698 TIP3     838      TIP3     H2       HT       0.417000       1.00800           0
     13699 TIP3     839      TIP3     OH2      OT      -0.834000       15.9994           0
     13700 TIP3     839      TIP3     H1       HT       0.417000       1.00800           0
     13701 TIP3     839      TIP3     H2       HT       0.417000       1.00800           0
     13702 TIP3     840      TIP3     OH2      OT      -0.834000       15.9994           0
     13703 TIP3     840      TIP3     H1       HT       0.417000       1.00800           0
     13704 TIP3     840      TIP3     H2       HT       0.417000       1.00800           0
     13705 TIP3     841      TIP3     OH2      OT      -0.834000       15.9994           0
     13706 TIP3     841      TIP3     H1       HT       0.417000       1.00800           0
     13707 TIP3     841      TIP3     H2       HT       0.417000       1.00800           0
     13708 TIP3     842      TIP3     OH2      OT      -0.834000       15.9994           0
     13709 TIP3     842      TIP3     H1       HT       0.417000       1.00800           0
     13710 TIP3     842      TIP3     H2       HT       0.417000       1.00800           0
     13711 TIP3     843      TIP3     OH2      OT      -0.834000       15.9994           0
     13712 TIP3     843      TIP3     H1       HT       0.417000       1.00800           0
     13713 TIP3     843      TIP3     H2       HT       0.417000       1.00800           0
     13714 TIP3     844      TIP3     OH2      OT      -0.834000       15.9994           0
     13715 TIP3     844      TIP3     H1       HT       0.417000       1.00800           0
     13716 TIP3     844      TIP3     H2       HT       0.417000       1.00800           0
     13717 TIP3     845      TIP3     OH2      OT      -0.834000       15.9994           0
     13718 TIP3     845      TIP3     H1       HT       0.417000       1.00800           0
     13719 TIP3     845      TIP3     H2       HT       0.417000       1.00800           0
     13720 TIP3     846      TIP3     OH2      OT      -0.834000       15.9994           0
     13721 TIP3     846      TIP3     H1       HT       0.417000       1.00800           0
     13722 TIP3     846      TIP3     H2       HT       0.417000       1.00800           0
     13723 TIP3     847      TIP3     OH2      OT      -0.834000       15.9994           0
     13724 TIP3     847      TIP3     H1       HT       0.417000       1.00800           0
     13725 TIP3     847      TIP3     H2       HT       0.417000       1.00800           0
     13726 TIP3     848      TIP3     OH2      OT      -0.834000       15.9994           0
     13727 TIP3     848      TIP3     H1       HT       0.417000       1.00800           0
     13728 TIP3     848      TIP3     H2       HT       0.417000       1.00800           0
     13729 TIP3     849      TIP3     OH2      OT      -0.834000       15.9994           0
     13730 TIP3     849      TIP3     H1       HT       0.417000       1.00800           0
     13731 TIP3     849      TIP3     H2       HT       0.417000       1.00800           0
     13732 TIP3     850      TIP3     OH2      OT      -0.834000       15.9994           0
     13733 TIP3     850      TIP3     H1       HT       0.417000       1.00800           0
     13734 TIP3     850      TIP3     H2       HT       0.417000       1.00800           0
     13735 TIP3     851      TIP3     OH2      OT      -0.834000       15.9994           0
     13736 TIP3     851      TIP3     H1       HT       0.417000       1.00800           0
     13737 TIP3     851      TIP3     H2       HT       0.417000       1.00800           0
     13738 TIP3     852      TIP3     OH2      OT      -0.834000       15.9994           0
     13739 TIP3     852      TIP3     H1       HT       0.417000       1.00800           0
     13740 TIP3     852      TIP3     H2       HT       0.417000       1.00800           0
     13741 TIP3     853      TIP3     OH2      OT      -0.834000       15.9994           0
     13742 TIP3     853      TIP3     H1       HT       0.417000       1.00800           0
     13743 TIP3     853      TIP3     H2       HT       0.417000       1.00800           0
     13744 TIP3     854      TIP3     OH2      OT      -0.834000       15.9994           0
     13745 TIP3     854      TIP3     H1       HT       0.417000       1.00800           0
     13746 TIP3     854      TIP3     H2       HT       0.417000       1.00800           0
     13747 TIP3     855      TIP3     OH2      OT      -0.834000       15.9994           0
     13748 TIP3     855      TIP3     H1       HT       0.417000       1.00800           0
     13749 TIP3     855      TIP3     H2       HT       0.417000       1.00800           0
     13750 TIP3     856      TIP3     OH2      OT      -0.834000       15.9994           0
     13751 TIP3     856      TIP3     H1       HT       0.417000       1.00800           0
     13752 TIP3     856      TIP3     H2       HT       0.417000       1.00800           0
     13753 TIP3     857      TIP3     OH2      OT      -0.834000       15.9994           0
     13754 TIP3     857      TIP3     H1       HT       0.417000       1.00800           0
     13755 TIP3     857      TIP3     H2       HT       0.417000       1.00800           0
     13756 TIP3     858      TIP3     OH2      OT      -0.834000       15.9994           0
     13757 TIP3     858      TIP3     H1       HT       0.417000       1.00800           0
     13758 TIP3     858      TIP3     H2       HT       0.417000       1.00800           0
     13759 TIP3     859      TIP3     OH2      OT      -0.834000       15.9994           0
     13760 TIP3     859      TIP3     H1       HT       0.417000       1.00800           0
     13761 TIP3     859      TIP3     H2       HT       0.417000       1.00800           0
     13762 TIP3     860      TIP3     OH2      OT      -0.834000       15.9994           0
     13763 TIP3     860      TIP3     H1       HT       0.417000       1.00800           0
     13764 TIP3     860      TIP3     H2       HT       0.417000       1.00800           0
     13765 TIP3     861      TIP3     OH2      OT      -0.834000       15.9994           0
     13766 TIP3     861      TIP3     H1       HT       0.417000       1.00800           0
     13767 TIP3     861      TIP3     H2       HT       0.417000       1.00800           0
     13768 TIP3     862      TIP3     OH2      OT      -0.834000       15.9994           0
     13769 TIP3     862      TIP3     H1       HT       0.417000       1.00800           0
     13770 TIP3     862      TIP3     H2       HT       0.417000       1.00800           0
     13771 TIP3     863      TIP3     OH2      OT      -0.834000       15.9994           0
     13772 TIP3     863      TIP3     H1       HT       0.417000       1.00800           0
     13773 TIP3     863      TIP3     H2       HT       0.417000       1.00800           0
     13774 TIP3     864      TIP3     OH2      OT      -0.834000       15.9994           0
     13775 TIP3     864      TIP3     H1       HT       0.417000       1.00800           0
     13776 TIP3     864      TIP3     H2       HT       0.417000       1.00800           0
     13777 TIP3     865      TIP3     OH2      OT      -0.834000       15.9994           0
     13778 TIP3     865      TIP3     H1       HT       0.417000       1.00800           0
     13779 TIP3     865      TIP3     H2       HT       0.417000       1.00800           0
     13780 TIP3     866      TIP3     OH2      OT      -0.834000       15.9994           0
     13781 TIP3     866      TIP3     H1       HT       0.417000       1.00800           0
     13782 TIP3     866      TIP3     H2       HT       0.417000       1.00800           0
     13783 TIP3     867      TIP3     OH2      OT      -0.834000       15.9994           0
     13784 TIP3     867      TIP3     H1       HT       0.417000       1.00800           0
     13785 TIP3     867      TIP3     H2       HT       0.417000       1.00800           0
     13786 TIP3     868      TIP3     OH2      OT      -0.834000       15.9994           0
     13787 TIP3     868      TIP3     H1       HT       0.417000       1.00800           0
     13788 TIP3     868      TIP3     H2       HT       0.417000       1.00800           0
     13789 TIP3     869      TIP3     OH2      OT      -0.834000       15.9994           0
     13790 TIP3     869      TIP3     H1       HT       0.417000       1.00800           0
     13791 TIP3     869      TIP3     H2       HT       0.417000       1.00800           0
     13792 TIP3     870      TIP3     OH2      OT      -0.834000       15.9994           0
     13793 TIP3     870      TIP3     H1       HT       0.417000       1.00800           0
     13794 TIP3     870      TIP3     H2       HT       0.417000       1.00800           0
     13795 TIP3     871      TIP3     OH2      OT      -0.834000       15.9994           0
     13796 TIP3     871      TIP3     H1       HT       0.417000       1.00800           0
     13797 TIP3     871      TIP3     H2       HT       0.417000       1.00800           0
     13798 TIP3     872      TIP3     OH2      OT      -0.834000       15.9994           0
     13799 TIP3     872      TIP3     H1       HT       0.417000       1.00800           0
     13800 TIP3     872      TIP3     H2       HT       0.417000       1.00800           0
     13801 TIP3     873      TIP3     OH2      OT      -0.834000       15.9994           0
     13802 TIP3     873      TIP3     H1       HT       0.417000       1.00800           0
     13803 TIP3     873      TIP3     H2       HT       0.417000       1.00800           0
     13804 TIP3     874      TIP3     OH2      OT      -0.834000       15.9994           0
     13805 TIP3     874      TIP3     H1       HT       0.417000       1.00800           0
     13806 TIP3     874      TIP3     H2       HT       0.417000       1.00800           0
     13807 TIP3     875      TIP3     OH2      OT      -0.834000       15.9994           0
     13808 TIP3     875      TIP3     H1       HT       0.417000       1.00800           0
     13809 TIP3     875      TIP3     H2       HT       0.417000       1.00800           0
     13810 TIP3     876      TIP3     OH2      OT      -0.834000       15.9994           0
     13811 TIP3     876      TIP3     H1       HT       0.417000       1.00800           0
     13812 TIP3     876      TIP3     H2       HT       0.417000       1.00800           0
     13813 TIP3     877      TIP3     OH2      OT      -0.834000       15.9994           0
     13814 TIP3     877      TIP3     H1       HT       0.417000       1.00800           0
     13815 TIP3     877      TIP3     H2       HT       0.417000       1.00800           0
     13816 TIP3     878      TIP3     OH2      OT      -0.834000       15.9994           0
     13817 TIP3     878      TIP3     H1       HT       0.417000       1.00800           0
     13818 TIP3     878      TIP3     H2       HT       0.417000       1.00800           0
     13819 TIP3     879      TIP3     OH2      OT      -0.834000       15.9994           0
     13820 TIP3     879      TIP3     H1       HT       0.417000       1.00800           0
     13821 TIP3     879      TIP3     H2       HT       0.417000       1.00800           0
     13822 TIP3     880      TIP3     OH2      OT      -0.834000       15.9994           0
     13823 TIP3     880      TIP3     H1       HT       0.417000       1.00800           0
     13824 TIP3     880      TIP3     H2       HT       0.417000       1.00800           0
     13825 TIP3     881      TIP3     OH2      OT      -0.834000       15.9994           0
     13826 TIP3     881      TIP3     H1       HT       0.417000       1.00800           0
     13827 TIP3     881      TIP3     H2       HT       0.417000       1.00800           0
     13828 TIP3     882      TIP3     OH2      OT      -0.834000       15.9994           0
     13829 TIP3     882      TIP3     H1       HT       0.417000       1.00800           0
     13830 TIP3     882      TIP3     H2       HT       0.417000       1.00800           0
     13831 TIP3     883      TIP3     OH2      OT      -0.834000       15.9994           0
     13832 TIP3     883      TIP3     H1       HT       0.417000       1.00800           0
     13833 TIP3     883      TIP3     H2       HT       0.417000       1.00800           0
     13834 TIP3     884      TIP3     OH2      OT      -0.834000       15.9994           0
     13835 TIP3     884      TIP3     H1       HT       0.417000       1.00800           0
     13836 TIP3     884      TIP3     H2       HT       0.417000       1.00800           0
     13837 TIP3     885      TIP3     OH2      OT      -0.834000       15.9994           0
     13838 TIP3     885      TIP3     H1       HT       0.417000       1.00800           0
     13839 TIP3     885      TIP3     H2       HT       0.417000       1.00800           0
     13840 TIP3     886      TIP3     OH2      OT      -0.834000       15.9994           0
     13841 TIP3     886      TIP3     H1       HT       0.417000       1.00800           0
     13842 TIP3     886      TIP3     H2       HT       0.417000       1.00800           0
     13843 TIP3     887      TIP3     OH2      OT      -0.834000       15.9994           0
     13844 TIP3     887      TIP3     H1       HT       0.417000       1.00800           0
     13845 TIP3     887      TIP3     H2       HT       0.417000       1.00800           0
     13846 TIP3     888      TIP3     OH2      OT      -0.834000       15.9994           0
     13847 TIP3     888      TIP3     H1       HT       0.417000       1.00800           0
     13848 TIP3     888      TIP3     H2       HT       0.417000       1.00800           0
     13849 TIP3     889      TIP3     OH2      OT      -0.834000       15.9994           0
     13850 TIP3     889      TIP3     H1       HT       0.417000       1.00800           0
     13851 TIP3     889      TIP3     H2       HT       0.417000       1.00800           0
     13852 TIP3     890      TIP3     OH2      OT      -0.834000       15.9994           0
     13853 TIP3     890      TIP3     H1       HT       0.417000       1.00800           0
     13854 TIP3     890      TIP3     H2       HT       0.417000       1.00800           0
     13855 TIP3     891      TIP3     OH2      OT      -0.834000       15.9994           0
     13856 TIP3     891      TIP3     H1       HT       0.417000       1.00800           0
     13857 TIP3     891      TIP3     H2       HT       0.417000       1.00800           0
     13858 TIP3     892      TIP3     OH2      OT      -0.834000       15.9994           0
     13859 TIP3     892      TIP3     H1       HT       0.417000       1.00800           0
     13860 TIP3     892      TIP3     H2       HT       0.417000       1.00800           0
     13861 TIP3     893      TIP3     OH2      OT      -0.834000       15.9994           0
     13862 TIP3     893      TIP3     H1       HT       0.417000       1.00800           0
     13863 TIP3     893      TIP3     H2       HT       0.417000       1.00800           0
     13864 TIP3     894      TIP3     OH2      OT      -0.834000       15.9994           0
     13865 TIP3     894      TIP3     H1       HT       0.417000       1.00800           0
     13866 TIP3     894      TIP3     H2       HT       0.417000       1.00800           0
     13867 TIP3     895      TIP3     OH2      OT      -0.834000       15.9994           0
     13868 TIP3     895      TIP3     H1       HT       0.417000       1.00800           0
     13869 TIP3     895      TIP3     H2       HT       0.417000       1.00800           0
     13870 TIP3     896      TIP3     OH2      OT      -0.834000       15.9994           0
     13871 TIP3     896      TIP3     H1       HT       0.417000       1.00800           0
     13872 TIP3     896      TIP3     H2       HT       0.417000       1.00800           0
     13873 TIP3     897      TIP3     OH2      OT      -0.834000       15.9994           0
     13874 TIP3     897      TIP3     H1       HT       0.417000       1.00800           0
     13875 TIP3     897      TIP3     H2       HT       0.417000       1.00800           0
     13876 TIP3     898      TIP3     OH2      OT      -0.834000       15.9994           0
     13877 TIP3     898      TIP3     H1       HT       0.417000       1.00800           0
     13878 TIP3     898      TIP3     H2       HT       0.417000       1.00800           0
     13879 TIP3     899      TIP3     OH2      OT      -0.834000       15.9994           0
     13880 TIP3     899      TIP3     H1       HT       0.417000       1.00800           0
     13881 TIP3     899      TIP3     H2       HT       0.417000       1.00800           0
     13882 TIP3     900      TIP3     OH2      OT      -0.834000       15.9994           0
     13883 TIP3     900      TIP3     H1       HT       0.417000       1.00800           0
     13884 TIP3     900      TIP3     H2       HT       0.417000       1.00800           0
     13885 TIP3     901      TIP3     OH2      OT      -0.834000       15.9994           0
     13886 TIP3     901      TIP3     H1       HT       0.417000       1.00800           0
     13887 TIP3     901      TIP3     H2       HT       0.417000       1.00800           0
     13888 TIP3     902      TIP3     OH2      OT      -0.834000       15.9994           0
     13889 TIP3     902      TIP3     H1       HT       0.417000       1.00800           0
     13890 TIP3     902      TIP3     H2       HT       0.417000       1.00800           0
     13891 TIP3     903      TIP3     OH2      OT      -0.834000       15.9994           0
     13892 TIP3     903      TIP3     H1       HT       0.417000       1.00800           0
     13893 TIP3     903      TIP3     H2       HT       0.417000       1.00800           0
     13894 TIP3     904      TIP3     OH2      OT      -0.834000       15.9994           0
     13895 TIP3     904      TIP3     H1       HT       0.417000       1.00800           0
     13896 TIP3     904      TIP3     H2       HT       0.417000       1.00800           0
     13897 TIP3     905      TIP3     OH2      OT      -0.834000       15.9994           0
     13898 TIP3     905      TIP3     H1       HT       0.417000       1.00800           0
     13899 TIP3     905      TIP3     H2       HT       0.417000       1.00800           0
     13900 TIP3     906      TIP3     OH2      OT      -0.834000       15.9994           0
     13901 TIP3     906      TIP3     H1       HT       0.417000       1.00800           0
     13902 TIP3     906      TIP3     H2       HT       0.417000       1.00800           0
     13903 TIP3     907      TIP3     OH2      OT      -0.834000       15.9994           0
     13904 TIP3     907      TIP3     H1       HT       0.417000       1.00800           0
     13905 TIP3     907      TIP3     H2       HT       0.417000       1.00800           0
     13906 TIP3     908      TIP3     OH2      OT      -0.834000       15.9994           0
     13907 TIP3     908      TIP3     H1       HT       0.417000       1.00800           0
     13908 TIP3     908      TIP3     H2       HT       0.417000       1.00800           0
     13909 TIP3     909      TIP3     OH2      OT      -0.834000       15.9994           0
     13910 TIP3     909      TIP3     H1       HT       0.417000       1.00800           0
     13911 TIP3     909      TIP3     H2       HT       0.417000       1.00800           0
     13912 TIP3     910      TIP3     OH2      OT      -0.834000       15.9994           0
     13913 TIP3     910      TIP3     H1       HT       0.417000       1.00800           0
     13914 TIP3     910      TIP3     H2       HT       0.417000       1.00800           0
     13915 TIP3     911      TIP3     OH2      OT      -0.834000       15.9994           0
     13916 TIP3     911      TIP3     H1       HT       0.417000       1.00800           0
     13917 TIP3     911      TIP3     H2       HT       0.417000       1.00800           0
     13918 TIP3     912      TIP3     OH2      OT      -0.834000       15.9994           0
     13919 TIP3     912      TIP3     H1       HT       0.417000       1.00800           0
     13920 TIP3     912      TIP3     H2       HT       0.417000       1.00800           0
     13921 TIP3     913      TIP3     OH2      OT      -0.834000       15.9994           0
     13922 TIP3     913      TIP3     H1       HT       0.417000       1.00800           0
     13923 TIP3     913      TIP3     H2       HT       0.417000       1.00800           0
     13924 TIP3     914      TIP3     OH2      OT      -0.834000       15.9994           0
     13925 TIP3     914      TIP3     H1       HT       0.417000       1.00800           0
     13926 TIP3     914      TIP3     H2       HT       0.417000       1.00800           0
     13927 TIP3     915      TIP3     OH2      OT      -0.834000       15.9994           0
     13928 TIP3     915      TIP3     H1       HT       0.417000       1.00800           0
     13929 TIP3     915      TIP3     H2       HT       0.417000       1.00800           0
     13930 TIP3     916      TIP3     OH2      OT      -0.834000       15.9994           0
     13931 TIP3     916      TIP3     H1       HT       0.417000       1.00800           0
     13932 TIP3     916      TIP3     H2       HT       0.417000       1.00800           0
     13933 TIP3     917      TIP3     OH2      OT      -0.834000       15.9994           0
     13934 TIP3     917      TIP3     H1       HT       0.417000       1.00800           0
     13935 TIP3     917      TIP3     H2       HT       0.417000       1.00800           0
     13936 TIP3     918      TIP3     OH2      OT      -0.834000       15.9994           0
     13937 TIP3     918      TIP3     H1       HT       0.417000       1.00800           0
     13938 TIP3     918      TIP3     H2       HT       0.417000       1.00800           0
     13939 TIP3     919      TIP3     OH2      OT      -0.834000       15.9994           0
     13940 TIP3     919      TIP3     H1       HT       0.417000       1.00800           0
     13941 TIP3     919      TIP3     H2       HT       0.417000       1.00800           0
     13942 TIP3     920      TIP3     OH2      OT      -0.834000       15.9994           0
     13943 TIP3     920      TIP3     H1       HT       0.417000       1.00800           0
     13944 TIP3     920      TIP3     H2       HT       0.417000       1.00800           0
     13945 TIP3     921      TIP3     OH2      OT      -0.834000       15.9994           0
     13946 TIP3     921      TIP3     H1       HT       0.417000       1.00800           0
     13947 TIP3     921      TIP3     H2       HT       0.417000       1.00800           0
     13948 TIP3     922      TIP3     OH2      OT      -0.834000       15.9994           0
     13949 TIP3     922      TIP3     H1       HT       0.417000       1.00800           0
     13950 TIP3     922      TIP3     H2       HT       0.417000       1.00800           0
     13951 TIP3     923      TIP3     OH2      OT      -0.834000       15.9994           0
     13952 TIP3     923      TIP3     H1       HT       0.417000       1.00800           0
     13953 TIP3     923      TIP3     H2       HT       0.417000       1.00800           0
     13954 TIP3     924      TIP3     OH2      OT      -0.834000       15.9994           0
     13955 TIP3     924      TIP3     H1       HT       0.417000       1.00800           0
     13956 TIP3     924      TIP3     H2       HT       0.417000       1.00800           0
     13957 TIP3     925      TIP3     OH2      OT      -0.834000       15.9994           0
     13958 TIP3     925      TIP3     H1       HT       0.417000       1.00800           0
     13959 TIP3     925      TIP3     H2       HT       0.417000       1.00800           0
     13960 TIP3     926      TIP3     OH2      OT      -0.834000       15.9994           0
     13961 TIP3     926      TIP3     H1       HT       0.417000       1.00800           0
     13962 TIP3     926      TIP3     H2       HT       0.417000       1.00800           0
     13963 TIP3     927      TIP3     OH2      OT      -0.834000       15.9994           0
     13964 TIP3     927      TIP3     H1       HT       0.417000       1.00800           0
     13965 TIP3     927      TIP3     H2       HT       0.417000       1.00800           0
     13966 TIP3     928      TIP3     OH2      OT      -0.834000       15.9994           0
     13967 TIP3     928      TIP3     H1       HT       0.417000       1.00800           0
     13968 TIP3     928      TIP3     H2       HT       0.417000       1.00800           0
     13969 TIP3     929      TIP3     OH2      OT      -0.834000       15.9994           0
     13970 TIP3     929      TIP3     H1       HT       0.417000       1.00800           0
     13971 TIP3     929      TIP3     H2       HT       0.417000       1.00800           0
     13972 TIP3     930      TIP3     OH2      OT      -0.834000       15.9994           0
     13973 TIP3     930      TIP3     H1       HT       0.417000       1.00800           0
     13974 TIP3     930      TIP3     H2       HT       0.417000       1.00800           0
     13975 TIP3     931      TIP3     OH2      OT      -0.834000       15.9994           0
     13976 TIP3     931      TIP3     H1       HT       0.417000       1.00800           0
     13977 TIP3     931      TIP3     H2       HT       0.417000       1.00800           0
     13978 TIP3     932      TIP3     OH2      OT      -0.834000       15.9994           0
     13979 TIP3     932      TIP3     H1       HT       0.417000       1.00800           0
     13980 TIP3     932      TIP3     H2       HT       0.417000       1.00800           0
     13981 TIP3     933      TIP3     OH2      OT      -0.834000       15.9994           0
     13982 TIP3     933      TIP3     H1       HT       0.417000       1.00800           0
     13983 TIP3     933      TIP3     H2       HT       0.417000       1.00800           0
     13984 TIP3     934      TIP3     OH2      OT      -0.834000       15.9994           0
     13985 TIP3     934      TIP3     H1       HT       0.417000       1.00800           0
     13986 TIP3     934      TIP3     H2       HT       0.417000       1.00800           0
     13987 TIP3     935      TIP3     OH2      OT      -0.834000       15.9994           0
     13988 TIP3     935      TIP3     H1       HT       0.417000       1.00800           0
     13989 TIP3     935      TIP3     H2       HT       0.417000       1.00800           0
     13990 TIP3     936      TIP3     OH2      OT      -0.834000       15.9994           0
     13991 TIP3     936      TIP3     H1       HT       0.417000       1.00800           0
     13992 TIP3     936      TIP3     H2       HT       0.417000       1.00800           0
     13993 TIP3     937      TIP3     OH2      OT      -0.834000       15.9994           0
     13994 TIP3     937      TIP3     H1       HT       0.417000       1.00800           0
     13995 TIP3     937      TIP3     H2       HT       0.417000       1.00800           0
     13996 TIP3     938      TIP3     OH2      OT      -0.834000       15.9994           0
     13997 TIP3     938      TIP3     H1       HT       0.417000       1.00800           0
     13998 TIP3     938      TIP3     H2       HT       0.417000       1.00800           0
     13999 TIP3     939      TIP3     OH2      OT      -0.834000       15.9994           0
     14000 TIP3     939      TIP3     H1       HT       0.417000       1.00800           0
     14001 TIP3     939      TIP3     H2       HT       0.417000       1.00800           0
     14002 TIP3     940      TIP3     OH2      OT      -0.834000       15.9994           0
     14003 TIP3     940      TIP3     H1       HT       0.417000       1.00800           0
     14004 TIP3     940      TIP3     H2       HT       0.417000       1.00800           0
     14005 TIP3     941      TIP3     OH2      OT      -0.834000       15.9994           0
     14006 TIP3     941      TIP3     H1       HT       0.417000       1.00800           0
     14007 TIP3     941      TIP3     H2       HT       0.417000       1.00800           0
     14008 TIP3     942      TIP3     OH2      OT      -0.834000       15.9994           0
     14009 TIP3     942      TIP3     H1       HT       0.417000       1.00800           0
     14010 TIP3     942      TIP3     H2       HT       0.417000       1.00800           0
     14011 TIP3     943      TIP3     OH2      OT      -0.834000       15.9994           0
     14012 TIP3     943      TIP3     H1       HT       0.417000       1.00800           0
     14013 TIP3     943      TIP3     H2       HT       0.417000       1.00800           0
     14014 TIP3     944      TIP3     OH2      OT      -0.834000       15.9994           0
     14015 TIP3     944      TIP3     H1       HT       0.417000       1.00800           0
     14016 TIP3     944      TIP3     H2       HT       0.417000       1.00800           0
     14017 TIP3     945      TIP3     OH2      OT      -0.834000       15.9994           0
     14018 TIP3     945      TIP3     H1       HT       0.417000       1.00800           0
     14019 TIP3     945      TIP3     H2       HT       0.417000       1.00800           0
     14020 TIP3     946      TIP3     OH2      OT      -0.834000       15.9994           0
     14021 TIP3     946      TIP3     H1       HT       0.417000       1.00800           0
     14022 TIP3     946      TIP3     H2       HT       0.417000       1.00800           0
     14023 TIP3     947      TIP3     OH2      OT      -0.834000       15.9994           0
     14024 TIP3     947      TIP3     H1       HT       0.417000       1.00800           0
     14025 TIP3     947      TIP3     H2       HT       0.417000       1.00800           0
     14026 TIP3     948      TIP3     OH2      OT      -0.834000       15.9994           0
     14027 TIP3     948      TIP3     H1       HT       0.417000       1.00800           0
     14028 TIP3     948      TIP3     H2       HT       0.417000       1.00800           0
     14029 TIP3     949      TIP3     OH2      OT      -0.834000       15.9994           0
     14030 TIP3     949      TIP3     H1       HT       0.417000       1.00800           0
     14031 TIP3     949      TIP3     H2       HT       0.417000       1.00800           0
     14032 TIP3     950      TIP3     OH2      OT      -0.834000       15.9994           0
     14033 TIP3     950      TIP3     H1       HT       0.417000       1.00800           0
     14034 TIP3     950      TIP3     H2       HT       0.417000       1.00800           0
     14035 TIP3     951      TIP3     OH2      OT      -0.834000       15.9994           0
     14036 TIP3     951      TIP3     H1       HT       0.417000       1.00800           0
     14037 TIP3     951      TIP3     H2       HT       0.417000       1.00800           0
     14038 TIP3     952      TIP3     OH2      OT      -0.834000       15.9994           0
     14039 TIP3     952      TIP3     H1       HT       0.417000       1.00800           0
     14040 TIP3     952      TIP3     H2       HT       0.417000       1.00800           0
     14041 TIP3     953      TIP3     OH2      OT      -0.834000       15.9994           0
     14042 TIP3     953      TIP3     H1       HT       0.417000       1.00800           0
     14043 TIP3     953      TIP3     H2       HT       0.417000       1.00800           0
     14044 TIP3     954      TIP3     OH2      OT      -0.834000       15.9994           0
     14045 TIP3     954      TIP3     H1       HT       0.417000       1.00800           0
     14046 TIP3     954      TIP3     H2       HT       0.417000       1.00800           0
     14047 TIP3     955      TIP3     OH2      OT      -0.834000       15.9994           0
     14048 TIP3     955      TIP3     H1       HT       0.417000       1.00800           0
     14049 TIP3     955      TIP3     H2       HT       0.417000       1.00800           0
     14050 TIP3     956      TIP3     OH2      OT      -0.834000       15.9994           0
     14051 TIP3     956      TIP3     H1       HT       0.417000       1.00800           0
     14052 TIP3     956      TIP3     H2       HT       0.417000       1.00800           0
     14053 TIP3     957      TIP3     OH2      OT      -0.834000       15.9994           0
     14054 TIP3     957      TIP3     H1       HT       0.417000       1.00800           0
     14055 TIP3     957      TIP3     H2       HT       0.417000       1.00800           0
     14056 TIP3     958      TIP3     OH2      OT      -0.834000       15.9994           0
     14057 TIP3     958      TIP3     H1       HT       0.417000       1.00800           0
     14058 TIP3     958      TIP3     H2       HT       0.417000       1.00800           0
     14059 TIP3     959      TIP3     OH2      OT      -0.834000       15.9994           0
     14060 TIP3     959      TIP3     H1       HT       0.417000       1.00800           0
     14061 TIP3     959      TIP3     H2       HT       0.417000       1.00800           0
     14062 TIP3     960      TIP3     OH2      OT      -0.834000       15.9994           0
     14063 TIP3     960      TIP3     H1       HT       0.417000       1.00800           0
     14064 TIP3     960      TIP3     H2       HT       0.417000       1.00800           0
     14065 TIP3     961      TIP3     OH2      OT      -0.834000       15.9994           0
     14066 TIP3     961      TIP3     H1       HT       0.417000       1.00800           0
     14067 TIP3     961      TIP3     H2       HT       0.417000       1.00800           0
     14068 TIP3     962      TIP3     OH2      OT      -0.834000       15.9994           0
     14069 TIP3     962      TIP3     H1       HT       0.417000       1.00800           0
     14070 TIP3     962      TIP3     H2       HT       0.417000       1.00800           0
     14071 TIP3     963      TIP3     OH2      OT      -0.834000       15.9994           0
     14072 TIP3     963      TIP3     H1       HT       0.417000       1.00800           0
     14073 TIP3     963      TIP3     H2       HT       0.417000       1.00800           0
     14074 TIP3     964      TIP3     OH2      OT      -0.834000       15.9994           0
     14075 TIP3     964      TIP3     H1       HT       0.417000       1.00800           0
     14076 TIP3     964      TIP3     H2       HT       0.417000       1.00800           0
     14077 TIP3     965      TIP3     OH2      OT      -0.834000       15.9994           0
     14078 TIP3     965      TIP3     H1       HT       0.417000       1.00800           0
     14079 TIP3     965      TIP3     H2       HT       0.417000       1.00800           0
     14080 TIP3     966      TIP3     OH2      OT      -0.834000       15.9994           0
     14081 TIP3     966      TIP3     H1       HT       0.417000       1.00800           0
     14082 TIP3     966      TIP3     H2       HT       0.417000       1.00800           0
     14083 TIP3     967      TIP3     OH2      OT      -0.834000       15.9994           0
     14084 TIP3     967      TIP3     H1       HT       0.417000       1.00800           0
     14085 TIP3     967      TIP3     H2       HT       0.417000       1.00800           0
     14086 TIP3     968      TIP3     OH2      OT      -0.834000       15.9994           0
     14087 TIP3     968      TIP3     H1       HT       0.417000       1.00800           0
     14088 TIP3     968      TIP3     H2       HT       0.417000       1.00800           0
     14089 TIP3     969      TIP3     OH2      OT      -0.834000       15.9994           0
     14090 TIP3     969      TIP3     H1       HT       0.417000       1.00800           0
     14091 TIP3     969      TIP3     H2       HT       0.417000       1.00800           0
     14092 TIP3     970      TIP3     OH2      OT      -0.834000       15.9994           0
     14093 TIP3     970      TIP3     H1       HT       0.417000       1.00800           0
     14094 TIP3     970      TIP3     H2       HT       0.417000       1.00800           0
     14095 TIP3     971      TIP3     OH2      OT      -0.834000       15.9994           0
     14096 TIP3     971      TIP3     H1       HT       0.417000       1.00800           0
     14097 TIP3     971      TIP3     H2       HT       0.417000       1.00800           0
     14098 TIP3     972      TIP3     OH2      OT      -0.834000       15.9994           0
     14099 TIP3     972      TIP3     H1       HT       0.417000       1.00800           0
     14100 TIP3     972      TIP3     H2       HT       0.417000       1.00800           0
     14101 TIP3     973      TIP3     OH2      OT      -0.834000       15.9994           0
     14102 TIP3     973      TIP3     H1       HT       0.417000       1.00800           0
     14103 TIP3     973      TIP3     H2       HT       0.417000       1.00800           0
     14104 TIP3     974      TIP3     OH2      OT      -0.834000       15.9994           0
     14105 TIP3     974      TIP3     H1       HT       0.417000       1.00800           0
     14106 TIP3     974      TIP3     H2       HT       0.417000       1.00800           0
     14107 TIP3     975      TIP3     OH2      OT      -0.834000       15.9994           0
     14108 TIP3     975      TIP3     H1       HT       0.417000       1.00800           0
     14109 TIP3     975      TIP3     H2       HT       0.417000       1.00800           0
     14110 TIP3     976      TIP3     OH2      OT      -0.834000       15.9994           0
     14111 TIP3     976      TIP3     H1       HT       0.417000       1.00800           0
     14112 TIP3     976      TIP3     H2       HT       0.417000       1.00800           0
     14113 TIP3     977      TIP3     OH2      OT      -0.834000       15.9994           0
     14114 TIP3     977      TIP3     H1       HT       0.417000       1.00800           0
     14115 TIP3     977      TIP3     H2       HT       0.417000       1.00800           0
     14116 TIP3     978      TIP3     OH2      OT      -0.834000       15.9994           0
     14117 TIP3     978      TIP3     H1       HT       0.417000       1.00800           0
     14118 TIP3     978      TIP3     H2       HT       0.417000       1.00800           0
     14119 TIP3     979      TIP3     OH2      OT      -0.834000       15.9994           0
     14120 TIP3     979      TIP3     H1       HT       0.417000       1.00800           0
     14121 TIP3     979      TIP3     H2       HT       0.417000       1.00800           0
     14122 TIP3     980      TIP3     OH2      OT      -0.834000       15.9994           0
     14123 TIP3     980      TIP3     H1       HT       0.417000       1.00800           0
     14124 TIP3     980      TIP3     H2       HT       0.417000       1.00800           0
     14125 TIP3     981      TIP3     OH2      OT      -0.834000       15.9994           0
     14126 TIP3     981      TIP3     H1       HT       0.417000       1.00800           0
     14127 TIP3     981      TIP3     H2       HT       0.417000       1.00800           0
     14128 TIP3     982      TIP3     OH2      OT      -0.834000       15.9994           0
     14129 TIP3     982      TIP3     H1       HT       0.417000       1.00800           0
     14130 TIP3     982      TIP3     H2       HT       0.417000       1.00800           0
     14131 TIP3     983      TIP3     OH2      OT      -0.834000       15.9994           0
     14132 TIP3     983      TIP3     H1       HT       0.417000       1.00800           0
     14133 TIP3     983      TIP3     H2       HT       0.417000       1.00800           0
     14134 TIP3     984      TIP3     OH2      OT      -0.834000       15.9994           0
     14135 TIP3     984      TIP3     H1       HT       0.417000       1.00800           0
     14136 TIP3     984      TIP3     H2       HT       0.417000       1.00800           0
     14137 TIP3     985      TIP3     OH2      OT      -0.834000       15.9994           0
     14138 TIP3     985      TIP3     H1       HT       0.417000       1.00800           0
     14139 TIP3     985      TIP3     H2       HT       0.417000       1.00800           0
     14140 TIP3     986      TIP3     OH2      OT      -0.834000       15.9994           0
     14141 TIP3     986      TIP3     H1       HT       0.417000       1.00800           0
     14142 TIP3     986      TIP3     H2       HT       0.417000       1.00800           0
     14143 TIP3     987      TIP3     OH2      OT      -0.834000       15.9994           0
     14144 TIP3     987      TIP3     H1       HT       0.417000       1.00800           0
     14145 TIP3     987      TIP3     H2       HT       0.417000       1.00800           0
     14146 TIP3     988      TIP3     OH2      OT      -0.834000       15.9994           0
     14147 TIP3     988      TIP3     H1       HT       0.417000       1.00800           0
     14148 TIP3     988      TIP3     H2       HT       0.417000       1.00800           0
     14149 TIP3     989      TIP3     OH2      OT      -0.834000       15.9994           0
     14150 TIP3     989      TIP3     H1       HT       0.417000       1.00800           0
     14151 TIP3     989      TIP3     H2       HT       0.417000       1.00800           0
     14152 TIP3     990      TIP3     OH2      OT      -0.834000       15.9994           0
     14153 TIP3     990      TIP3     H1       HT       0.417000       1.00800           0
     14154 TIP3     990      TIP3     H2       HT       0.417000       1.00800           0
     14155 TIP3     991      TIP3     OH2      OT      -0.834000       15.9994           0
     14156 TIP3     991      TIP3     H1       HT       0.417000       1.00800           0
     14157 TIP3     991      TIP3     H2       HT       0.417000       1.00800           0
     14158 TIP3     992      TIP3     OH2      OT      -0.834000       15.9994           0
     14159 TIP3     992      TIP3     H1       HT       0.417000       1.00800           0
     14160 TIP3     992      TIP3     H2       HT       0.417000       1.00800           0
     14161 TIP3     993      TIP3     OH2      OT      -0.834000       15.9994           0
     14162 TIP3     993      TIP3     H1       HT       0.417000       1.00800           0
     14163 TIP3     993      TIP3     H2       HT       0.417000       1.00800           0
     14164 TIP3     994      TIP3     OH2      OT      -0.834000       15.9994           0
     14165 TIP3     994      TIP3     H1       HT       0.417000       1.00800           0
     14166 TIP3     994      TIP3     H2       HT       0.417000       1.00800           0
     14167 TIP3     995      TIP3     OH2      OT      -0.834000       15.9994           0
     14168 TIP3     995      TIP3     H1       HT       0.417000       1.00800           0
     14169 TIP3     995      TIP3     H2       HT       0.417000       1.00800           0
     14170 TIP3     996      TIP3     OH2      OT      -0.834000       15.9994           0
     14171 TIP3     996      TIP3     H1       HT       0.417000       1.00800           0
     14172 TIP3     996      TIP3     H2       HT       0.417000       1.00800           0
     14173 TIP3     997      TIP3     OH2      OT      -0.834000       15.9994           0
     14174 TIP3     997      TIP3     H1       HT       0.417000       1.00800           0
     14175 TIP3     997      TIP3     H2       HT       0.417000       1.00800           0
     14176 TIP3     998      TIP3     OH2      OT      -0.834000       15.9994           0
     14177 TIP3     998      TIP3     H1       HT       0.417000       1.00800           0
     14178 TIP3     998      TIP3     H2       HT       0.417000       1.00800           0
     14179 TIP3     999      TIP3     OH2      OT      -0.834000       15.9994           0
     14180 TIP3     999      TIP3     H1       HT       0.417000       1.00800           0
     14181 TIP3     999      TIP3     H2       HT       0.417000       1.00800           0
     14182 TIP3     1000     TIP3     OH2      OT      -0.834000       15.9994           0
     14183 TIP3     1000     TIP3     H1       HT       0.417000       1.00800           0
     14184 TIP3     1000     TIP3     H2       HT       0.417000       1.00800           0
     14185 TIP3     1001     TIP3     OH2      OT      -0.834000       15.9994           0
     14186 TIP3     1001     TIP3     H1       HT       0.417000       1.00800           0
     14187 TIP3     1001     TIP3     H2       HT       0.417000       1.00800           0
     14188 TIP3     1002     TIP3     OH2      OT      -0.834000       15.9994           0
     14189 TIP3     1002     TIP3     H1       HT       0.417000       1.00800           0
     14190 TIP3     1002     TIP3     H2       HT       0.417000       1.00800           0
     14191 TIP3     1003     TIP3     OH2      OT      -0.834000       15.9994           0
     14192 TIP3     1003     TIP3     H1       HT       0.417000       1.00800           0
     14193 TIP3     1003     TIP3     H2       HT       0.417000       1.00800           0
     14194 TIP3     1004     TIP3     OH2      OT      -0.834000       15.9994           0
     14195 TIP3     1004     TIP3     H1       HT       0.417000       1.00800           0
     14196 TIP3     1004     TIP3     H2       HT       0.417000       1.00800           0
     14197 TIP3     1005     TIP3     OH2      OT      -0.834000       15.9994           0
     14198 TIP3     1005     TIP3     H1       HT       0.417000       1.00800           0
     14199 TIP3     1005     TIP3     H2       HT       0.417000       1.00800           0
     14200 TIP3     1006     TIP3     OH2      OT      -0.834000       15.9994           0
     14201 TIP3     1006     TIP3     H1       HT       0.417000       1.00800           0
     14202 TIP3     1006     TIP3     H2       HT       0.417000       1.00800           0
     14203 TIP3     1007     TIP3     OH2      OT      -0.834000       15.9994           0
     14204 TIP3     1007     TIP3     H1       HT       0.417000       1.00800           0
     14205 TIP3     1007     TIP3     H2       HT       0.417000       1.00800           0
     14206 TIP3     1008     TIP3     OH2      OT      -0.834000       15.9994           0
     14207 TIP3     1008     TIP3     H1       HT       0.417000       1.00800           0
     14208 TIP3     1008     TIP3     H2       HT       0.417000       1.00800           0
     14209 TIP3     1009     TIP3     OH2      OT      -0.834000       15.9994           0
     14210 TIP3     1009     TIP3     H1       HT       0.417000       1.00800           0
     14211 TIP3     1009     TIP3     H2       HT       0.417000       1.00800           0
     14212 TIP3     1010     TIP3     OH2      OT      -0.834000       15.9994           0
     14213 TIP3     1010     TIP3     H1       HT       0.417000       1.00800           0
     14214 TIP3     1010     TIP3     H2       HT       0.417000       1.00800           0
     14215 TIP3     1011     TIP3     OH2      OT      -0.834000       15.9994           0
     14216 TIP3     1011     TIP3     H1       HT       0.417000       1.00800           0
     14217 TIP3     1011     TIP3     H2       HT       0.417000       1.00800           0
     14218 TIP3     1012     TIP3     OH2      OT      -0.834000       15.9994           0
     14219 TIP3     1012     TIP3     H1       HT       0.417000       1.00800           0
     14220 TIP3     1012     TIP3     H2       HT       0.417000       1.00800           0
     14221 TIP3     1013     TIP3     OH2      OT      -0.834000       15.9994           0
     14222 TIP3     1013     TIP3     H1       HT       0.417000       1.00800           0
     14223 TIP3     1013     TIP3     H2       HT       0.417000       1.00800           0
     14224 TIP3     1014     TIP3     OH2      OT      -0.834000       15.9994           0
     14225 TIP3     1014     TIP3     H1       HT       0.417000       1.00800           0
     14226 TIP3     1014     TIP3     H2       HT       0.417000       1.00800           0
     14227 TIP3     1015     TIP3     OH2      OT      -0.834000       15.9994           0
     14228 TIP3     1015     TIP3     H1       HT       0.417000       1.00800           0
     14229 TIP3     1015     TIP3     H2       HT       0.417000       1.00800           0
     14230 TIP3     1016     TIP3     OH2      OT      -0.834000       15.9994           0
     14231 TIP3     1016     TIP3     H1       HT       0.417000       1.00800           0
     14232 TIP3     1016     TIP3     H2       HT       0.417000       1.00800           0
     14233 TIP3     1017     TIP3     OH2      OT      -0.834000       15.9994           0
     14234 TIP3     1017     TIP3     H1       HT       0.417000       1.00800           0
     14235 TIP3     1017     TIP3     H2       HT       0.417000       1.00800           0
     14236 TIP3     1018     TIP3     OH2      OT      -0.834000       15.9994           0
     14237 TIP3     1018     TIP3     H1       HT       0.417000       1.00800           0
     14238 TIP3     1018     TIP3     H2       HT       0.417000       1.00800           0
     14239 TIP3     1019     TIP3     OH2      OT      -0.834000       15.9994           0
     14240 TIP3     1019     TIP3     H1       HT       0.417000       1.00800           0
     14241 TIP3     1019     TIP3     H2       HT       0.417000       1.00800           0
     14242 TIP3     1020     TIP3     OH2      OT      -0.834000       15.9994           0
     14243 TIP3     1020     TIP3     H1       HT       0.417000       1.00800           0
     14244 TIP3     1020     TIP3     H2       HT       0.417000       1.00800           0
     14245 TIP3     1021     TIP3     OH2      OT      -0.834000       15.9994           0
     14246 TIP3     1021     TIP3     H1       HT       0.417000       1.00800           0
     14247 TIP3     1021     TIP3     H2       HT       0.417000       1.00800           0
     14248 TIP3     1022     TIP3     OH2      OT      -0.834000       15.9994           0
     14249 TIP3     1022     TIP3     H1       HT       0.417000       1.00800           0
     14250 TIP3     1022     TIP3     H2       HT       0.417000       1.00800           0
     14251 TIP3     1023     TIP3     OH2      OT      -0.834000       15.9994           0
     14252 TIP3     1023     TIP3     H1       HT       0.417000       1.00800           0
     14253 TIP3     1023     TIP3     H2       HT       0.417000       1.00800           0
     14254 TIP3     1024     TIP3     OH2      OT      -0.834000       15.9994           0
     14255 TIP3     1024     TIP3     H1       HT       0.417000       1.00800           0
     14256 TIP3     1024     TIP3     H2       HT       0.417000       1.00800           0
     14257 TIP3     1025     TIP3     OH2      OT      -0.834000       15.9994           0
     14258 TIP3     1025     TIP3     H1       HT       0.417000       1.00800           0
     14259 TIP3     1025     TIP3     H2       HT       0.417000       1.00800           0
     14260 TIP3     1026     TIP3     OH2      OT      -0.834000       15.9994           0
     14261 TIP3     1026     TIP3     H1       HT       0.417000       1.00800           0
     14262 TIP3     1026     TIP3     H2       HT       0.417000       1.00800           0
     14263 TIP3     1027     TIP3     OH2      OT      -0.834000       15.9994           0
     14264 TIP3     1027     TIP3     H1       HT       0.417000       1.00800           0
     14265 TIP3     1027     TIP3     H2       HT       0.417000       1.00800           0
     14266 TIP3     1028     TIP3     OH2      OT      -0.834000       15.9994           0
     14267 TIP3     1028     TIP3     H1       HT       0.417000       1.00800           0
     14268 TIP3     1028     TIP3     H2       HT       0.417000       1.00800           0
     14269 TIP3     1029     TIP3     OH2      OT      -0.834000       15.9994           0
     14270 TIP3     1029     TIP3     H1       HT       0.417000       1.00800           0
     14271 TIP3     1029     TIP3     H2       HT       0.417000       1.00800           0
     14272 TIP3     1030     TIP3     OH2      OT      -0.834000       15.9994           0
     14273 TIP3     1030     TIP3     H1       HT       0.417000       1.00800           0
     14274 TIP3     1030     TIP3     H2       HT       0.417000       1.00800           0
     14275 TIP3     1031     TIP3     OH2      OT      -0.834000       15.9994           0
     14276 TIP3     1031     TIP3     H1       HT       0.417000       1.00800           0
     14277 TIP3     1031     TIP3     H2       HT       0.417000       1.00800           0
     14278 TIP3     1032     TIP3     OH2      OT      -0.834000       15.9994           0
     14279 TIP3     1032     TIP3     H1       HT       0.417000       1.00800           0
     14280 TIP3     1032     TIP3     H2       HT       0.417000       1.00800           0
     14281 TIP3     1033     TIP3     OH2      OT      -0.834000       15.9994           0
     14282 TIP3     1033     TIP3     H1       HT       0.417000       1.00800           0
     14283 TIP3     1033     TIP3     H2       HT       0.417000       1.00800           0
     14284 TIP3     1034     TIP3     OH2      OT      -0.834000       15.9994           0
     14285 TIP3     1034     TIP3     H1       HT       0.417000       1.00800           0
     14286 TIP3     1034     TIP3     H2       HT       0.417000       1.00800           0
     14287 TIP3     1035     TIP3     OH2      OT      -0.834000       15.9994           0
     14288 TIP3     1035     TIP3     H1       HT       0.417000       1.00800           0
     14289 TIP3     1035     TIP3     H2       HT       0.417000       1.00800           0
     14290 TIP3     1036     TIP3     OH2      OT      -0.834000       15.9994           0
     14291 TIP3     1036     TIP3     H1       HT       0.417000       1.00800           0
     14292 TIP3     1036     TIP3     H2       HT       0.417000       1.00800           0
     14293 TIP3     1037     TIP3     OH2      OT      -0.834000       15.9994           0
     14294 TIP3     1037     TIP3     H1       HT       0.417000       1.00800           0
     14295 TIP3     1037     TIP3     H2       HT       0.417000       1.00800           0
     14296 TIP3     1038     TIP3     OH2      OT      -0.834000       15.9994           0
     14297 TIP3     1038     TIP3     H1       HT       0.417000       1.00800           0
     14298 TIP3     1038     TIP3     H2       HT       0.417000       1.00800           0
     14299 TIP3     1039     TIP3     OH2      OT      -0.834000       15.9994           0
     14300 TIP3     1039     TIP3     H1       HT       0.417000       1.00800           0
     14301 TIP3     1039     TIP3     H2       HT       0.417000       1.00800           0
     14302 TIP3     1040     TIP3     OH2      OT      -0.834000       15.9994           0
     14303 TIP3     1040     TIP3     H1       HT       0.417000       1.00800           0
     14304 TIP3     1040     TIP3     H2       HT       0.417000       1.00800           0
     14305 TIP3     1041     TIP3     OH2      OT      -0.834000       15.9994           0
     14306 TIP3     1041     TIP3     H1       HT       0.417000       1.00800           0
     14307 TIP3     1041     TIP3     H2       HT       0.417000       1.00800           0
     14308 TIP3     1042     TIP3     OH2      OT      -0.834000       15.9994           0
     14309 TIP3     1042     TIP3     H1       HT       0.417000       1.00800           0
     14310 TIP3     1042     TIP3     H2       HT       0.417000       1.00800           0
     14311 TIP3     1043     TIP3     OH2      OT      -0.834000       15.9994           0
     14312 TIP3     1043     TIP3     H1       HT       0.417000       1.00800           0
     14313 TIP3     1043     TIP3     H2       HT       0.417000       1.00800           0
     14314 TIP3     1044     TIP3     OH2      OT      -0.834000       15.9994           0
     14315 TIP3     1044     TIP3     H1       HT       0.417000       1.00800           0
     14316 TIP3     1044     TIP3     H2       HT       0.417000       1.00800           0
     14317 TIP3     1045     TIP3     OH2      OT      -0.834000       15.9994           0
     14318 TIP3     1045     TIP3     H1       HT       0.417000       1.00800           0
     14319 TIP3     1045     TIP3     H2       HT       0.417000       1.00800           0
     14320 TIP3     1046     TIP3     OH2      OT      -0.834000       15.9994           0
     14321 TIP3     1046     TIP3     H1       HT       0.417000       1.00800           0
     14322 TIP3     1046     TIP3     H2       HT       0.417000       1.00800           0
     14323 TIP3     1047     TIP3     OH2      OT      -0.834000       15.9994           0
     14324 TIP3     1047     TIP3     H1       HT       0.417000       1.00800           0
     14325 TIP3     1047     TIP3     H2       HT       0.417000       1.00800           0
     14326 TIP3     1048     TIP3     OH2      OT      -0.834000       15.9994           0
     14327 TIP3     1048     TIP3     H1       HT       0.417000       1.00800           0
     14328 TIP3     1048     TIP3     H2       HT       0.417000       1.00800           0
     14329 TIP3     1049     TIP3     OH2      OT      -0.834000       15.9994           0
     14330 TIP3     1049     TIP3     H1       HT       0.417000       1.00800           0
     14331 TIP3     1049     TIP3     H2       HT       0.417000       1.00800           0
     14332 TIP3     1050     TIP3     OH2      OT      -0.834000       15.9994           0
     14333 TIP3     1050     TIP3     H1       HT       0.417000       1.00800           0
     14334 TIP3     1050     TIP3     H2       HT       0.417000       1.00800           0
     14335 TIP3     1051     TIP3     OH2      OT      -0.834000       15.9994           0
     14336 TIP3     1051     TIP3     H1       HT       0.417000       1.00800           0
     14337 TIP3     1051     TIP3     H2       HT       0.417000       1.00800           0
     14338 TIP3     1052     TIP3     OH2      OT      -0.834000       15.9994           0
     14339 TIP3     1052     TIP3     H1       HT       0.417000       1.00800           0
     14340 TIP3     1052     TIP3     H2       HT       0.417000       1.00800           0
     14341 TIP3     1053     TIP3     OH2      OT      -0.834000       15.9994           0
     14342 TIP3     1053     TIP3     H1       HT       0.417000       1.00800           0
     14343 TIP3     1053     TIP3     H2       HT       0.417000       1.00800           0
     14344 TIP3     1054     TIP3     OH2      OT      -0.834000       15.9994           0
     14345 TIP3     1054     TIP3     H1       HT       0.417000       1.00800           0
     14346 TIP3     1054     TIP3     H2       HT       0.417000       1.00800           0
     14347 TIP3     1055     TIP3     OH2      OT      -0.834000       15.9994           0
     14348 TIP3     1055     TIP3     H1       HT       0.417000       1.00800           0
     14349 TIP3     1055     TIP3     H2       HT       0.417000       1.00800           0
     14350 TIP3     1056     TIP3     OH2      OT      -0.834000       15.9994           0
     14351 TIP3     1056     TIP3     H1       HT       0.417000       1.00800           0
     14352 TIP3     1056     TIP3     H2       HT       0.417000       1.00800           0
     14353 TIP3     1057     TIP3     OH2      OT      -0.834000       15.9994           0
     14354 TIP3     1057     TIP3     H1       HT       0.417000       1.00800           0
     14355 TIP3     1057     TIP3     H2       HT       0.417000       1.00800           0
     14356 TIP3     1058     TIP3     OH2      OT      -0.834000       15.9994           0
     14357 TIP3     1058     TIP3     H1       HT       0.417000       1.00800           0
     14358 TIP3     1058     TIP3     H2       HT       0.417000       1.00800           0
     14359 TIP3     1059     TIP3     OH2      OT      -0.834000       15.9994           0
     14360 TIP3     1059     TIP3     H1       HT       0.417000       1.00800           0
     14361 TIP3     1059     TIP3     H2       HT       0.417000       1.00800           0
     14362 TIP3     1060     TIP3     OH2      OT      -0.834000       15.9994           0
     14363 TIP3     1060     TIP3     H1       HT       0.417000       1.00800           0
     14364 TIP3     1060     TIP3     H2       HT       0.417000       1.00800           0
     14365 TIP3     1061     TIP3     OH2      OT      -0.834000       15.9994           0
     14366 TIP3     1061     TIP3     H1       HT       0.417000       1.00800           0
     14367 TIP3     1061     TIP3     H2       HT       0.417000       1.00800           0
     14368 TIP3     1062     TIP3     OH2      OT      -0.834000       15.9994           0
     14369 TIP3     1062     TIP3     H1       HT       0.417000       1.00800           0
     14370 TIP3     1062     TIP3     H2       HT       0.417000       1.00800           0
     14371 TIP3     1063     TIP3     OH2      OT      -0.834000       15.9994           0
     14372 TIP3     1063     TIP3     H1       HT       0.417000       1.00800           0
     14373 TIP3     1063     TIP3     H2       HT       0.417000       1.00800           0
     14374 TIP3     1064     TIP3     OH2      OT      -0.834000       15.9994           0
     14375 TIP3     1064     TIP3     H1       HT       0.417000       1.00800           0
     14376 TIP3     1064     TIP3     H2       HT       0.417000       1.00800           0
     14377 TIP3     1065     TIP3     OH2      OT      -0.834000       15.9994           0
     14378 TIP3     1065     TIP3     H1       HT       0.417000       1.00800           0
     14379 TIP3     1065     TIP3     H2       HT       0.417000       1.00800           0
     14380 TIP3     1066     TIP3     OH2      OT      -0.834000       15.9994           0
     14381 TIP3     1066     TIP3     H1       HT       0.417000       1.00800           0
     14382 TIP3     1066     TIP3     H2       HT       0.417000       1.00800           0
     14383 TIP3     1067     TIP3     OH2      OT      -0.834000       15.9994           0
     14384 TIP3     1067     TIP3     H1       HT       0.417000       1.00800           0
     14385 TIP3     1067     TIP3     H2       HT       0.417000       1.00800           0
     14386 TIP3     1068     TIP3     OH2      OT      -0.834000       15.9994           0
     14387 TIP3     1068     TIP3     H1       HT       0.417000       1.00800           0
     14388 TIP3     1068     TIP3     H2       HT       0.417000       1.00800           0
     14389 TIP3     1069     TIP3     OH2      OT      -0.834000       15.9994           0
     14390 TIP3     1069     TIP3     H1       HT       0.417000       1.00800           0
     14391 TIP3     1069     TIP3     H2       HT       0.417000       1.00800           0
     14392 TIP3     1070     TIP3     OH2      OT      -0.834000       15.9994           0
     14393 TIP3     1070     TIP3     H1       HT       0.417000       1.00800           0
     14394 TIP3     1070     TIP3     H2       HT       0.417000       1.00800           0
     14395 TIP3     1071     TIP3     OH2      OT      -0.834000       15.9994           0
     14396 TIP3     1071     TIP3     H1       HT       0.417000       1.00800           0
     14397 TIP3     1071     TIP3     H2       HT       0.417000       1.00800           0
     14398 TIP3     1072     TIP3     OH2      OT      -0.834000       15.9994           0
     14399 TIP3     1072     TIP3     H1       HT       0.417000       1.00800           0
     14400 TIP3     1072     TIP3     H2       HT       0.417000       1.00800           0
     14401 TIP3     1073     TIP3     OH2      OT      -0.834000       15.9994           0
     14402 TIP3     1073     TIP3     H1       HT       0.417000       1.00800           0
     14403 TIP3     1073     TIP3     H2       HT       0.417000       1.00800           0
     14404 TIP3     1074     TIP3     OH2      OT      -0.834000       15.9994           0
     14405 TIP3     1074     TIP3     H1       HT       0.417000       1.00800           0
     14406 TIP3     1074     TIP3     H2       HT       0.417000       1.00800           0
     14407 TIP3     1075     TIP3     OH2      OT      -0.834000       15.9994           0
     14408 TIP3     1075     TIP3     H1       HT       0.417000       1.00800           0
     14409 TIP3     1075     TIP3     H2       HT       0.417000       1.00800           0
     14410 TIP3     1076     TIP3     OH2      OT      -0.834000       15.9994           0
     14411 TIP3     1076     TIP3     H1       HT       0.417000       1.00800           0
     14412 TIP3     1076     TIP3     H2       HT       0.417000       1.00800           0
     14413 TIP3     1077     TIP3     OH2      OT      -0.834000       15.9994           0
     14414 TIP3     1077     TIP3     H1       HT       0.417000       1.00800           0
     14415 TIP3     1077     TIP3     H2       HT       0.417000       1.00800           0
     14416 TIP3     1078     TIP3     OH2      OT      -0.834000       15.9994           0
     14417 TIP3     1078     TIP3     H1       HT       0.417000       1.00800           0
     14418 TIP3     1078     TIP3     H2       HT       0.417000       1.00800           0
     14419 TIP3     1079     TIP3     OH2      OT      -0.834000       15.9994           0
     14420 TIP3     1079     TIP3     H1       HT       0.417000       1.00800           0
     14421 TIP3     1079     TIP3     H2       HT       0.417000       1.00800           0
     14422 TIP3     1080     TIP3     OH2      OT      -0.834000       15.9994           0
     14423 TIP3     1080     TIP3     H1       HT       0.417000       1.00800           0
     14424 TIP3     1080     TIP3     H2       HT       0.417000       1.00800           0
     14425 TIP3     1081     TIP3     OH2      OT      -0.834000       15.9994           0
     14426 TIP3     1081     TIP3     H1       HT       0.417000       1.00800           0
     14427 TIP3     1081     TIP3     H2       HT       0.417000       1.00800           0
     14428 TIP3     1082     TIP3     OH2      OT      -0.834000       15.9994           0
     14429 TIP3     1082     TIP3     H1       HT       0.417000       1.00800           0
     14430 TIP3     1082     TIP3     H2       HT       0.417000       1.00800           0
     14431 TIP3     1083     TIP3     OH2      OT      -0.834000       15.9994           0
     14432 TIP3     1083     TIP3     H1       HT       0.417000       1.00800           0
     14433 TIP3     1083     TIP3     H2       HT       0.417000       1.00800           0
     14434 TIP3     1084     TIP3     OH2      OT      -0.834000       15.9994           0
     14435 TIP3     1084     TIP3     H1       HT       0.417000       1.00800           0
     14436 TIP3     1084     TIP3     H2       HT       0.417000       1.00800           0
     14437 TIP3     1085     TIP3     OH2      OT      -0.834000       15.9994           0
     14438 TIP3     1085     TIP3     H1       HT       0.417000       1.00800           0
     14439 TIP3     1085     TIP3     H2       HT       0.417000       1.00800           0
     14440 TIP3     1086     TIP3     OH2      OT      -0.834000       15.9994           0
     14441 TIP3     1086     TIP3     H1       HT       0.417000       1.00800           0
     14442 TIP3     1086     TIP3     H2       HT       0.417000       1.00800           0
     14443 TIP3     1087     TIP3     OH2      OT      -0.834000       15.9994           0
     14444 TIP3     1087     TIP3     H1       HT       0.417000       1.00800           0
     14445 TIP3     1087     TIP3     H2       HT       0.417000       1.00800           0
     14446 TIP3     1088     TIP3     OH2      OT      -0.834000       15.9994           0
     14447 TIP3     1088     TIP3     H1       HT       0.417000       1.00800           0
     14448 TIP3     1088     TIP3     H2       HT       0.417000       1.00800           0
     14449 TIP3     1089     TIP3     OH2      OT      -0.834000       15.9994           0
     14450 TIP3     1089     TIP3     H1       HT       0.417000       1.00800           0
     14451 TIP3     1089     TIP3     H2       HT       0.417000       1.00800           0
     14452 TIP3     1090     TIP3     OH2      OT      -0.834000       15.9994           0
     14453 TIP3     1090     TIP3     H1       HT       0.417000       1.00800           0
     14454 TIP3     1090     TIP3     H2       HT       0.417000       1.00800           0
     14455 TIP3     1091     TIP3     OH2      OT      -0.834000       15.9994           0
     14456 TIP3     1091     TIP3     H1       HT       0.417000       1.00800           0
     14457 TIP3     1091     TIP3     H2       HT       0.417000       1.00800           0
     14458 TIP3     1092     TIP3     OH2      OT      -0.834000       15.9994           0
     14459 TIP3     1092     TIP3     H1       HT       0.417000       1.00800           0
     14460 TIP3     1092     TIP3     H2       HT       0.417000       1.00800           0
     14461 TIP3     1093     TIP3     OH2      OT      -0.834000       15.9994           0
     14462 TIP3     1093     TIP3     H1       HT       0.417000       1.00800           0
     14463 TIP3     1093     TIP3     H2       HT       0.417000       1.00800           0
     14464 TIP3     1094     TIP3     OH2      OT      -0.834000       15.9994           0
     14465 TIP3     1094     TIP3     H1       HT       0.417000       1.00800           0
     14466 TIP3     1094     TIP3     H2       HT       0.417000       1.00800           0
     14467 TIP3     1095     TIP3     OH2      OT      -0.834000       15.9994           0
     14468 TIP3     1095     TIP3     H1       HT       0.417000       1.00800           0
     14469 TIP3     1095     TIP3     H2       HT       0.417000       1.00800           0
     14470 TIP3     1096     TIP3     OH2      OT      -0.834000       15.9994           0
     14471 TIP3     1096     TIP3     H1       HT       0.417000       1.00800           0
     14472 TIP3     1096     TIP3     H2       HT       0.417000       1.00800           0
     14473 TIP3     1097     TIP3     OH2      OT      -0.834000       15.9994           0
     14474 TIP3     1097     TIP3     H1       HT       0.417000       1.00800           0
     14475 TIP3     1097     TIP3     H2       HT       0.417000       1.00800           0
     14476 TIP3     1098     TIP3     OH2      OT      -0.834000       15.9994           0
     14477 TIP3     1098     TIP3     H1       HT       0.417000       1.00800           0
     14478 TIP3     1098     TIP3     H2       HT       0.417000       1.00800           0
     14479 TIP3     1099     TIP3     OH2      OT      -0.834000       15.9994           0
     14480 TIP3     1099     TIP3     H1       HT       0.417000       1.00800           0
     14481 TIP3     1099     TIP3     H2       HT       0.417000       1.00800           0
     14482 TIP3     1100     TIP3     OH2      OT      -0.834000       15.9994           0
     14483 TIP3     1100     TIP3     H1       HT       0.417000       1.00800           0
     14484 TIP3     1100     TIP3     H2       HT       0.417000       1.00800           0
     14485 TIP3     1101     TIP3     OH2      OT      -0.834000       15.9994           0
     14486 TIP3     1101     TIP3     H1       HT       0.417000       1.00800           0
     14487 TIP3     1101     TIP3     H2       HT       0.417000       1.00800           0
     14488 TIP3     1102     TIP3     OH2      OT      -0.834000       15.9994           0
     14489 TIP3     1102     TIP3     H1       HT       0.417000       1.00800           0
     14490 TIP3     1102     TIP3     H2       HT       0.417000       1.00800           0
     14491 TIP3     1103     TIP3     OH2      OT      -0.834000       15.9994           0
     14492 TIP3     1103     TIP3     H1       HT       0.417000       1.00800           0
     14493 TIP3     1103     TIP3     H2       HT       0.417000       1.00800           0
     14494 TIP3     1104     TIP3     OH2      OT      -0.834000       15.9994           0
     14495 TIP3     1104     TIP3     H1       HT       0.417000       1.00800           0
     14496 TIP3     1104     TIP3     H2       HT       0.417000       1.00800           0
     14497 TIP3     1105     TIP3     OH2      OT      -0.834000       15.9994           0
     14498 TIP3     1105     TIP3     H1       HT       0.417000       1.00800           0
     14499 TIP3     1105     TIP3     H2       HT       0.417000       1.00800           0
     14500 TIP3     1106     TIP3     OH2      OT      -0.834000       15.9994           0
     14501 TIP3     1106     TIP3     H1       HT       0.417000       1.00800           0
     14502 TIP3     1106     TIP3     H2       HT       0.417000       1.00800           0
     14503 TIP3     1107     TIP3     OH2      OT      -0.834000       15.9994           0
     14504 TIP3     1107     TIP3     H1       HT       0.417000       1.00800           0
     14505 TIP3     1107     TIP3     H2       HT       0.417000       1.00800           0
     14506 TIP3     1108     TIP3     OH2      OT      -0.834000       15.9994           0
     14507 TIP3     1108     TIP3     H1       HT       0.417000       1.00800           0
     14508 TIP3     1108     TIP3     H2       HT       0.417000       1.00800           0
     14509 TIP3     1109     TIP3     OH2      OT      -0.834000       15.9994           0
     14510 TIP3     1109     TIP3     H1       HT       0.417000       1.00800           0
     14511 TIP3     1109     TIP3     H2       HT       0.417000       1.00800           0
     14512 TIP3     1110     TIP3     OH2      OT      -0.834000       15.9994           0
     14513 TIP3     1110     TIP3     H1       HT       0.417000       1.00800           0
     14514 TIP3     1110     TIP3     H2       HT       0.417000       1.00800           0
     14515 TIP3     1111     TIP3     OH2      OT      -0.834000       15.9994           0
     14516 TIP3     1111     TIP3     H1       HT       0.417000       1.00800           0
     14517 TIP3     1111     TIP3     H2       HT       0.417000       1.00800           0
     14518 TIP3     1112     TIP3     OH2      OT      -0.834000       15.9994           0
     14519 TIP3     1112     TIP3     H1       HT       0.417000       1.00800           0
     14520 TIP3     1112     TIP3     H2       HT       0.417000       1.00800           0
     14521 TIP3     1113     TIP3     OH2      OT      -0.834000       15.9994           0
     14522 TIP3     1113     TIP3     H1       HT       0.417000       1.00800           0
     14523 TIP3     1113     TIP3     H2       HT       0.417000       1.00800           0
     14524 TIP3     1114     TIP3     OH2      OT      -0.834000       15.9994           0
     14525 TIP3     1114     TIP3     H1       HT       0.417000       1.00800           0
     14526 TIP3     1114     TIP3     H2       HT       0.417000       1.00800           0
     14527 TIP3     1115     TIP3     OH2      OT      -0.834000       15.9994           0
     14528 TIP3     1115     TIP3     H1       HT       0.417000       1.00800           0
     14529 TIP3     1115     TIP3     H2       HT       0.417000       1.00800           0
     14530 TIP3     1116     TIP3     OH2      OT      -0.834000       15.9994           0
     14531 TIP3     1116     TIP3     H1       HT       0.417000       1.00800           0
     14532 TIP3     1116     TIP3     H2       HT       0.417000       1.00800           0
     14533 TIP3     1117     TIP3     OH2      OT      -0.834000       15.9994           0
     14534 TIP3     1117     TIP3     H1       HT       0.417000       1.00800           0
     14535 TIP3     1117     TIP3     H2       HT       0.417000       1.00800           0
     14536 TIP3     1118     TIP3     OH2      OT      -0.834000       15.9994           0
     14537 TIP3     1118     TIP3     H1       HT       0.417000       1.00800           0
     14538 TIP3     1118     TIP3     H2       HT       0.417000       1.00800           0
     14539 TIP3     1119     TIP3     OH2      OT      -0.834000       15.9994           0
     14540 TIP3     1119     TIP3     H1       HT       0.417000       1.00800           0
     14541 TIP3     1119     TIP3     H2       HT       0.417000       1.00800           0
     14542 TIP3     1120     TIP3     OH2      OT      -0.834000       15.9994           0
     14543 TIP3     1120     TIP3     H1       HT       0.417000       1.00800           0
     14544 TIP3     1120     TIP3     H2       HT       0.417000       1.00800           0
     14545 TIP3     1121     TIP3     OH2      OT      -0.834000       15.9994           0
     14546 TIP3     1121     TIP3     H1       HT       0.417000       1.00800           0
     14547 TIP3     1121     TIP3     H2       HT       0.417000       1.00800           0
     14548 TIP3     1122     TIP3     OH2      OT      -0.834000       15.9994           0
     14549 TIP3     1122     TIP3     H1       HT       0.417000       1.00800           0
     14550 TIP3     1122     TIP3     H2       HT       0.417000       1.00800           0
     14551 TIP3     1123     TIP3     OH2      OT      -0.834000       15.9994           0
     14552 TIP3     1123     TIP3     H1       HT       0.417000       1.00800           0
     14553 TIP3     1123     TIP3     H2       HT       0.417000       1.00800           0
     14554 TIP3     1124     TIP3     OH2      OT      -0.834000       15.9994           0
     14555 TIP3     1124     TIP3     H1       HT       0.417000       1.00800           0
     14556 TIP3     1124     TIP3     H2       HT       0.417000       1.00800           0
     14557 TIP3     1125     TIP3     OH2      OT      -0.834000       15.9994           0
     14558 TIP3     1125     TIP3     H1       HT       0.417000       1.00800           0
     14559 TIP3     1125     TIP3     H2       HT       0.417000       1.00800           0
     14560 TIP3     1126     TIP3     OH2      OT      -0.834000       15.9994           0
     14561 TIP3     1126     TIP3     H1       HT       0.417000       1.00800           0
     14562 TIP3     1126     TIP3     H2       HT       0.417000       1.00800           0
     14563 TIP3     1127     TIP3     OH2      OT      -0.834000       15.9994           0
     14564 TIP3     1127     TIP3     H1       HT       0.417000       1.00800           0
     14565 TIP3     1127     TIP3     H2       HT       0.417000       1.00800           0
     14566 TIP3     1128     TIP3     OH2      OT      -0.834000       15.9994           0
     14567 TIP3     1128     TIP3     H1       HT       0.417000       1.00800           0
     14568 TIP3     1128     TIP3     H2       HT       0.417000       1.00800           0
     14569 TIP3     1129     TIP3     OH2      OT      -0.834000       15.9994           0
     14570 TIP3     1129     TIP3     H1       HT       0.417000       1.00800           0
     14571 TIP3     1129     TIP3     H2       HT       0.417000       1.00800           0
     14572 TIP3     1130     TIP3     OH2      OT      -0.834000       15.9994           0
     14573 TIP3     1130     TIP3     H1       HT       0.417000       1.00800           0
     14574 TIP3     1130     TIP3     H2       HT       0.417000       1.00800           0
     14575 TIP3     1131     TIP3     OH2      OT      -0.834000       15.9994           0
     14576 TIP3     1131     TIP3     H1       HT       0.417000       1.00800           0
     14577 TIP3     1131     TIP3     H2       HT       0.417000       1.00800           0
     14578 TIP3     1132     TIP3     OH2      OT      -0.834000       15.9994           0
     14579 TIP3     1132     TIP3     H1       HT       0.417000       1.00800           0
     14580 TIP3     1132     TIP3     H2       HT       0.417000       1.00800           0
     14581 TIP3     1133     TIP3     OH2      OT      -0.834000       15.9994           0
     14582 TIP3     1133     TIP3     H1       HT       0.417000       1.00800           0
     14583 TIP3     1133     TIP3     H2       HT       0.417000       1.00800           0
     14584 TIP3     1134     TIP3     OH2      OT      -0.834000       15.9994           0
     14585 TIP3     1134     TIP3     H1       HT       0.417000       1.00800           0
     14586 TIP3     1134     TIP3     H2       HT       0.417000       1.00800           0
     14587 TIP3     1135     TIP3     OH2      OT      -0.834000       15.9994           0
     14588 TIP3     1135     TIP3     H1       HT       0.417000       1.00800           0
     14589 TIP3     1135     TIP3     H2       HT       0.417000       1.00800           0
     14590 TIP3     1136     TIP3     OH2      OT      -0.834000       15.9994           0
     14591 TIP3     1136     TIP3     H1       HT       0.417000       1.00800           0
     14592 TIP3     1136     TIP3     H2       HT       0.417000       1.00800           0
     14593 TIP3     1137     TIP3     OH2      OT      -0.834000       15.9994           0
     14594 TIP3     1137     TIP3     H1       HT       0.417000       1.00800           0
     14595 TIP3     1137     TIP3     H2       HT       0.417000       1.00800           0
     14596 TIP3     1138     TIP3     OH2      OT      -0.834000       15.9994           0
     14597 TIP3     1138     TIP3     H1       HT       0.417000       1.00800           0
     14598 TIP3     1138     TIP3     H2       HT       0.417000       1.00800           0
     14599 TIP3     1139     TIP3     OH2      OT      -0.834000       15.9994           0
     14600 TIP3     1139     TIP3     H1       HT       0.417000       1.00800           0
     14601 TIP3     1139     TIP3     H2       HT       0.417000       1.00800           0
     14602 TIP3     1140     TIP3     OH2      OT      -0.834000       15.9994           0
     14603 TIP3     1140     TIP3     H1       HT       0.417000       1.00800           0
     14604 TIP3     1140     TIP3     H2       HT       0.417000       1.00800           0
     14605 TIP3     1141     TIP3     OH2      OT      -0.834000       15.9994           0
     14606 TIP3     1141     TIP3     H1       HT       0.417000       1.00800           0
     14607 TIP3     1141     TIP3     H2       HT       0.417000       1.00800           0
     14608 TIP3     1142     TIP3     OH2      OT      -0.834000       15.9994           0
     14609 TIP3     1142     TIP3     H1       HT       0.417000       1.00800           0
     14610 TIP3     1142     TIP3     H2       HT       0.417000       1.00800           0
     14611 TIP3     1143     TIP3     OH2      OT      -0.834000       15.9994           0
     14612 TIP3     1143     TIP3     H1       HT       0.417000       1.00800           0
     14613 TIP3     1143     TIP3     H2       HT       0.417000       1.00800           0
     14614 TIP3     1144     TIP3     OH2      OT      -0.834000       15.9994           0
     14615 TIP3     1144     TIP3     H1       HT       0.417000       1.00800           0
     14616 TIP3     1144     TIP3     H2       HT       0.417000       1.00800           0
     14617 TIP3     1145     TIP3     OH2      OT      -0.834000       15.9994           0
     14618 TIP3     1145     TIP3     H1       HT       0.417000       1.00800           0
     14619 TIP3     1145     TIP3     H2       HT       0.417000       1.00800           0
     14620 TIP3     1146     TIP3     OH2      OT      -0.834000       15.9994           0
     14621 TIP3     1146     TIP3     H1       HT       0.417000       1.00800           0
     14622 TIP3     1146     TIP3     H2       HT       0.417000       1.00800           0
     14623 TIP3     1147     TIP3     OH2      OT      -0.834000       15.9994           0
     14624 TIP3     1147     TIP3     H1       HT       0.417000       1.00800           0
     14625 TIP3     1147     TIP3     H2       HT       0.417000       1.00800           0
     14626 TIP3     1148     TIP3     OH2      OT      -0.834000       15.9994           0
     14627 TIP3     1148     TIP3     H1       HT       0.417000       1.00800           0
     14628 TIP3     1148     TIP3     H2       HT       0.417000       1.00800           0
     14629 TIP3     1149     TIP3     OH2      OT      -0.834000       15.9994           0
     14630 TIP3     1149     TIP3     H1       HT       0.417000       1.00800           0
     14631 TIP3     1149     TIP3     H2       HT       0.417000       1.00800           0
     14632 TIP3     1150     TIP3     OH2      OT      -0.834000       15.9994           0
     14633 TIP3     1150     TIP3     H1       HT       0.417000       1.00800           0
     14634 TIP3     1150     TIP3     H2       HT       0.417000       1.00800           0
     14635 TIP3     1151     TIP3     OH2      OT      -0.834000       15.9994           0
     14636 TIP3     1151     TIP3     H1       HT       0.417000       1.00800           0
     14637 TIP3     1151     TIP3     H2       HT       0.417000       1.00800           0
     14638 TIP3     1152     TIP3     OH2      OT      -0.834000       15.9994           0
     14639 TIP3     1152     TIP3     H1       HT       0.417000       1.00800           0
     14640 TIP3     1152     TIP3     H2       HT       0.417000       1.00800           0
     14641 TIP3     1153     TIP3     OH2      OT      -0.834000       15.9994           0
     14642 TIP3     1153     TIP3     H1       HT       0.417000       1.00800           0
     14643 TIP3     1153     TIP3     H2       HT       0.417000       1.00800           0
     14644 TIP3     1154     TIP3     OH2      OT      -0.834000       15.9994           0
     14645 TIP3     1154     TIP3     H1       HT       0.417000       1.00800           0
     14646 TIP3     1154     TIP3     H2       HT       0.417000       1.00800           0
     14647 TIP3     1155     TIP3     OH2      OT      -0.834000       15.9994           0
     14648 TIP3     1155     TIP3     H1       HT       0.417000       1.00800           0
     14649 TIP3     1155     TIP3     H2       HT       0.417000       1.00800           0
     14650 TIP3     1156     TIP3     OH2      OT      -0.834000       15.9994           0
     14651 TIP3     1156     TIP3     H1       HT       0.417000       1.00800           0
     14652 TIP3     1156     TIP3     H2       HT       0.417000       1.00800           0
     14653 TIP3     1157     TIP3     OH2      OT      -0.834000       15.9994           0
     14654 TIP3     1157     TIP3     H1       HT       0.417000       1.00800           0
     14655 TIP3     1157     TIP3     H2       HT       0.417000       1.00800           0
     14656 TIP3     1158     TIP3     OH2      OT      -0.834000       15.9994           0
     14657 TIP3     1158     TIP3     H1       HT       0.417000       1.00800           0
     14658 TIP3     1158     TIP3     H2       HT       0.417000       1.00800           0
     14659 TIP3     1159     TIP3     OH2      OT      -0.834000       15.9994           0
     14660 TIP3     1159     TIP3     H1       HT       0.417000       1.00800           0
     14661 TIP3     1159     TIP3     H2       HT       0.417000       1.00800           0
     14662 TIP3     1160     TIP3     OH2      OT      -0.834000       15.9994           0
     14663 TIP3     1160     TIP3     H1       HT       0.417000       1.00800           0
     14664 TIP3     1160     TIP3     H2       HT       0.417000       1.00800           0
     14665 TIP3     1161     TIP3     OH2      OT      -0.834000       15.9994           0
     14666 TIP3     1161     TIP3     H1       HT       0.417000       1.00800           0
     14667 TIP3     1161     TIP3     H2       HT       0.417000       1.00800           0
     14668 TIP3     1162     TIP3     OH2      OT      -0.834000       15.9994           0
     14669 TIP3     1162     TIP3     H1       HT       0.417000       1.00800           0
     14670 TIP3     1162     TIP3     H2       HT       0.417000       1.00800           0
     14671 TIP3     1163     TIP3     OH2      OT      -0.834000       15.9994           0
     14672 TIP3     1163     TIP3     H1       HT       0.417000       1.00800           0
     14673 TIP3     1163     TIP3     H2       HT       0.417000       1.00800           0
     14674 TIP3     1164     TIP3     OH2      OT      -0.834000       15.9994           0
     14675 TIP3     1164     TIP3     H1       HT       0.417000       1.00800           0
     14676 TIP3     1164     TIP3     H2       HT       0.417000       1.00800           0
     14677 TIP3     1165     TIP3     OH2      OT      -0.834000       15.9994           0
     14678 TIP3     1165     TIP3     H1       HT       0.417000       1.00800           0
     14679 TIP3     1165     TIP3     H2       HT       0.417000       1.00800           0
     14680 TIP3     1166     TIP3     OH2      OT      -0.834000       15.9994           0
     14681 TIP3     1166     TIP3     H1       HT       0.417000       1.00800           0
     14682 TIP3     1166     TIP3     H2       HT       0.417000       1.00800           0
     14683 TIP3     1167     TIP3     OH2      OT      -0.834000       15.9994           0
     14684 TIP3     1167     TIP3     H1       HT       0.417000       1.00800           0
     14685 TIP3     1167     TIP3     H2       HT       0.417000       1.00800           0
     14686 TIP3     1168     TIP3     OH2      OT      -0.834000       15.9994           0
     14687 TIP3     1168     TIP3     H1       HT       0.417000       1.00800           0
     14688 TIP3     1168     TIP3     H2       HT       0.417000       1.00800           0
     14689 TIP3     1169     TIP3     OH2      OT      -0.834000       15.9994           0
     14690 TIP3     1169     TIP3     H1       HT       0.417000       1.00800           0
     14691 TIP3     1169     TIP3     H2       HT       0.417000       1.00800           0
     14692 TIP3     1170     TIP3     OH2      OT      -0.834000       15.9994           0
     14693 TIP3     1170     TIP3     H1       HT       0.417000       1.00800           0
     14694 TIP3     1170     TIP3     H2       HT       0.417000       1.00800           0
     14695 TIP3     1171     TIP3     OH2      OT      -0.834000       15.9994           0
     14696 TIP3     1171     TIP3     H1       HT       0.417000       1.00800           0
     14697 TIP3     1171     TIP3     H2       HT       0.417000       1.00800           0
     14698 TIP3     1172     TIP3     OH2      OT      -0.834000       15.9994           0
     14699 TIP3     1172     TIP3     H1       HT       0.417000       1.00800           0
     14700 TIP3     1172     TIP3     H2       HT       0.417000       1.00800           0
     14701 TIP3     1173     TIP3     OH2      OT      -0.834000       15.9994           0
     14702 TIP3     1173     TIP3     H1       HT       0.417000       1.00800           0
     14703 TIP3     1173     TIP3     H2       HT       0.417000       1.00800           0
     14704 TIP3     1174     TIP3     OH2      OT      -0.834000       15.9994           0
     14705 TIP3     1174     TIP3     H1       HT       0.417000       1.00800           0
     14706 TIP3     1174     TIP3     H2       HT       0.417000       1.00800           0
     14707 TIP3     1175     TIP3     OH2      OT      -0.834000       15.9994           0
     14708 TIP3     1175     TIP3     H1       HT       0.417000       1.00800           0
     14709 TIP3     1175     TIP3     H2       HT       0.417000       1.00800           0
     14710 TIP3     1176     TIP3     OH2      OT      -0.834000       15.9994           0
     14711 TIP3     1176     TIP3     H1       HT       0.417000       1.00800           0
     14712 TIP3     1176     TIP3     H2       HT       0.417000       1.00800           0
     14713 TIP3     1177     TIP3     OH2      OT      -0.834000       15.9994           0
     14714 TIP3     1177     TIP3     H1       HT       0.417000       1.00800           0
     14715 TIP3     1177     TIP3     H2       HT       0.417000       1.00800           0
     14716 TIP3     1178     TIP3     OH2      OT      -0.834000       15.9994           0
     14717 TIP3     1178     TIP3     H1       HT       0.417000       1.00800           0
     14718 TIP3     1178     TIP3     H2       HT       0.417000       1.00800           0
     14719 TIP3     1179     TIP3     OH2      OT      -0.834000       15.9994           0
     14720 TIP3     1179     TIP3     H1       HT       0.417000       1.00800           0
     14721 TIP3     1179     TIP3     H2       HT       0.417000       1.00800           0
     14722 TIP3     1180     TIP3     OH2      OT      -0.834000       15.9994           0
     14723 TIP3     1180     TIP3     H1       HT       0.417000       1.00800           0
     14724 TIP3     1180     TIP3     H2       HT       0.417000       1.00800           0
     14725 TIP3     1181     TIP3     OH2      OT      -0.834000       15.9994           0
     14726 TIP3     1181     TIP3     H1       HT       0.417000       1.00800           0
     14727 TIP3     1181     TIP3     H2       HT       0.417000       1.00800           0
     14728 TIP3     1182     TIP3     OH2      OT      -0.834000       15.9994           0
     14729 TIP3     1182     TIP3     H1       HT       0.417000       1.00800           0
     14730 TIP3     1182     TIP3     H2       HT       0.417000       1.00800           0
     14731 TIP3     1183     TIP3     OH2      OT      -0.834000       15.9994           0
     14732 TIP3     1183     TIP3     H1       HT       0.417000       1.00800           0
     14733 TIP3     1183     TIP3     H2       HT       0.417000       1.00800           0
     14734 TIP3     1184     TIP3     OH2      OT      -0.834000       15.9994           0
     14735 TIP3     1184     TIP3     H1       HT       0.417000       1.00800           0
     14736 TIP3     1184     TIP3     H2       HT       0.417000       1.00800           0
     14737 TIP3     1185     TIP3     OH2      OT      -0.834000       15.9994           0
     14738 TIP3     1185     TIP3     H1       HT       0.417000       1.00800           0
     14739 TIP3     1185     TIP3     H2       HT       0.417000       1.00800           0
     14740 TIP3     1186     TIP3     OH2      OT      -0.834000       15.9994           0
     14741 TIP3     1186     TIP3     H1       HT       0.417000       1.00800           0
     14742 TIP3     1186     TIP3     H2       HT       0.417000       1.00800           0
     14743 TIP3     1187     TIP3     OH2      OT      -0.834000       15.9994           0
     14744 TIP3     1187     TIP3     H1       HT       0.417000       1.00800           0
     14745 TIP3     1187     TIP3     H2       HT       0.417000       1.00800           0
     14746 TIP3     1188     TIP3     OH2      OT      -0.834000       15.9994           0
     14747 TIP3     1188     TIP3     H1       HT       0.417000       1.00800           0
     14748 TIP3     1188     TIP3     H2       HT       0.417000       1.00800           0
     14749 TIP3     1189     TIP3     OH2      OT      -0.834000       15.9994           0
     14750 TIP3     1189     TIP3     H1       HT       0.417000       1.00800           0
     14751 TIP3     1189     TIP3     H2       HT       0.417000       1.00800           0
     14752 TIP3     1190     TIP3     OH2      OT      -0.834000       15.9994           0
     14753 TIP3     1190     TIP3     H1       HT       0.417000       1.00800           0
     14754 TIP3     1190     TIP3     H2       HT       0.417000       1.00800           0
     14755 TIP3     1191     TIP3     OH2      OT      -0.834000       15.9994           0
     14756 TIP3     1191     TIP3     H1       HT       0.417000       1.00800           0
     14757 TIP3     1191     TIP3     H2       HT       0.417000       1.00800           0
     14758 TIP3     1192     TIP3     OH2      OT      -0.834000       15.9994           0
     14759 TIP3     1192     TIP3     H1       HT       0.417000       1.00800           0
     14760 TIP3     1192     TIP3     H2       HT       0.417000       1.00800           0
     14761 TIP3     1193     TIP3     OH2      OT      -0.834000       15.9994           0
     14762 TIP3     1193     TIP3     H1       HT       0.417000       1.00800           0
     14763 TIP3     1193     TIP3     H2       HT       0.417000       1.00800           0
     14764 TIP3     1194     TIP3     OH2      OT      -0.834000       15.9994           0
     14765 TIP3     1194     TIP3     H1       HT       0.417000       1.00800           0
     14766 TIP3     1194     TIP3     H2       HT       0.417000       1.00800           0
     14767 TIP3     1195     TIP3     OH2      OT      -0.834000       15.9994           0
     14768 TIP3     1195     TIP3     H1       HT       0.417000       1.00800           0
     14769 TIP3     1195     TIP3     H2       HT       0.417000       1.00800           0
     14770 TIP3     1196     TIP3     OH2      OT      -0.834000       15.9994           0
     14771 TIP3     1196     TIP3     H1       HT       0.417000       1.00800           0
     14772 TIP3     1196     TIP3     H2       HT       0.417000       1.00800           0
     14773 TIP3     1197     TIP3     OH2      OT      -0.834000       15.9994           0
     14774 TIP3     1197     TIP3     H1       HT       0.417000       1.00800           0
     14775 TIP3     1197     TIP3     H2       HT       0.417000       1.00800           0
     14776 TIP3     1198     TIP3     OH2      OT      -0.834000       15.9994           0
     14777 TIP3     1198     TIP3     H1       HT       0.417000       1.00800           0
     14778 TIP3     1198     TIP3     H2       HT       0.417000       1.00800           0
     14779 TIP3     1199     TIP3     OH2      OT      -0.834000       15.9994           0
     14780 TIP3     1199     TIP3     H1       HT       0.417000       1.00800           0
     14781 TIP3     1199     TIP3     H2       HT       0.417000       1.00800           0
     14782 TIP3     1200     TIP3     OH2      OT      -0.834000       15.9994           0
     14783 TIP3     1200     TIP3     H1       HT       0.417000       1.00800           0
     14784 TIP3     1200     TIP3     H2       HT       0.417000       1.00800           0
     14785 TIP3     1201     TIP3     OH2      OT      -0.834000       15.9994           0
     14786 TIP3     1201     TIP3     H1       HT       0.417000       1.00800           0
     14787 TIP3     1201     TIP3     H2       HT       0.417000       1.00800           0
     14788 TIP3     1202     TIP3     OH2      OT      -0.834000       15.9994           0
     14789 TIP3     1202     TIP3     H1       HT       0.417000       1.00800           0
     14790 TIP3     1202     TIP3     H2       HT       0.417000       1.00800           0
     14791 TIP3     1203     TIP3     OH2      OT      -0.834000       15.9994           0
     14792 TIP3     1203     TIP3     H1       HT       0.417000       1.00800           0
     14793 TIP3     1203     TIP3     H2       HT       0.417000       1.00800           0
     14794 TIP3     1204     TIP3     OH2      OT      -0.834000       15.9994           0
     14795 TIP3     1204     TIP3     H1       HT       0.417000       1.00800           0
     14796 TIP3     1204     TIP3     H2       HT       0.417000       1.00800           0
     14797 TIP3     1205     TIP3     OH2      OT      -0.834000       15.9994           0
     14798 TIP3     1205     TIP3     H1       HT       0.417000       1.00800           0
     14799 TIP3     1205     TIP3     H2       HT       0.417000       1.00800           0
     14800 TIP3     1206     TIP3     OH2      OT      -0.834000       15.9994           0
     14801 TIP3     1206     TIP3     H1       HT       0.417000       1.00800           0
     14802 TIP3     1206     TIP3     H2       HT       0.417000       1.00800           0
     14803 TIP3     1207     TIP3     OH2      OT      -0.834000       15.9994           0
     14804 TIP3     1207     TIP3     H1       HT       0.417000       1.00800           0
     14805 TIP3     1207     TIP3     H2       HT       0.417000       1.00800           0
     14806 TIP3     1208     TIP3     OH2      OT      -0.834000       15.9994           0
     14807 TIP3     1208     TIP3     H1       HT       0.417000       1.00800           0
     14808 TIP3     1208     TIP3     H2       HT       0.417000       1.00800           0
     14809 TIP3     1209     TIP3     OH2      OT      -0.834000       15.9994           0
     14810 TIP3     1209     TIP3     H1       HT       0.417000       1.00800           0
     14811 TIP3     1209     TIP3     H2       HT       0.417000       1.00800           0
     14812 TIP3     1210     TIP3     OH2      OT      -0.834000       15.9994           0
     14813 TIP3     1210     TIP3     H1       HT       0.417000       1.00800           0
     14814 TIP3     1210     TIP3     H2       HT       0.417000       1.00800           0
     14815 TIP3     1211     TIP3     OH2      OT      -0.834000       15.9994           0
     14816 TIP3     1211     TIP3     H1       HT       0.417000       1.00800           0
     14817 TIP3     1211     TIP3     H2       HT       0.417000       1.00800           0
     14818 TIP3     1212     TIP3     OH2      OT      -0.834000       15.9994           0
     14819 TIP3     1212     TIP3     H1       HT       0.417000       1.00800           0
     14820 TIP3     1212     TIP3     H2       HT       0.417000       1.00800           0
     14821 TIP3     1213     TIP3     OH2      OT      -0.834000       15.9994           0
     14822 TIP3     1213     TIP3     H1       HT       0.417000       1.00800           0
     14823 TIP3     1213     TIP3     H2       HT       0.417000       1.00800           0
     14824 TIP3     1214     TIP3     OH2      OT      -0.834000       15.9994           0
     14825 TIP3     1214     TIP3     H1       HT       0.417000       1.00800           0
     14826 TIP3     1214     TIP3     H2       HT       0.417000       1.00800           0
     14827 TIP3     1215     TIP3     OH2      OT      -0.834000       15.9994           0
     14828 TIP3     1215     TIP3     H1       HT       0.417000       1.00800           0
     14829 TIP3     1215     TIP3     H2       HT       0.417000       1.00800           0
     14830 TIP3     1216     TIP3     OH2      OT      -0.834000       15.9994           0
     14831 TIP3     1216     TIP3     H1       HT       0.417000       1.00800           0
     14832 TIP3     1216     TIP3     H2       HT       0.417000       1.00800           0
     14833 TIP3     1217     TIP3     OH2      OT      -0.834000       15.9994           0
     14834 TIP3     1217     TIP3     H1       HT       0.417000       1.00800           0
     14835 TIP3     1217     TIP3     H2       HT       0.417000       1.00800           0
     14836 TIP3     1218     TIP3     OH2      OT      -0.834000       15.9994           0
     14837 TIP3     1218     TIP3     H1       HT       0.417000       1.00800           0
     14838 TIP3     1218     TIP3     H2       HT       0.417000       1.00800           0
     14839 TIP3     1219     TIP3     OH2      OT      -0.834000       15.9994           0
     14840 TIP3     1219     TIP3     H1       HT       0.417000       1.00800           0
     14841 TIP3     1219     TIP3     H2       HT       0.417000       1.00800           0
     14842 TIP3     1220     TIP3     OH2      OT      -0.834000       15.9994           0
     14843 TIP3     1220     TIP3     H1       HT       0.417000       1.00800           0
     14844 TIP3     1220     TIP3     H2       HT       0.417000       1.00800           0
     14845 TIP3     1221     TIP3     OH2      OT      -0.834000       15.9994           0
     14846 TIP3     1221     TIP3     H1       HT       0.417000       1.00800           0
     14847 TIP3     1221     TIP3     H2       HT       0.417000       1.00800           0
     14848 TIP3     1222     TIP3     OH2      OT      -0.834000       15.9994           0
     14849 TIP3     1222     TIP3     H1       HT       0.417000       1.00800           0
     14850 TIP3     1222     TIP3     H2       HT       0.417000       1.00800           0
     14851 TIP3     1223     TIP3     OH2      OT      -0.834000       15.9994           0
     14852 TIP3     1223     TIP3     H1       HT       0.417000       1.00800           0
     14853 TIP3     1223     TIP3     H2       HT       0.417000       1.00800           0
     14854 TIP3     1224     TIP3     OH2      OT      -0.834000       15.9994           0
     14855 TIP3     1224     TIP3     H1       HT       0.417000       1.00800           0
     14856 TIP3     1224     TIP3     H2       HT       0.417000       1.00800           0
     14857 TIP3     1225     TIP3     OH2      OT      -0.834000       15.9994           0
     14858 TIP3     1225     TIP3     H1       HT       0.417000       1.00800           0
     14859 TIP3     1225     TIP3     H2       HT       0.417000       1.00800           0
     14860 TIP3     1226     TIP3     OH2      OT      -0.834000       15.9994           0
     14861 TIP3     1226     TIP3     H1       HT       0.417000       1.00800           0
     14862 TIP3     1226     TIP3     H2       HT       0.417000       1.00800           0
     14863 TIP3     1227     TIP3     OH2      OT      -0.834000       15.9994           0
     14864 TIP3     1227     TIP3     H1       HT       0.417000       1.00800           0
     14865 TIP3     1227     TIP3     H2       HT       0.417000       1.00800           0
     14866 TIP3     1228     TIP3     OH2      OT      -0.834000       15.9994           0
     14867 TIP3     1228     TIP3     H1       HT       0.417000       1.00800           0
     14868 TIP3     1228     TIP3     H2       HT       0.417000       1.00800           0
     14869 TIP3     1229     TIP3     OH2      OT      -0.834000       15.9994           0
     14870 TIP3     1229     TIP3     H1       HT       0.417000       1.00800           0
     14871 TIP3     1229     TIP3     H2       HT       0.417000       1.00800           0
     14872 TIP3     1230     TIP3     OH2      OT      -0.834000       15.9994           0
     14873 TIP3     1230     TIP3     H1       HT       0.417000       1.00800           0
     14874 TIP3     1230     TIP3     H2       HT       0.417000       1.00800           0
     14875 TIP3     1231     TIP3     OH2      OT      -0.834000       15.9994           0
     14876 TIP3     1231     TIP3     H1       HT       0.417000       1.00800           0
     14877 TIP3     1231     TIP3     H2       HT       0.417000       1.00800           0
     14878 TIP3     1232     TIP3     OH2      OT      -0.834000       15.9994           0
     14879 TIP3     1232     TIP3     H1       HT       0.417000       1.00800           0
     14880 TIP3     1232     TIP3     H2       HT       0.417000       1.00800           0
     14881 TIP3     1233     TIP3     OH2      OT      -0.834000       15.9994           0
     14882 TIP3     1233     TIP3     H1       HT       0.417000       1.00800           0
     14883 TIP3     1233     TIP3     H2       HT       0.417000       1.00800           0
     14884 TIP3     1234     TIP3     OH2      OT      -0.834000       15.9994           0
     14885 TIP3     1234     TIP3     H1       HT       0.417000       1.00800           0
     14886 TIP3     1234     TIP3     H2       HT       0.417000       1.00800           0
     14887 TIP3     1235     TIP3     OH2      OT      -0.834000       15.9994           0
     14888 TIP3     1235     TIP3     H1       HT       0.417000       1.00800           0
     14889 TIP3     1235     TIP3     H2       HT       0.417000       1.00800           0
     14890 TIP3     1236     TIP3     OH2      OT      -0.834000       15.9994           0
     14891 TIP3     1236     TIP3     H1       HT       0.417000       1.00800           0
     14892 TIP3     1236     TIP3     H2       HT       0.417000       1.00800           0
     14893 TIP3     1237     TIP3     OH2      OT      -0.834000       15.9994           0
     14894 TIP3     1237     TIP3     H1       HT       0.417000       1.00800           0
     14895 TIP3     1237     TIP3     H2       HT       0.417000       1.00800           0
     14896 TIP3     1238     TIP3     OH2      OT      -0.834000       15.9994           0
     14897 TIP3     1238     TIP3     H1       HT       0.417000       1.00800           0
     14898 TIP3     1238     TIP3     H2       HT       0.417000       1.00800           0
     14899 TIP3     1239     TIP3     OH2      OT      -0.834000       15.9994           0
     14900 TIP3     1239     TIP3     H1       HT       0.417000       1.00800           0
     14901 TIP3     1239     TIP3     H2       HT       0.417000       1.00800           0
     14902 TIP3     1240     TIP3     OH2      OT      -0.834000       15.9994           0
     14903 TIP3     1240     TIP3     H1       HT       0.417000       1.00800           0
     14904 TIP3     1240     TIP3     H2       HT       0.417000       1.00800           0
     14905 TIP3     1241     TIP3     OH2      OT      -0.834000       15.9994           0
     14906 TIP3     1241     TIP3     H1       HT       0.417000       1.00800           0
     14907 TIP3     1241     TIP3     H2       HT       0.417000       1.00800           0
     14908 TIP3     1242     TIP3     OH2      OT      -0.834000       15.9994           0
     14909 TIP3     1242     TIP3     H1       HT       0.417000       1.00800           0
     14910 TIP3     1242     TIP3     H2       HT       0.417000       1.00800           0
     14911 TIP3     1243     TIP3     OH2      OT      -0.834000       15.9994           0
     14912 TIP3     1243     TIP3     H1       HT       0.417000       1.00800           0
     14913 TIP3     1243     TIP3     H2       HT       0.417000       1.00800           0
     14914 TIP3     1244     TIP3     OH2      OT      -0.834000       15.9994           0
     14915 TIP3     1244     TIP3     H1       HT       0.417000       1.00800           0
     14916 TIP3     1244     TIP3     H2       HT       0.417000       1.00800           0
     14917 TIP3     1245     TIP3     OH2      OT      -0.834000       15.9994           0
     14918 TIP3     1245     TIP3     H1       HT       0.417000       1.00800           0
     14919 TIP3     1245     TIP3     H2       HT       0.417000       1.00800           0
     14920 TIP3     1246     TIP3     OH2      OT      -0.834000       15.9994           0
     14921 TIP3     1246     TIP3     H1       HT       0.417000       1.00800           0
     14922 TIP3     1246     TIP3     H2       HT       0.417000       1.00800           0
     14923 TIP3     1247     TIP3     OH2      OT      -0.834000       15.9994           0
     14924 TIP3     1247     TIP3     H1       HT       0.417000       1.00800           0
     14925 TIP3     1247     TIP3     H2       HT       0.417000       1.00800           0
     14926 TIP3     1248     TIP3     OH2      OT      -0.834000       15.9994           0
     14927 TIP3     1248     TIP3     H1       HT       0.417000       1.00800           0
     14928 TIP3     1248     TIP3     H2       HT       0.417000       1.00800           0
     14929 TIP3     1249     TIP3     OH2      OT      -0.834000       15.9994           0
     14930 TIP3     1249     TIP3     H1       HT       0.417000       1.00800           0
     14931 TIP3     1249     TIP3     H2       HT       0.417000       1.00800           0
     14932 TIP3     1250     TIP3     OH2      OT      -0.834000       15.9994           0
     14933 TIP3     1250     TIP3     H1       HT       0.417000       1.00800           0
     14934 TIP3     1250     TIP3     H2       HT       0.417000       1.00800           0
     14935 TIP3     1251     TIP3     OH2      OT      -0.834000       15.9994           0
     14936 TIP3     1251     TIP3     H1       HT       0.417000       1.00800           0
     14937 TIP3     1251     TIP3     H2       HT       0.417000       1.00800           0
     14938 TIP3     1252     TIP3     OH2      OT      -0.834000       15.9994           0
     14939 TIP3     1252     TIP3     H1       HT       0.417000       1.00800           0
     14940 TIP3     1252     TIP3     H2       HT       0.417000       1.00800           0
     14941 TIP3     1253     TIP3     OH2      OT      -0.834000       15.9994           0
     14942 TIP3     1253     TIP3     H1       HT       0.417000       1.00800           0
     14943 TIP3     1253     TIP3     H2       HT       0.417000       1.00800           0
     14944 TIP3     1254     TIP3     OH2      OT      -0.834000       15.9994           0
     14945 TIP3     1254     TIP3     H1       HT       0.417000       1.00800           0
     14946 TIP3     1254     TIP3     H2       HT       0.417000       1.00800           0
     14947 TIP3     1255     TIP3     OH2      OT      -0.834000       15.9994           0
     14948 TIP3     1255     TIP3     H1       HT       0.417000       1.00800           0
     14949 TIP3     1255     TIP3     H2       HT       0.417000       1.00800           0
     14950 TIP3     1256     TIP3     OH2      OT      -0.834000       15.9994           0
     14951 TIP3     1256     TIP3     H1       HT       0.417000       1.00800           0
     14952 TIP3     1256     TIP3     H2       HT       0.417000       1.00800           0
     14953 TIP3     1257     TIP3     OH2      OT      -0.834000       15.9994           0
     14954 TIP3     1257     TIP3     H1       HT       0.417000       1.00800           0
     14955 TIP3     1257     TIP3     H2       HT       0.417000       1.00800           0
     14956 TIP3     1258     TIP3     OH2      OT      -0.834000       15.9994           0
     14957 TIP3     1258     TIP3     H1       HT       0.417000       1.00800           0
     14958 TIP3     1258     TIP3     H2       HT       0.417000       1.00800           0
     14959 TIP3     1259     TIP3     OH2      OT      -0.834000       15.9994           0
     14960 TIP3     1259     TIP3     H1       HT       0.417000       1.00800           0
     14961 TIP3     1259     TIP3     H2       HT       0.417000       1.00800           0
     14962 TIP3     1260     TIP3     OH2      OT      -0.834000       15.9994           0
     14963 TIP3     1260     TIP3     H1       HT       0.417000       1.00800           0
     14964 TIP3     1260     TIP3     H2       HT       0.417000       1.00800           0
     14965 TIP3     1261     TIP3     OH2      OT      -0.834000       15.9994           0
     14966 TIP3     1261     TIP3     H1       HT       0.417000       1.00800           0
     14967 TIP3     1261     TIP3     H2       HT       0.417000       1.00800           0
     14968 TIP3     1262     TIP3     OH2      OT      -0.834000       15.9994           0
     14969 TIP3     1262     TIP3     H1       HT       0.417000       1.00800           0
     14970 TIP3     1262     TIP3     H2       HT       0.417000       1.00800           0
     14971 TIP3     1263     TIP3     OH2      OT      -0.834000       15.9994           0
     14972 TIP3     1263     TIP3     H1       HT       0.417000       1.00800           0
     14973 TIP3     1263     TIP3     H2       HT       0.417000       1.00800           0
     14974 TIP3     1264     TIP3     OH2      OT      -0.834000       15.9994           0
     14975 TIP3     1264     TIP3     H1       HT       0.417000       1.00800           0
     14976 TIP3     1264     TIP3     H2       HT       0.417000       1.00800           0
     14977 TIP3     1265     TIP3     OH2      OT      -0.834000       15.9994           0
     14978 TIP3     1265     TIP3     H1       HT       0.417000       1.00800           0
     14979 TIP3     1265     TIP3     H2       HT       0.417000       1.00800           0
     14980 TIP3     1266     TIP3     OH2      OT      -0.834000       15.9994           0
     14981 TIP3     1266     TIP3     H1       HT       0.417000       1.00800           0
     14982 TIP3     1266     TIP3     H2       HT       0.417000       1.00800           0
     14983 TIP3     1267     TIP3     OH2      OT      -0.834000       15.9994           0
     14984 TIP3     1267     TIP3     H1       HT       0.417000       1.00800           0
     14985 TIP3     1267     TIP3     H2       HT       0.417000       1.00800           0
     14986 TIP3     1268     TIP3     OH2      OT      -0.834000       15.9994           0
     14987 TIP3     1268     TIP3     H1       HT       0.417000       1.00800           0
     14988 TIP3     1268     TIP3     H2       HT       0.417000       1.00800           0
     14989 TIP3     1269     TIP3     OH2      OT      -0.834000       15.9994           0
     14990 TIP3     1269     TIP3     H1       HT       0.417000       1.00800           0
     14991 TIP3     1269     TIP3     H2       HT       0.417000       1.00800           0
     14992 TIP3     1270     TIP3     OH2      OT      -0.834000       15.9994           0
     14993 TIP3     1270     TIP3     H1       HT       0.417000       1.00800           0
     14994 TIP3     1270     TIP3     H2       HT       0.417000       1.00800           0
     14995 TIP3     1271     TIP3     OH2      OT      -0.834000       15.9994           0
     14996 TIP3     1271     TIP3     H1       HT       0.417000       1.00800           0
     14997 TIP3     1271     TIP3     H2       HT       0.417000       1.00800           0
     14998 TIP3     1272     TIP3     OH2      OT      -0.834000       15.9994           0
     14999 TIP3     1272     TIP3     H1       HT       0.417000       1.00800           0
     15000 TIP3     1272     TIP3     H2       HT       0.417000       1.00800           0
     15001 TIP3     1273     TIP3     OH2      OT      -0.834000       15.9994           0
     15002 TIP3     1273     TIP3     H1       HT       0.417000       1.00800           0
     15003 TIP3     1273     TIP3     H2       HT       0.417000       1.00800           0
     15004 TIP3     1274     TIP3     OH2      OT      -0.834000       15.9994           0
     15005 TIP3     1274     TIP3     H1       HT       0.417000       1.00800           0
     15006 TIP3     1274     TIP3     H2       HT       0.417000       1.00800           0
     15007 TIP3     1275     TIP3     OH2      OT      -0.834000       15.9994           0
     15008 TIP3     1275     TIP3     H1       HT       0.417000       1.00800           0
     15009 TIP3     1275     TIP3     H2       HT       0.417000       1.00800           0
     15010 TIP3     1276     TIP3     OH2      OT      -0.834000       15.9994           0
     15011 TIP3     1276     TIP3     H1       HT       0.417000       1.00800           0
     15012 TIP3     1276     TIP3     H2       HT       0.417000       1.00800           0
     15013 TIP3     1277     TIP3     OH2      OT      -0.834000       15.9994           0
     15014 TIP3     1277     TIP3     H1       HT       0.417000       1.00800           0
     15015 TIP3     1277     TIP3     H2       HT       0.417000       1.00800           0
     15016 TIP3     1278     TIP3     OH2      OT      -0.834000       15.9994           0
     15017 TIP3     1278     TIP3     H1       HT       0.417000       1.00800           0
     15018 TIP3     1278     TIP3     H2       HT       0.417000       1.00800           0
     15019 TIP3     1279     TIP3     OH2      OT      -0.834000       15.9994           0
     15020 TIP3     1279     TIP3     H1       HT       0.417000       1.00800           0
     15021 TIP3     1279     TIP3     H2       HT       0.417000       1.00800           0
     15022 TIP3     1280     TIP3     OH2      OT      -0.834000       15.9994           0
     15023 TIP3     1280     TIP3     H1       HT       0.417000       1.00800           0
     15024 TIP3     1280     TIP3     H2       HT       0.417000       1.00800           0
     15025 TIP3     1281     TIP3     OH2      OT      -0.834000       15.9994           0
     15026 TIP3     1281     TIP3     H1       HT       0.417000       1.00800           0
     15027 TIP3     1281     TIP3     H2       HT       0.417000       1.00800           0
     15028 TIP3     1282     TIP3     OH2      OT      -0.834000       15.9994           0
     15029 TIP3     1282     TIP3     H1       HT       0.417000       1.00800           0
     15030 TIP3     1282     TIP3     H2       HT       0.417000       1.00800           0
     15031 TIP3     1283     TIP3     OH2      OT      -0.834000       15.9994           0
     15032 TIP3     1283     TIP3     H1       HT       0.417000       1.00800           0
     15033 TIP3     1283     TIP3     H2       HT       0.417000       1.00800           0
     15034 TIP3     1284     TIP3     OH2      OT      -0.834000       15.9994           0
     15035 TIP3     1284     TIP3     H1       HT       0.417000       1.00800           0
     15036 TIP3     1284     TIP3     H2       HT       0.417000       1.00800           0
     15037 TIP3     1285     TIP3     OH2      OT      -0.834000       15.9994           0
     15038 TIP3     1285     TIP3     H1       HT       0.417000       1.00800           0
     15039 TIP3     1285     TIP3     H2       HT       0.417000       1.00800           0
     15040 TIP3     1286     TIP3     OH2      OT      -0.834000       15.9994           0
     15041 TIP3     1286     TIP3     H1       HT       0.417000       1.00800           0
     15042 TIP3     1286     TIP3     H2       HT       0.417000       1.00800           0
     15043 TIP3     1287     TIP3     OH2      OT      -0.834000       15.9994           0
     15044 TIP3     1287     TIP3     H1       HT       0.417000       1.00800           0
     15045 TIP3     1287     TIP3     H2       HT       0.417000       1.00800           0
     15046 TIP3     1288     TIP3     OH2      OT      -0.834000       15.9994           0
     15047 TIP3     1288     TIP3     H1       HT       0.417000       1.00800           0
     15048 TIP3     1288     TIP3     H2       HT       0.417000       1.00800           0
     15049 TIP3     1289     TIP3     OH2      OT      -0.834000       15.9994           0
     15050 TIP3     1289     TIP3     H1       HT       0.417000       1.00800           0
     15051 TIP3     1289     TIP3     H2       HT       0.417000       1.00800           0
     15052 TIP3     1290     TIP3     OH2      OT      -0.834000       15.9994           0
     15053 TIP3     1290     TIP3     H1       HT       0.417000       1.00800           0
     15054 TIP3     1290     TIP3     H2       HT       0.417000       1.00800           0
     15055 TIP3     1291     TIP3     OH2      OT      -0.834000       15.9994           0
     15056 TIP3     1291     TIP3     H1       HT       0.417000       1.00800           0
     15057 TIP3     1291     TIP3     H2       HT       0.417000       1.00800           0
     15058 TIP3     1292     TIP3     OH2      OT      -0.834000       15.9994           0
     15059 TIP3     1292     TIP3     H1       HT       0.417000       1.00800           0
     15060 TIP3     1292     TIP3     H2       HT       0.417000       1.00800           0
     15061 TIP3     1293     TIP3     OH2      OT      -0.834000       15.9994           0
     15062 TIP3     1293     TIP3     H1       HT       0.417000       1.00800           0
     15063 TIP3     1293     TIP3     H2       HT       0.417000       1.00800           0
     15064 TIP3     1294     TIP3     OH2      OT      -0.834000       15.9994           0
     15065 TIP3     1294     TIP3     H1       HT       0.417000       1.00800           0
     15066 TIP3     1294     TIP3     H2       HT       0.417000       1.00800           0
     15067 TIP3     1295     TIP3     OH2      OT      -0.834000       15.9994           0
     15068 TIP3     1295     TIP3     H1       HT       0.417000       1.00800           0
     15069 TIP3     1295     TIP3     H2       HT       0.417000       1.00800           0
     15070 TIP3     1296     TIP3     OH2      OT      -0.834000       15.9994           0
     15071 TIP3     1296     TIP3     H1       HT       0.417000       1.00800           0
     15072 TIP3     1296     TIP3     H2       HT       0.417000       1.00800           0
     15073 TIP3     1297     TIP3     OH2      OT      -0.834000       15.9994           0
     15074 TIP3     1297     TIP3     H1       HT       0.417000       1.00800           0
     15075 TIP3     1297     TIP3     H2       HT       0.417000       1.00800           0
     15076 TIP3     1298     TIP3     OH2      OT      -0.834000       15.9994           0
     15077 TIP3     1298     TIP3     H1       HT       0.417000       1.00800           0
     15078 TIP3     1298     TIP3     H2       HT       0.417000       1.00800           0
     15079 TIP3     1299     TIP3     OH2      OT      -0.834000       15.9994           0
     15080 TIP3     1299     TIP3     H1       HT       0.417000       1.00800           0
     15081 TIP3     1299     TIP3     H2       HT       0.417000       1.00800           0
     15082 TIP3     1300     TIP3     OH2      OT      -0.834000       15.9994           0
     15083 TIP3     1300     TIP3     H1       HT       0.417000       1.00800           0
     15084 TIP3     1300     TIP3     H2       HT       0.417000       1.00800           0
     15085 TIP3     1301     TIP3     OH2      OT      -0.834000       15.9994           0
     15086 TIP3     1301     TIP3     H1       HT       0.417000       1.00800           0
     15087 TIP3     1301     TIP3     H2       HT       0.417000       1.00800           0
     15088 TIP3     1302     TIP3     OH2      OT      -0.834000       15.9994           0
     15089 TIP3     1302     TIP3     H1       HT       0.417000       1.00800           0
     15090 TIP3     1302     TIP3     H2       HT       0.417000       1.00800           0
     15091 TIP3     1303     TIP3     OH2      OT      -0.834000       15.9994           0
     15092 TIP3     1303     TIP3     H1       HT       0.417000       1.00800           0
     15093 TIP3     1303     TIP3     H2       HT       0.417000       1.00800           0
     15094 TIP3     1304     TIP3     OH2      OT      -0.834000       15.9994           0
     15095 TIP3     1304     TIP3     H1       HT       0.417000       1.00800           0
     15096 TIP3     1304     TIP3     H2       HT       0.417000       1.00800           0
     15097 TIP3     1305     TIP3     OH2      OT      -0.834000       15.9994           0
     15098 TIP3     1305     TIP3     H1       HT       0.417000       1.00800           0
     15099 TIP3     1305     TIP3     H2       HT       0.417000       1.00800           0
     15100 TIP3     1306     TIP3     OH2      OT      -0.834000       15.9994           0
     15101 TIP3     1306     TIP3     H1       HT       0.417000       1.00800           0
     15102 TIP3     1306     TIP3     H2       HT       0.417000       1.00800           0
     15103 TIP3     1307     TIP3     OH2      OT      -0.834000       15.9994           0
     15104 TIP3     1307     TIP3     H1       HT       0.417000       1.00800           0
     15105 TIP3     1307     TIP3     H2       HT       0.417000       1.00800           0
     15106 TIP3     1308     TIP3     OH2      OT      -0.834000       15.9994           0
     15107 TIP3     1308     TIP3     H1       HT       0.417000       1.00800           0
     15108 TIP3     1308     TIP3     H2       HT       0.417000       1.00800           0
     15109 TIP3     1309     TIP3     OH2      OT      -0.834000       15.9994           0
     15110 TIP3     1309     TIP3     H1       HT       0.417000       1.00800           0
     15111 TIP3     1309     TIP3     H2       HT       0.417000       1.00800           0
     15112 TIP3     1310     TIP3     OH2      OT      -0.834000       15.9994           0
     15113 TIP3     1310     TIP3     H1       HT       0.417000       1.00800           0
     15114 TIP3     1310     TIP3     H2       HT       0.417000       1.00800           0
     15115 TIP3     1311     TIP3     OH2      OT      -0.834000       15.9994           0
     15116 TIP3     1311     TIP3     H1       HT       0.417000       1.00800           0
     15117 TIP3     1311     TIP3     H2       HT       0.417000       1.00800           0
     15118 TIP3     1312     TIP3     OH2      OT      -0.834000       15.9994           0
     15119 TIP3     1312     TIP3     H1       HT       0.417000       1.00800           0
     15120 TIP3     1312     TIP3     H2       HT       0.417000       1.00800           0
     15121 TIP3     1313     TIP3     OH2      OT      -0.834000       15.9994           0
     15122 TIP3     1313     TIP3     H1       HT       0.417000       1.00800           0
     15123 TIP3     1313     TIP3     H2       HT       0.417000       1.00800           0
     15124 TIP3     1314     TIP3     OH2      OT      -0.834000       15.9994           0
     15125 TIP3     1314     TIP3     H1       HT       0.417000       1.00800           0
     15126 TIP3     1314     TIP3     H2       HT       0.417000       1.00800           0
     15127 TIP3     1315     TIP3     OH2      OT      -0.834000       15.9994           0
     15128 TIP3     1315     TIP3     H1       HT       0.417000       1.00800           0
     15129 TIP3     1315     TIP3     H2       HT       0.417000       1.00800           0
     15130 TIP3     1316     TIP3     OH2      OT      -0.834000       15.9994           0
     15131 TIP3     1316     TIP3     H1       HT       0.417000       1.00800           0
     15132 TIP3     1316     TIP3     H2       HT       0.417000       1.00800           0
     15133 TIP3     1317     TIP3     OH2      OT      -0.834000       15.9994           0
     15134 TIP3     1317     TIP3     H1       HT       0.417000       1.00800           0
     15135 TIP3     1317     TIP3     H2       HT       0.417000       1.00800           0
     15136 TIP3     1318     TIP3     OH2      OT      -0.834000       15.9994           0
     15137 TIP3     1318     TIP3     H1       HT       0.417000       1.00800           0
     15138 TIP3     1318     TIP3     H2       HT       0.417000       1.00800           0
     15139 TIP3     1319     TIP3     OH2      OT      -0.834000       15.9994           0
     15140 TIP3     1319     TIP3     H1       HT       0.417000       1.00800           0
     15141 TIP3     1319     TIP3     H2       HT       0.417000       1.00800           0
     15142 TIP3     1320     TIP3     OH2      OT      -0.834000       15.9994           0
     15143 TIP3     1320     TIP3     H1       HT       0.417000       1.00800           0
     15144 TIP3     1320     TIP3     H2       HT       0.417000       1.00800           0
     15145 TIP3     1321     TIP3     OH2      OT      -0.834000       15.9994           0
     15146 TIP3     1321     TIP3     H1       HT       0.417000       1.00800           0
     15147 TIP3     1321     TIP3     H2       HT       0.417000       1.00800           0
     15148 TIP3     1322     TIP3     OH2      OT      -0.834000       15.9994           0
     15149 TIP3     1322     TIP3     H1       HT       0.417000       1.00800           0
     15150 TIP3     1322     TIP3     H2       HT       0.417000       1.00800           0
     15151 TIP3     1323     TIP3     OH2      OT      -0.834000       15.9994           0
     15152 TIP3     1323     TIP3     H1       HT       0.417000       1.00800           0
     15153 TIP3     1323     TIP3     H2       HT       0.417000       1.00800           0
     15154 TIP3     1324     TIP3     OH2      OT      -0.834000       15.9994           0
     15155 TIP3     1324     TIP3     H1       HT       0.417000       1.00800           0
     15156 TIP3     1324     TIP3     H2       HT       0.417000       1.00800           0
     15157 TIP3     1325     TIP3     OH2      OT      -0.834000       15.9994           0
     15158 TIP3     1325     TIP3     H1       HT       0.417000       1.00800           0
     15159 TIP3     1325     TIP3     H2       HT       0.417000       1.00800           0
     15160 TIP3     1326     TIP3     OH2      OT      -0.834000       15.9994           0
     15161 TIP3     1326     TIP3     H1       HT       0.417000       1.00800           0
     15162 TIP3     1326     TIP3     H2       HT       0.417000       1.00800           0
     15163 TIP3     1327     TIP3     OH2      OT      -0.834000       15.9994           0
     15164 TIP3     1327     TIP3     H1       HT       0.417000       1.00800           0
     15165 TIP3     1327     TIP3     H2       HT       0.417000       1.00800           0
     15166 TIP3     1328     TIP3     OH2      OT      -0.834000       15.9994           0
     15167 TIP3     1328     TIP3     H1       HT       0.417000       1.00800           0
     15168 TIP3     1328     TIP3     H2       HT       0.417000       1.00800           0
     15169 TIP3     1329     TIP3     OH2      OT      -0.834000       15.9994           0
     15170 TIP3     1329     TIP3     H1       HT       0.417000       1.00800           0
     15171 TIP3     1329     TIP3     H2       HT       0.417000       1.00800           0
     15172 TIP3     1330     TIP3     OH2      OT      -0.834000       15.9994           0
     15173 TIP3     1330     TIP3     H1       HT       0.417000       1.00800           0
     15174 TIP3     1330     TIP3     H2       HT       0.417000       1.00800           0
     15175 TIP3     1331     TIP3     OH2      OT      -0.834000       15.9994           0
     15176 TIP3     1331     TIP3     H1       HT       0.417000       1.00800           0
     15177 TIP3     1331     TIP3     H2       HT       0.417000       1.00800           0
     15178 TIP3     1332     TIP3     OH2      OT      -0.834000       15.9994           0
     15179 TIP3     1332     TIP3     H1       HT       0.417000       1.00800           0
     15180 TIP3     1332     TIP3     H2       HT       0.417000       1.00800           0
     15181 TIP3     1333     TIP3     OH2      OT      -0.834000       15.9994           0
     15182 TIP3     1333     TIP3     H1       HT       0.417000       1.00800           0
     15183 TIP3     1333     TIP3     H2       HT       0.417000       1.00800           0
     15184 TIP3     1334     TIP3     OH2      OT      -0.834000       15.9994           0
     15185 TIP3     1334     TIP3     H1       HT       0.417000       1.00800           0
     15186 TIP3     1334     TIP3     H2       HT       0.417000       1.00800           0
     15187 TIP3     1335     TIP3     OH2      OT      -0.834000       15.9994           0
     15188 TIP3     1335     TIP3     H1       HT       0.417000       1.00800           0
     15189 TIP3     1335     TIP3     H2       HT       0.417000       1.00800           0
     15190 TIP3     1336     TIP3     OH2      OT      -0.834000       15.9994           0
     15191 TIP3     1336     TIP3     H1       HT       0.417000       1.00800           0
     15192 TIP3     1336     TIP3     H2       HT       0.417000       1.00800           0
     15193 TIP3     1337     TIP3     OH2      OT      -0.834000       15.9994           0
     15194 TIP3     1337     TIP3     H1       HT       0.417000       1.00800           0
     15195 TIP3     1337     TIP3     H2       HT       0.417000       1.00800           0
     15196 TIP3     1338     TIP3     OH2      OT      -0.834000       15.9994           0
     15197 TIP3     1338     TIP3     H1       HT       0.417000       1.00800           0
     15198 TIP3     1338     TIP3     H2       HT       0.417000       1.00800           0
     15199 TIP3     1339     TIP3     OH2      OT      -0.834000       15.9994           0
     15200 TIP3     1339     TIP3     H1       HT       0.417000       1.00800           0
     15201 TIP3     1339     TIP3     H2       HT       0.417000       1.00800           0
     15202 TIP3     1340     TIP3     OH2      OT      -0.834000       15.9994           0
     15203 TIP3     1340     TIP3     H1       HT       0.417000       1.00800           0
     15204 TIP3     1340     TIP3     H2       HT       0.417000       1.00800           0
     15205 TIP3     1341     TIP3     OH2      OT      -0.834000       15.9994           0
     15206 TIP3     1341     TIP3     H1       HT       0.417000       1.00800           0
     15207 TIP3     1341     TIP3     H2       HT       0.417000       1.00800           0
     15208 TIP3     1342     TIP3     OH2      OT      -0.834000       15.9994           0
     15209 TIP3     1342     TIP3     H1       HT       0.417000       1.00800           0
     15210 TIP3     1342     TIP3     H2       HT       0.417000       1.00800           0
     15211 TIP3     1343     TIP3     OH2      OT      -0.834000       15.9994           0
     15212 TIP3     1343     TIP3     H1       HT       0.417000       1.00800           0
     15213 TIP3     1343     TIP3     H2       HT       0.417000       1.00800           0
     15214 TIP3     1344     TIP3     OH2      OT      -0.834000       15.9994           0
     15215 TIP3     1344     TIP3     H1       HT       0.417000       1.00800           0
     15216 TIP3     1344     TIP3     H2       HT       0.417000       1.00800           0
     15217 TIP3     1345     TIP3     OH2      OT      -0.834000       15.9994           0
     15218 TIP3     1345     TIP3     H1       HT       0.417000       1.00800           0
     15219 TIP3     1345     TIP3     H2       HT       0.417000       1.00800           0
     15220 TIP3     1346     TIP3     OH2      OT      -0.834000       15.9994           0
     15221 TIP3     1346     TIP3     H1       HT       0.417000       1.00800           0
     15222 TIP3     1346     TIP3     H2       HT       0.417000       1.00800           0
     15223 TIP3     1347     TIP3     OH2      OT      -0.834000       15.9994           0
     15224 TIP3     1347     TIP3     H1       HT       0.417000       1.00800           0
     15225 TIP3     1347     TIP3     H2       HT       0.417000       1.00800           0
     15226 TIP3     1348     TIP3     OH2      OT      -0.834000       15.9994           0
     15227 TIP3     1348     TIP3     H1       HT       0.417000       1.00800           0
     15228 TIP3     1348     TIP3     H2       HT       0.417000       1.00800           0
     15229 TIP3     1349     TIP3     OH2      OT      -0.834000       15.9994           0
     15230 TIP3     1349     TIP3     H1       HT       0.417000       1.00800           0
     15231 TIP3     1349     TIP3     H2       HT       0.417000       1.00800           0
     15232 TIP3     1350     TIP3     OH2      OT      -0.834000       15.9994           0
     15233 TIP3     1350     TIP3     H1       HT       0.417000       1.00800           0
     15234 TIP3     1350     TIP3     H2       HT       0.417000       1.00800           0
     15235 TIP3     1351     TIP3     OH2      OT      -0.834000       15.9994           0
     15236 TIP3     1351     TIP3     H1       HT       0.417000       1.00800           0
     15237 TIP3     1351     TIP3     H2       HT       0.417000       1.00800           0
     15238 TIP3     1352     TIP3     OH2      OT      -0.834000       15.9994           0
     15239 TIP3     1352     TIP3     H1       HT       0.417000       1.00800           0
     15240 TIP3     1352     TIP3     H2       HT       0.417000       1.00800           0
     15241 TIP3     1353     TIP3     OH2      OT      -0.834000       15.9994           0
     15242 TIP3     1353     TIP3     H1       HT       0.417000       1.00800           0
     15243 TIP3     1353     TIP3     H2       HT       0.417000       1.00800           0
     15244 TIP3     1354     TIP3     OH2      OT      -0.834000       15.9994           0
     15245 TIP3     1354     TIP3     H1       HT       0.417000       1.00800           0
     15246 TIP3     1354     TIP3     H2       HT       0.417000       1.00800           0
     15247 TIP3     1355     TIP3     OH2      OT      -0.834000       15.9994           0
     15248 TIP3     1355     TIP3     H1       HT       0.417000       1.00800           0
     15249 TIP3     1355     TIP3     H2       HT       0.417000       1.00800           0
     15250 TIP3     1356     TIP3     OH2      OT      -0.834000       15.9994           0
     15251 TIP3     1356     TIP3     H1       HT       0.417000       1.00800           0
     15252 TIP3     1356     TIP3     H2       HT       0.417000       1.00800           0
     15253 TIP3     1357     TIP3     OH2      OT      -0.834000       15.9994           0
     15254 TIP3     1357     TIP3     H1       HT       0.417000       1.00800           0
     15255 TIP3     1357     TIP3     H2       HT       0.417000       1.00800           0
     15256 TIP3     1358     TIP3     OH2      OT      -0.834000       15.9994           0
     15257 TIP3     1358     TIP3     H1       HT       0.417000       1.00800           0
     15258 TIP3     1358     TIP3     H2       HT       0.417000       1.00800           0
     15259 TIP3     1359     TIP3     OH2      OT      -0.834000       15.9994           0
     15260 TIP3     1359     TIP3     H1       HT       0.417000       1.00800           0
     15261 TIP3     1359     TIP3     H2       HT       0.417000       1.00800           0
     15262 TIP3     1360     TIP3     OH2      OT      -0.834000       15.9994           0
     15263 TIP3     1360     TIP3     H1       HT       0.417000       1.00800           0
     15264 TIP3     1360     TIP3     H2       HT       0.417000       1.00800           0
     15265 TIP3     1361     TIP3     OH2      OT      -0.834000       15.9994           0
     15266 TIP3     1361     TIP3     H1       HT       0.417000       1.00800           0
     15267 TIP3     1361     TIP3     H2       HT       0.417000       1.00800           0
     15268 TIP3     1362     TIP3     OH2      OT      -0.834000       15.9994           0
     15269 TIP3     1362     TIP3     H1       HT       0.417000       1.00800           0
     15270 TIP3     1362     TIP3     H2       HT       0.417000       1.00800           0
     15271 TIP3     1363     TIP3     OH2      OT      -0.834000       15.9994           0
     15272 TIP3     1363     TIP3     H1       HT       0.417000       1.00800           0
     15273 TIP3     1363     TIP3     H2       HT       0.417000       1.00800           0
     15274 TIP3     1364     TIP3     OH2      OT      -0.834000       15.9994           0
     15275 TIP3     1364     TIP3     H1       HT       0.417000       1.00800           0
     15276 TIP3     1364     TIP3     H2       HT       0.417000       1.00800           0
     15277 TIP3     1365     TIP3     OH2      OT      -0.834000       15.9994           0
     15278 TIP3     1365     TIP3     H1       HT       0.417000       1.00800           0
     15279 TIP3     1365     TIP3     H2       HT       0.417000       1.00800           0
     15280 TIP3     1366     TIP3     OH2      OT      -0.834000       15.9994           0
     15281 TIP3     1366     TIP3     H1       HT       0.417000       1.00800           0
     15282 TIP3     1366     TIP3     H2       HT       0.417000       1.00800           0
     15283 TIP3     1367     TIP3     OH2      OT      -0.834000       15.9994           0
     15284 TIP3     1367     TIP3     H1       HT       0.417000       1.00800           0
     15285 TIP3     1367     TIP3     H2       HT       0.417000       1.00800           0
     15286 TIP3     1368     TIP3     OH2      OT      -0.834000       15.9994           0
     15287 TIP3     1368     TIP3     H1       HT       0.417000       1.00800           0
     15288 TIP3     1368     TIP3     H2       HT       0.417000       1.00800           0
     15289 TIP3     1369     TIP3     OH2      OT      -0.834000       15.9994           0
     15290 TIP3     1369     TIP3     H1       HT       0.417000       1.00800           0
     15291 TIP3     1369     TIP3     H2       HT       0.417000       1.00800           0
     15292 TIP3     1370     TIP3     OH2      OT      -0.834000       15.9994           0
     15293 TIP3     1370     TIP3     H1       HT       0.417000       1.00800           0
     15294 TIP3     1370     TIP3     H2       HT       0.417000       1.00800           0
     15295 TIP3     1371     TIP3     OH2      OT      -0.834000       15.9994           0
     15296 TIP3     1371     TIP3     H1       HT       0.417000       1.00800           0
     15297 TIP3     1371     TIP3     H2       HT       0.417000       1.00800           0
     15298 TIP3     1372     TIP3     OH2      OT      -0.834000       15.9994           0
     15299 TIP3     1372     TIP3     H1       HT       0.417000       1.00800           0
     15300 TIP3     1372     TIP3     H2       HT       0.417000       1.00800           0
     15301 TIP3     1373     TIP3     OH2      OT      -0.834000       15.9994           0
     15302 TIP3     1373     TIP3     H1       HT       0.417000       1.00800           0
     15303 TIP3     1373     TIP3     H2       HT       0.417000       1.00800           0
     15304 TIP3     1374     TIP3     OH2      OT      -0.834000       15.9994           0
     15305 TIP3     1374     TIP3     H1       HT       0.417000       1.00800           0
     15306 TIP3     1374     TIP3     H2       HT       0.417000       1.00800           0
     15307 TIP3     1375     TIP3     OH2      OT      -0.834000       15.9994           0
     15308 TIP3     1375     TIP3     H1       HT       0.417000       1.00800           0
     15309 TIP3     1375     TIP3     H2       HT       0.417000       1.00800           0
     15310 TIP3     1376     TIP3     OH2      OT      -0.834000       15.9994           0
     15311 TIP3     1376     TIP3     H1       HT       0.417000       1.00800           0
     15312 TIP3     1376     TIP3     H2       HT       0.417000       1.00800           0
     15313 TIP3     1377     TIP3     OH2      OT      -0.834000       15.9994           0
     15314 TIP3     1377     TIP3     H1       HT       0.417000       1.00800           0
     15315 TIP3     1377     TIP3     H2       HT       0.417000       1.00800           0
     15316 TIP3     1378     TIP3     OH2      OT      -0.834000       15.9994           0
     15317 TIP3     1378     TIP3     H1       HT       0.417000       1.00800           0
     15318 TIP3     1378     TIP3     H2       HT       0.417000       1.00800           0
     15319 TIP3     1379     TIP3     OH2      OT      -0.834000       15.9994           0
     15320 TIP3     1379     TIP3     H1       HT       0.417000       1.00800           0
     15321 TIP3     1379     TIP3     H2       HT       0.417000       1.00800           0
     15322 TIP3     1380     TIP3     OH2      OT      -0.834000       15.9994           0
     15323 TIP3     1380     TIP3     H1       HT       0.417000       1.00800           0
     15324 TIP3     1380     TIP3     H2       HT       0.417000       1.00800           0
     15325 TIP3     1381     TIP3     OH2      OT      -0.834000       15.9994           0
     15326 TIP3     1381     TIP3     H1       HT       0.417000       1.00800           0
     15327 TIP3     1381     TIP3     H2       HT       0.417000       1.00800           0
     15328 TIP3     1382     TIP3     OH2      OT      -0.834000       15.9994           0
     15329 TIP3     1382     TIP3     H1       HT       0.417000       1.00800           0
     15330 TIP3     1382     TIP3     H2       HT       0.417000       1.00800           0
     15331 TIP3     1383     TIP3     OH2      OT      -0.834000       15.9994           0
     15332 TIP3     1383     TIP3     H1       HT       0.417000       1.00800           0
     15333 TIP3     1383     TIP3     H2       HT       0.417000       1.00800           0
     15334 TIP3     1384     TIP3     OH2      OT      -0.834000       15.9994           0
     15335 TIP3     1384     TIP3     H1       HT       0.417000       1.00800           0
     15336 TIP3     1384     TIP3     H2       HT       0.417000       1.00800           0
     15337 TIP3     1385     TIP3     OH2      OT      -0.834000       15.9994           0
     15338 TIP3     1385     TIP3     H1       HT       0.417000       1.00800           0
     15339 TIP3     1385     TIP3     H2       HT       0.417000       1.00800           0
     15340 TIP3     1386     TIP3     OH2      OT      -0.834000       15.9994           0
     15341 TIP3     1386     TIP3     H1       HT       0.417000       1.00800           0
     15342 TIP3     1386     TIP3     H2       HT       0.417000       1.00800           0
     15343 TIP3     1387     TIP3     OH2      OT      -0.834000       15.9994           0
     15344 TIP3     1387     TIP3     H1       HT       0.417000       1.00800           0
     15345 TIP3     1387     TIP3     H2       HT       0.417000       1.00800           0
     15346 TIP3     1388     TIP3     OH2      OT      -0.834000       15.9994           0
     15347 TIP3     1388     TIP3     H1       HT       0.417000       1.00800           0
     15348 TIP3     1388     TIP3     H2       HT       0.417000       1.00800           0
     15349 TIP3     1389     TIP3     OH2      OT      -0.834000       15.9994           0
     15350 TIP3     1389     TIP3     H1       HT       0.417000       1.00800           0
     15351 TIP3     1389     TIP3     H2       HT       0.417000       1.00800           0
     15352 TIP3     1390     TIP3     OH2      OT      -0.834000       15.9994           0
     15353 TIP3     1390     TIP3     H1       HT       0.417000       1.00800           0
     15354 TIP3     1390     TIP3     H2       HT       0.417000       1.00800           0
     15355 TIP3     1391     TIP3     OH2      OT      -0.834000       15.9994           0
     15356 TIP3     1391     TIP3     H1       HT       0.417000       1.00800           0
     15357 TIP3     1391     TIP3     H2       HT       0.417000       1.00800           0
     15358 TIP3     1392     TIP3     OH2      OT      -0.834000       15.9994           0
     15359 TIP3     1392     TIP3     H1       HT       0.417000       1.00800           0
     15360 TIP3     1392     TIP3     H2       HT       0.417000       1.00800           0
     15361 TIP3     1393     TIP3     OH2      OT      -0.834000       15.9994           0
     15362 TIP3     1393     TIP3     H1       HT       0.417000       1.00800           0
     15363 TIP3     1393     TIP3     H2       HT       0.417000       1.00800           0
     15364 TIP3     1394     TIP3     OH2      OT      -0.834000       15.9994           0
     15365 TIP3     1394     TIP3     H1       HT       0.417000       1.00800           0
     15366 TIP3     1394     TIP3     H2       HT       0.417000       1.00800           0
     15367 TIP3     1395     TIP3     OH2      OT      -0.834000       15.9994           0
     15368 TIP3     1395     TIP3     H1       HT       0.417000       1.00800           0
     15369 TIP3     1395     TIP3     H2       HT       0.417000       1.00800           0
     15370 TIP3     1396     TIP3     OH2      OT      -0.834000       15.9994           0
     15371 TIP3     1396     TIP3     H1       HT       0.417000       1.00800           0
     15372 TIP3     1396     TIP3     H2       HT       0.417000       1.00800           0
     15373 TIP3     1397     TIP3     OH2      OT      -0.834000       15.9994           0
     15374 TIP3     1397     TIP3     H1       HT       0.417000       1.00800           0
     15375 TIP3     1397     TIP3     H2       HT       0.417000       1.00800           0
     15376 TIP3     1398     TIP3     OH2      OT      -0.834000       15.9994           0
     15377 TIP3     1398     TIP3     H1       HT       0.417000       1.00800           0
     15378 TIP3     1398     TIP3     H2       HT       0.417000       1.00800           0
     15379 TIP3     1399     TIP3     OH2      OT      -0.834000       15.9994           0
     15380 TIP3     1399     TIP3     H1       HT       0.417000       1.00800           0
     15381 TIP3     1399     TIP3     H2       HT       0.417000       1.00800           0
     15382 TIP3     1400     TIP3     OH2      OT      -0.834000       15.9994           0
     15383 TIP3     1400     TIP3     H1       HT       0.417000       1.00800           0
     15384 TIP3     1400     TIP3     H2       HT       0.417000       1.00800           0
     15385 TIP3     1401     TIP3     OH2      OT      -0.834000       15.9994           0
     15386 TIP3     1401     TIP3     H1       HT       0.417000       1.00800           0
     15387 TIP3     1401     TIP3     H2       HT       0.417000       1.00800           0
     15388 TIP3     1402     TIP3     OH2      OT      -0.834000       15.9994           0
     15389 TIP3     1402     TIP3     H1       HT       0.417000       1.00800           0
     15390 TIP3     1402     TIP3     H2       HT       0.417000       1.00800           0
     15391 TIP3     1403     TIP3     OH2      OT      -0.834000       15.9994           0
     15392 TIP3     1403     TIP3     H1       HT       0.417000       1.00800           0
     15393 TIP3     1403     TIP3     H2       HT       0.417000       1.00800           0
     15394 TIP3     1404     TIP3     OH2      OT      -0.834000       15.9994           0
     15395 TIP3     1404     TIP3     H1       HT       0.417000       1.00800           0
     15396 TIP3     1404     TIP3     H2       HT       0.417000       1.00800           0
     15397 TIP3     1405     TIP3     OH2      OT      -0.834000       15.9994           0
     15398 TIP3     1405     TIP3     H1       HT       0.417000       1.00800           0
     15399 TIP3     1405     TIP3     H2       HT       0.417000       1.00800           0
     15400 TIP3     1406     TIP3     OH2      OT      -0.834000       15.9994           0
     15401 TIP3     1406     TIP3     H1       HT       0.417000       1.00800           0
     15402 TIP3     1406     TIP3     H2       HT       0.417000       1.00800           0
     15403 TIP3     1407     TIP3     OH2      OT      -0.834000       15.9994           0
     15404 TIP3     1407     TIP3     H1       HT       0.417000       1.00800           0
     15405 TIP3     1407     TIP3     H2       HT       0.417000       1.00800           0
     15406 TIP3     1408     TIP3     OH2      OT      -0.834000       15.9994           0
     15407 TIP3     1408     TIP3     H1       HT       0.417000       1.00800           0
     15408 TIP3     1408     TIP3     H2       HT       0.417000       1.00800           0
     15409 TIP3     1409     TIP3     OH2      OT      -0.834000       15.9994           0
     15410 TIP3     1409     TIP3     H1       HT       0.417000       1.00800           0
     15411 TIP3     1409     TIP3     H2       HT       0.417000       1.00800           0
     15412 TIP3     1410     TIP3     OH2      OT      -0.834000       15.9994           0
     15413 TIP3     1410     TIP3     H1       HT       0.417000       1.00800           0
     15414 TIP3     1410     TIP3     H2       HT       0.417000       1.00800           0
     15415 TIP3     1411     TIP3     OH2      OT      -0.834000       15.9994           0
     15416 TIP3     1411     TIP3     H1       HT       0.417000       1.00800           0
     15417 TIP3     1411     TIP3     H2       HT       0.417000       1.00800           0
     15418 TIP3     1412     TIP3     OH2      OT      -0.834000       15.9994           0
     15419 TIP3     1412     TIP3     H1       HT       0.417000       1.00800           0
     15420 TIP3     1412     TIP3     H2       HT       0.417000       1.00800           0
     15421 TIP3     1413     TIP3     OH2      OT      -0.834000       15.9994           0
     15422 TIP3     1413     TIP3     H1       HT       0.417000       1.00800           0
     15423 TIP3     1413     TIP3     H2       HT       0.417000       1.00800           0
     15424 TIP3     1414     TIP3     OH2      OT      -0.834000       15.9994           0
     15425 TIP3     1414     TIP3     H1       HT       0.417000       1.00800           0
     15426 TIP3     1414     TIP3     H2       HT       0.417000       1.00800           0
     15427 TIP3     1415     TIP3     OH2      OT      -0.834000       15.9994           0
     15428 TIP3     1415     TIP3     H1       HT       0.417000       1.00800           0
     15429 TIP3     1415     TIP3     H2       HT       0.417000       1.00800           0
     15430 TIP3     1416     TIP3     OH2      OT      -0.834000       15.9994           0
     15431 TIP3     1416     TIP3     H1       HT       0.417000       1.00800           0
     15432 TIP3     1416     TIP3     H2       HT       0.417000       1.00800           0
     15433 TIP3     1417     TIP3     OH2      OT      -0.834000       15.9994           0
     15434 TIP3     1417     TIP3     H1       HT       0.417000       1.00800           0
     15435 TIP3     1417     TIP3     H2       HT       0.417000       1.00800           0
     15436 TIP3     1418     TIP3     OH2      OT      -0.834000       15.9994           0
     15437 TIP3     1418     TIP3     H1       HT       0.417000       1.00800           0
     15438 TIP3     1418     TIP3     H2       HT       0.417000       1.00800           0
     15439 TIP3     1419     TIP3     OH2      OT      -0.834000       15.9994           0
     15440 TIP3     1419     TIP3     H1       HT       0.417000       1.00800           0
     15441 TIP3     1419     TIP3     H2       HT       0.417000       1.00800           0
     15442 TIP3     1420     TIP3     OH2      OT      -0.834000       15.9994           0
     15443 TIP3     1420     TIP3     H1       HT       0.417000       1.00800           0
     15444 TIP3     1420     TIP3     H2       HT       0.417000       1.00800           0
     15445 TIP3     1421     TIP3     OH2      OT      -0.834000       15.9994           0
     15446 TIP3     1421     TIP3     H1       HT       0.417000       1.00800           0
     15447 TIP3     1421     TIP3     H2       HT       0.417000       1.00800           0
     15448 TIP3     1422     TIP3     OH2      OT      -0.834000       15.9994           0
     15449 TIP3     1422     TIP3     H1       HT       0.417000       1.00800           0
     15450 TIP3     1422     TIP3     H2       HT       0.417000       1.00800           0
     15451 TIP3     1423     TIP3     OH2      OT      -0.834000       15.9994           0
     15452 TIP3     1423     TIP3     H1       HT       0.417000       1.00800           0
     15453 TIP3     1423     TIP3     H2       HT       0.417000       1.00800           0
     15454 TIP3     1424     TIP3     OH2      OT      -0.834000       15.9994           0
     15455 TIP3     1424     TIP3     H1       HT       0.417000       1.00800           0
     15456 TIP3     1424     TIP3     H2       HT       0.417000       1.00800           0
     15457 TIP3     1425     TIP3     OH2      OT      -0.834000       15.9994           0
     15458 TIP3     1425     TIP3     H1       HT       0.417000       1.00800           0
     15459 TIP3     1425     TIP3     H2       HT       0.417000       1.00800           0
     15460 TIP3     1426     TIP3     OH2      OT      -0.834000       15.9994           0
     15461 TIP3     1426     TIP3     H1       HT       0.417000       1.00800           0
     15462 TIP3     1426     TIP3     H2       HT       0.417000       1.00800           0
     15463 TIP3     1427     TIP3     OH2      OT      -0.834000       15.9994           0
     15464 TIP3     1427     TIP3     H1       HT       0.417000       1.00800           0
     15465 TIP3     1427     TIP3     H2       HT       0.417000       1.00800           0
     15466 TIP3     1428     TIP3     OH2      OT      -0.834000       15.9994           0
     15467 TIP3     1428     TIP3     H1       HT       0.417000       1.00800           0
     15468 TIP3     1428     TIP3     H2       HT       0.417000       1.00800           0
     15469 TIP3     1429     TIP3     OH2      OT      -0.834000       15.9994           0
     15470 TIP3     1429     TIP3     H1       HT       0.417000       1.00800           0
     15471 TIP3     1429     TIP3     H2       HT       0.417000       1.00800           0
     15472 TIP3     1430     TIP3     OH2      OT      -0.834000       15.9994           0
     15473 TIP3     1430     TIP3     H1       HT       0.417000       1.00800           0
     15474 TIP3     1430     TIP3     H2       HT       0.417000       1.00800           0
     15475 TIP3     1431     TIP3     OH2      OT      -0.834000       15.9994           0
     15476 TIP3     1431     TIP3     H1       HT       0.417000       1.00800           0
     15477 TIP3     1431     TIP3     H2       HT       0.417000       1.00800           0
     15478 TIP3     1432     TIP3     OH2      OT      -0.834000       15.9994           0
     15479 TIP3     1432     TIP3     H1       HT       0.417000       1.00800           0
     15480 TIP3     1432     TIP3     H2       HT       0.417000       1.00800           0
     15481 TIP3     1433     TIP3     OH2      OT      -0.834000       15.9994           0
     15482 TIP3     1433     TIP3     H1       HT       0.417000       1.00800           0
     15483 TIP3     1433     TIP3     H2       HT       0.417000       1.00800           0
     15484 TIP3     1434     TIP3     OH2      OT      -0.834000       15.9994           0
     15485 TIP3     1434     TIP3     H1       HT       0.417000       1.00800           0
     15486 TIP3     1434     TIP3     H2       HT       0.417000       1.00800           0
     15487 TIP3     1435     TIP3     OH2      OT      -0.834000       15.9994           0
     15488 TIP3     1435     TIP3     H1       HT       0.417000       1.00800           0
     15489 TIP3     1435     TIP3     H2       HT       0.417000       1.00800           0
     15490 TIP3     1436     TIP3     OH2      OT      -0.834000       15.9994           0
     15491 TIP3     1436     TIP3     H1       HT       0.417000       1.00800           0
     15492 TIP3     1436     TIP3     H2       HT       0.417000       1.00800           0
     15493 TIP3     1437     TIP3     OH2      OT      -0.834000       15.9994           0
     15494 TIP3     1437     TIP3     H1       HT       0.417000       1.00800           0
     15495 TIP3     1437     TIP3     H2       HT       0.417000       1.00800           0
     15496 TIP3     1438     TIP3     OH2      OT      -0.834000       15.9994           0
     15497 TIP3     1438     TIP3     H1       HT       0.417000       1.00800           0
     15498 TIP3     1438     TIP3     H2       HT       0.417000       1.00800           0
     15499 TIP3     1439     TIP3     OH2      OT      -0.834000       15.9994           0
     15500 TIP3     1439     TIP3     H1       HT       0.417000       1.00800           0
     15501 TIP3     1439     TIP3     H2       HT       0.417000       1.00800           0
     15502 TIP3     1440     TIP3     OH2      OT      -0.834000       15.9994           0
     15503 TIP3     1440     TIP3     H1       HT       0.417000       1.00800           0
     15504 TIP3     1440     TIP3     H2       HT       0.417000       1.00800           0
     15505 TIP3     1441     TIP3     OH2      OT      -0.834000       15.9994           0
     15506 TIP3     1441     TIP3     H1       HT       0.417000       1.00800           0
     15507 TIP3     1441     TIP3     H2       HT       0.417000       1.00800           0
     15508 TIP3     1442     TIP3     OH2      OT      -0.834000       15.9994           0
     15509 TIP3     1442     TIP3     H1       HT       0.417000       1.00800           0
     15510 TIP3     1442     TIP3     H2       HT       0.417000       1.00800           0
     15511 TIP3     1443     TIP3     OH2      OT      -0.834000       15.9994           0
     15512 TIP3     1443     TIP3     H1       HT       0.417000       1.00800           0
     15513 TIP3     1443     TIP3     H2       HT       0.417000       1.00800           0
     15514 TIP3     1444     TIP3     OH2      OT      -0.834000       15.9994           0
     15515 TIP3     1444     TIP3     H1       HT       0.417000       1.00800           0
     15516 TIP3     1444     TIP3     H2       HT       0.417000       1.00800           0
     15517 TIP3     1445     TIP3     OH2      OT      -0.834000       15.9994           0
     15518 TIP3     1445     TIP3     H1       HT       0.417000       1.00800           0
     15519 TIP3     1445     TIP3     H2       HT       0.417000       1.00800           0
     15520 TIP3     1446     TIP3     OH2      OT      -0.834000       15.9994           0
     15521 TIP3     1446     TIP3     H1       HT       0.417000       1.00800           0
     15522 TIP3     1446     TIP3     H2       HT       0.417000       1.00800           0
     15523 TIP3     1447     TIP3     OH2      OT      -0.834000       15.9994           0
     15524 TIP3     1447     TIP3     H1       HT       0.417000       1.00800           0
     15525 TIP3     1447     TIP3     H2       HT       0.417000       1.00800           0
     15526 TIP3     1448     TIP3     OH2      OT      -0.834000       15.9994           0
     15527 TIP3     1448     TIP3     H1       HT       0.417000       1.00800           0
     15528 TIP3     1448     TIP3     H2       HT       0.417000       1.00800           0
     15529 TIP3     1449     TIP3     OH2      OT      -0.834000       15.9994           0
     15530 TIP3     1449     TIP3     H1       HT       0.417000       1.00800           0
     15531 TIP3     1449     TIP3     H2       HT       0.417000       1.00800           0
     15532 TIP3     1450     TIP3     OH2      OT      -0.834000       15.9994           0
     15533 TIP3     1450     TIP3     H1       HT       0.417000       1.00800           0
     15534 TIP3     1450     TIP3     H2       HT       0.417000       1.00800           0
     15535 TIP3     1451     TIP3     OH2      OT      -0.834000       15.9994           0
     15536 TIP3     1451     TIP3     H1       HT       0.417000       1.00800           0
     15537 TIP3     1451     TIP3     H2       HT       0.417000       1.00800           0
     15538 TIP3     1452     TIP3     OH2      OT      -0.834000       15.9994           0
     15539 TIP3     1452     TIP3     H1       HT       0.417000       1.00800           0
     15540 TIP3     1452     TIP3     H2       HT       0.417000       1.00800           0
     15541 TIP3     1453     TIP3     OH2      OT      -0.834000       15.9994           0
     15542 TIP3     1453     TIP3     H1       HT       0.417000       1.00800           0
     15543 TIP3     1453     TIP3     H2       HT       0.417000       1.00800           0
     15544 TIP3     1454     TIP3     OH2      OT      -0.834000       15.9994           0
     15545 TIP3     1454     TIP3     H1       HT       0.417000       1.00800           0
     15546 TIP3     1454     TIP3     H2       HT       0.417000       1.00800           0
     15547 TIP3     1455     TIP3     OH2      OT      -0.834000       15.9994           0
     15548 TIP3     1455     TIP3     H1       HT       0.417000       1.00800           0
     15549 TIP3     1455     TIP3     H2       HT       0.417000       1.00800           0
     15550 TIP3     1456     TIP3     OH2      OT      -0.834000       15.9994           0
     15551 TIP3     1456     TIP3     H1       HT       0.417000       1.00800           0
     15552 TIP3     1456     TIP3     H2       HT       0.417000       1.00800           0
     15553 TIP3     1457     TIP3     OH2      OT      -0.834000       15.9994           0
     15554 TIP3     1457     TIP3     H1       HT       0.417000       1.00800           0
     15555 TIP3     1457     TIP3     H2       HT       0.417000       1.00800           0
     15556 TIP3     1458     TIP3     OH2      OT      -0.834000       15.9994           0
     15557 TIP3     1458     TIP3     H1       HT       0.417000       1.00800           0
     15558 TIP3     1458     TIP3     H2       HT       0.417000       1.00800           0
     15559 TIP3     1459     TIP3     OH2      OT      -0.834000       15.9994           0
     15560 TIP3     1459     TIP3     H1       HT       0.417000       1.00800           0
     15561 TIP3     1459     TIP3     H2       HT       0.417000       1.00800           0
     15562 TIP3     1460     TIP3     OH2      OT      -0.834000       15.9994           0
     15563 TIP3     1460     TIP3     H1       HT       0.417000       1.00800           0
     15564 TIP3     1460     TIP3     H2       HT       0.417000       1.00800           0
     15565 TIP3     1461     TIP3     OH2      OT      -0.834000       15.9994           0
     15566 TIP3     1461     TIP3     H1       HT       0.417000       1.00800           0
     15567 TIP3     1461     TIP3     H2       HT       0.417000       1.00800           0
     15568 TIP3     1462     TIP3     OH2      OT      -0.834000       15.9994           0
     15569 TIP3     1462     TIP3     H1       HT       0.417000       1.00800           0
     15570 TIP3     1462     TIP3     H2       HT       0.417000       1.00800           0
     15571 TIP3     1463     TIP3     OH2      OT      -0.834000       15.9994           0
     15572 TIP3     1463     TIP3     H1       HT       0.417000       1.00800           0
     15573 TIP3     1463     TIP3     H2       HT       0.417000       1.00800           0
     15574 TIP3     1464     TIP3     OH2      OT      -0.834000       15.9994           0
     15575 TIP3     1464     TIP3     H1       HT       0.417000       1.00800           0
     15576 TIP3     1464     TIP3     H2       HT       0.417000       1.00800           0
     15577 TIP3     1465     TIP3     OH2      OT      -0.834000       15.9994           0
     15578 TIP3     1465     TIP3     H1       HT       0.417000       1.00800           0
     15579 TIP3     1465     TIP3     H2       HT       0.417000       1.00800           0
     15580 TIP3     1466     TIP3     OH2      OT      -0.834000       15.9994           0
     15581 TIP3     1466     TIP3     H1       HT       0.417000       1.00800           0
     15582 TIP3     1466     TIP3     H2       HT       0.417000       1.00800           0
     15583 TIP3     1467     TIP3     OH2      OT      -0.834000       15.9994           0
     15584 TIP3     1467     TIP3     H1       HT       0.417000       1.00800           0
     15585 TIP3     1467     TIP3     H2       HT       0.417000       1.00800           0
     15586 TIP3     1468     TIP3     OH2      OT      -0.834000       15.9994           0
     15587 TIP3     1468     TIP3     H1       HT       0.417000       1.00800           0
     15588 TIP3     1468     TIP3     H2       HT       0.417000       1.00800           0
     15589 TIP3     1469     TIP3     OH2      OT      -0.834000       15.9994           0
     15590 TIP3     1469     TIP3     H1       HT       0.417000       1.00800           0
     15591 TIP3     1469     TIP3     H2       HT       0.417000       1.00800           0
     15592 TIP3     1470     TIP3     OH2      OT      -0.834000       15.9994           0
     15593 TIP3     1470     TIP3     H1       HT       0.417000       1.00800           0
     15594 TIP3     1470     TIP3     H2       HT       0.417000       1.00800           0
     15595 TIP3     1471     TIP3     OH2      OT      -0.834000       15.9994           0
     15596 TIP3     1471     TIP3     H1       HT       0.417000       1.00800           0
     15597 TIP3     1471     TIP3     H2       HT       0.417000       1.00800           0
     15598 TIP3     1472     TIP3     OH2      OT      -0.834000       15.9994           0
     15599 TIP3     1472     TIP3     H1       HT       0.417000       1.00800           0
     15600 TIP3     1472     TIP3     H2       HT       0.417000       1.00800           0
     15601 TIP3     1473     TIP3     OH2      OT      -0.834000       15.9994           0
     15602 TIP3     1473     TIP3     H1       HT       0.417000       1.00800           0
     15603 TIP3     1473     TIP3     H2       HT       0.417000       1.00800           0
     15604 TIP3     1474     TIP3     OH2      OT      -0.834000       15.9994           0
     15605 TIP3     1474     TIP3     H1       HT       0.417000       1.00800           0
     15606 TIP3     1474     TIP3     H2       HT       0.417000       1.00800           0
     15607 TIP3     1475     TIP3     OH2      OT      -0.834000       15.9994           0
     15608 TIP3     1475     TIP3     H1       HT       0.417000       1.00800           0
     15609 TIP3     1475     TIP3     H2       HT       0.417000       1.00800           0
     15610 TIP3     1476     TIP3     OH2      OT      -0.834000       15.9994           0
     15611 TIP3     1476     TIP3     H1       HT       0.417000       1.00800           0
     15612 TIP3     1476     TIP3     H2       HT       0.417000       1.00800           0
     15613 TIP3     1477     TIP3     OH2      OT      -0.834000       15.9994           0
     15614 TIP3     1477     TIP3     H1       HT       0.417000       1.00800           0
     15615 TIP3     1477     TIP3     H2       HT       0.417000       1.00800           0
     15616 TIP3     1478     TIP3     OH2      OT      -0.834000       15.9994           0
     15617 TIP3     1478     TIP3     H1       HT       0.417000       1.00800           0
     15618 TIP3     1478     TIP3     H2       HT       0.417000       1.00800           0
     15619 TIP3     1479     TIP3     OH2      OT      -0.834000       15.9994           0
     15620 TIP3     1479     TIP3     H1       HT       0.417000       1.00800           0
     15621 TIP3     1479     TIP3     H2       HT       0.417000       1.00800           0
     15622 TIP3     1480     TIP3     OH2      OT      -0.834000       15.9994           0
     15623 TIP3     1480     TIP3     H1       HT       0.417000       1.00800           0
     15624 TIP3     1480     TIP3     H2       HT       0.417000       1.00800           0
     15625 TIP3     1481     TIP3     OH2      OT      -0.834000       15.9994           0
     15626 TIP3     1481     TIP3     H1       HT       0.417000       1.00800           0
     15627 TIP3     1481     TIP3     H2       HT       0.417000       1.00800           0
     15628 TIP3     1482     TIP3     OH2      OT      -0.834000       15.9994           0
     15629 TIP3     1482     TIP3     H1       HT       0.417000       1.00800           0
     15630 TIP3     1482     TIP3     H2       HT       0.417000       1.00800           0
     15631 TIP3     1483     TIP3     OH2      OT      -0.834000       15.9994           0
     15632 TIP3     1483     TIP3     H1       HT       0.417000       1.00800           0
     15633 TIP3     1483     TIP3     H2       HT       0.417000       1.00800           0
     15634 TIP3     1484     TIP3     OH2      OT      -0.834000       15.9994           0
     15635 TIP3     1484     TIP3     H1       HT       0.417000       1.00800           0
     15636 TIP3     1484     TIP3     H2       HT       0.417000       1.00800           0
     15637 TIP3     1485     TIP3     OH2      OT      -0.834000       15.9994           0
     15638 TIP3     1485     TIP3     H1       HT       0.417000       1.00800           0
     15639 TIP3     1485     TIP3     H2       HT       0.417000       1.00800           0
     15640 TIP3     1486     TIP3     OH2      OT      -0.834000       15.9994           0
     15641 TIP3     1486     TIP3     H1       HT       0.417000       1.00800           0
     15642 TIP3     1486     TIP3     H2       HT       0.417000       1.00800           0
     15643 TIP3     1487     TIP3     OH2      OT      -0.834000       15.9994           0
     15644 TIP3     1487     TIP3     H1       HT       0.417000       1.00800           0
     15645 TIP3     1487     TIP3     H2       HT       0.417000       1.00800           0
     15646 TIP3     1488     TIP3     OH2      OT      -0.834000       15.9994           0
     15647 TIP3     1488     TIP3     H1       HT       0.417000       1.00800           0
     15648 TIP3     1488     TIP3     H2       HT       0.417000       1.00800           0
     15649 TIP3     1489     TIP3     OH2      OT      -0.834000       15.9994           0
     15650 TIP3     1489     TIP3     H1       HT       0.417000       1.00800           0
     15651 TIP3     1489     TIP3     H2       HT       0.417000       1.00800           0
     15652 TIP3     1490     TIP3     OH2      OT      -0.834000       15.9994           0
     15653 TIP3     1490     TIP3     H1       HT       0.417000       1.00800           0
     15654 TIP3     1490     TIP3     H2       HT       0.417000       1.00800           0
     15655 TIP3     1491     TIP3     OH2      OT      -0.834000       15.9994           0
     15656 TIP3     1491     TIP3     H1       HT       0.417000       1.00800           0
     15657 TIP3     1491     TIP3     H2       HT       0.417000       1.00800           0
     15658 TIP3     1492     TIP3     OH2      OT      -0.834000       15.9994           0
     15659 TIP3     1492     TIP3     H1       HT       0.417000       1.00800           0
     15660 TIP3     1492     TIP3     H2       HT       0.417000       1.00800           0
     15661 TIP3     1493     TIP3     OH2      OT      -0.834000       15.9994           0
     15662 TIP3     1493     TIP3     H1       HT       0.417000       1.00800           0
     15663 TIP3     1493     TIP3     H2       HT       0.417000       1.00800           0
     15664 TIP3     1494     TIP3     OH2      OT      -0.834000       15.9994           0
     15665 TIP3     1494     TIP3     H1       HT       0.417000       1.00800           0
     15666 TIP3     1494     TIP3     H2       HT       0.417000       1.00800           0
     15667 TIP3     1495     TIP3     OH2      OT      -0.834000       15.9994           0
     15668 TIP3     1495     TIP3     H1       HT       0.417000       1.00800           0
     15669 TIP3     1495     TIP3     H2       HT       0.417000       1.00800           0
     15670 TIP3     1496     TIP3     OH2      OT      -0.834000       15.9994           0
     15671 TIP3     1496     TIP3     H1       HT       0.417000       1.00800           0
     15672 TIP3     1496     TIP3     H2       HT       0.417000       1.00800           0
     15673 TIP3     1497     TIP3     OH2      OT      -0.834000       15.9994           0
     15674 TIP3     1497     TIP3     H1       HT       0.417000       1.00800           0
     15675 TIP3     1497     TIP3     H2       HT       0.417000       1.00800           0
     15676 TIP3     1498     TIP3     OH2      OT      -0.834000       15.9994           0
     15677 TIP3     1498     TIP3     H1       HT       0.417000       1.00800           0
     15678 TIP3     1498     TIP3     H2       HT       0.417000       1.00800           0
     15679 TIP3     1499     TIP3     OH2      OT      -0.834000       15.9994           0
     15680 TIP3     1499     TIP3     H1       HT       0.417000       1.00800           0
     15681 TIP3     1499     TIP3     H2       HT       0.417000       1.00800           0
     15682 TIP3     1500     TIP3     OH2      OT      -0.834000       15.9994           0
     15683 TIP3     1500     TIP3     H1       HT       0.417000       1.00800           0
     15684 TIP3     1500     TIP3     H2       HT       0.417000       1.00800           0
     15685 TIP3     1501     TIP3     OH2      OT      -0.834000       15.9994           0
     15686 TIP3     1501     TIP3     H1       HT       0.417000       1.00800           0
     15687 TIP3     1501     TIP3     H2       HT       0.417000       1.00800           0
     15688 TIP3     1502     TIP3     OH2      OT      -0.834000       15.9994           0
     15689 TIP3     1502     TIP3     H1       HT       0.417000       1.00800           0
     15690 TIP3     1502     TIP3     H2       HT       0.417000       1.00800           0
     15691 TIP3     1503     TIP3     OH2      OT      -0.834000       15.9994           0
     15692 TIP3     1503     TIP3     H1       HT       0.417000       1.00800           0
     15693 TIP3     1503     TIP3     H2       HT       0.417000       1.00800           0
     15694 TIP3     1504     TIP3     OH2      OT      -0.834000       15.9994           0
     15695 TIP3     1504     TIP3     H1       HT       0.417000       1.00800           0
     15696 TIP3     1504     TIP3     H2       HT       0.417000       1.00800           0
     15697 TIP3     1505     TIP3     OH2      OT      -0.834000       15.9994           0
     15698 TIP3     1505     TIP3     H1       HT       0.417000       1.00800           0
     15699 TIP3     1505     TIP3     H2       HT       0.417000       1.00800           0
     15700 TIP3     1506     TIP3     OH2      OT      -0.834000       15.9994           0
     15701 TIP3     1506     TIP3     H1       HT       0.417000       1.00800           0
     15702 TIP3     1506     TIP3     H2       HT       0.417000       1.00800           0
     15703 TIP3     1507     TIP3     OH2      OT      -0.834000       15.9994           0
     15704 TIP3     1507     TIP3     H1       HT       0.417000       1.00800           0
     15705 TIP3     1507     TIP3     H2       HT       0.417000       1.00800           0
     15706 TIP3     1508     TIP3     OH2      OT      -0.834000       15.9994           0
     15707 TIP3     1508     TIP3     H1       HT       0.417000       1.00800           0
     15708 TIP3     1508     TIP3     H2       HT       0.417000       1.00800           0
     15709 TIP3     1509     TIP3     OH2      OT      -0.834000       15.9994           0
     15710 TIP3     1509     TIP3     H1       HT       0.417000       1.00800           0
     15711 TIP3     1509     TIP3     H2       HT       0.417000       1.00800           0
     15712 TIP3     1510     TIP3     OH2      OT      -0.834000       15.9994           0
     15713 TIP3     1510     TIP3     H1       HT       0.417000       1.00800           0
     15714 TIP3     1510     TIP3     H2       HT       0.417000       1.00800           0
     15715 TIP3     1511     TIP3     OH2      OT      -0.834000       15.9994           0
     15716 TIP3     1511     TIP3     H1       HT       0.417000       1.00800           0
     15717 TIP3     1511     TIP3     H2       HT       0.417000       1.00800           0
     15718 TIP3     1512     TIP3     OH2      OT      -0.834000       15.9994           0
     15719 TIP3     1512     TIP3     H1       HT       0.417000       1.00800           0
     15720 TIP3     1512     TIP3     H2       HT       0.417000       1.00800           0
     15721 TIP3     1513     TIP3     OH2      OT      -0.834000       15.9994           0
     15722 TIP3     1513     TIP3     H1       HT       0.417000       1.00800           0
     15723 TIP3     1513     TIP3     H2       HT       0.417000       1.00800           0
     15724 TIP3     1514     TIP3     OH2      OT      -0.834000       15.9994           0
     15725 TIP3     1514     TIP3     H1       HT       0.417000       1.00800           0
     15726 TIP3     1514     TIP3     H2       HT       0.417000       1.00800           0
     15727 TIP3     1515     TIP3     OH2      OT      -0.834000       15.9994           0
     15728 TIP3     1515     TIP3     H1       HT       0.417000       1.00800           0
     15729 TIP3     1515     TIP3     H2       HT       0.417000       1.00800           0
     15730 TIP3     1516     TIP3     OH2      OT      -0.834000       15.9994           0
     15731 TIP3     1516     TIP3     H1       HT       0.417000       1.00800           0
     15732 TIP3     1516     TIP3     H2       HT       0.417000       1.00800           0
     15733 TIP3     1517     TIP3     OH2      OT      -0.834000       15.9994           0
     15734 TIP3     1517     TIP3     H1       HT       0.417000       1.00800           0
     15735 TIP3     1517     TIP3     H2       HT       0.417000       1.00800           0
     15736 TIP3     1518     TIP3     OH2      OT      -0.834000       15.9994           0
     15737 TIP3     1518     TIP3     H1       HT       0.417000       1.00800           0
     15738 TIP3     1518     TIP3     H2       HT       0.417000       1.00800           0
     15739 TIP3     1519     TIP3     OH2      OT      -0.834000       15.9994           0
     15740 TIP3     1519     TIP3     H1       HT       0.417000       1.00800           0
     15741 TIP3     1519     TIP3     H2       HT       0.417000       1.00800           0
     15742 TIP3     1520     TIP3     OH2      OT      -0.834000       15.9994           0
     15743 TIP3     1520     TIP3     H1       HT       0.417000       1.00800           0
     15744 TIP3     1520     TIP3     H2       HT       0.417000       1.00800           0
     15745 TIP3     1521     TIP3     OH2      OT      -0.834000       15.9994           0
     15746 TIP3     1521     TIP3     H1       HT       0.417000       1.00800           0
     15747 TIP3     1521     TIP3     H2       HT       0.417000       1.00800           0
     15748 TIP3     1522     TIP3     OH2      OT      -0.834000       15.9994           0
     15749 TIP3     1522     TIP3     H1       HT       0.417000       1.00800           0
     15750 TIP3     1522     TIP3     H2       HT       0.417000       1.00800           0
     15751 TIP3     1523     TIP3     OH2      OT      -0.834000       15.9994           0
     15752 TIP3     1523     TIP3     H1       HT       0.417000       1.00800           0
     15753 TIP3     1523     TIP3     H2       HT       0.417000       1.00800           0
     15754 TIP3     1524     TIP3     OH2      OT      -0.834000       15.9994           0
     15755 TIP3     1524     TIP3     H1       HT       0.417000       1.00800           0
     15756 TIP3     1524     TIP3     H2       HT       0.417000       1.00800           0
     15757 TIP3     1525     TIP3     OH2      OT      -0.834000       15.9994           0
     15758 TIP3     1525     TIP3     H1       HT       0.417000       1.00800           0
     15759 TIP3     1525     TIP3     H2       HT       0.417000       1.00800           0
     15760 TIP3     1526     TIP3     OH2      OT      -0.834000       15.9994           0
     15761 TIP3     1526     TIP3     H1       HT       0.417000       1.00800           0
     15762 TIP3     1526     TIP3     H2       HT       0.417000       1.00800           0
     15763 TIP3     1527     TIP3     OH2      OT      -0.834000       15.9994           0
     15764 TIP3     1527     TIP3     H1       HT       0.417000       1.00800           0
     15765 TIP3     1527     TIP3     H2       HT       0.417000       1.00800           0
     15766 TIP3     1528     TIP3     OH2      OT      -0.834000       15.9994           0
     15767 TIP3     1528     TIP3     H1       HT       0.417000       1.00800           0
     15768 TIP3     1528     TIP3     H2       HT       0.417000       1.00800           0
     15769 TIP3     1529     TIP3     OH2      OT      -0.834000       15.9994           0
     15770 TIP3     1529     TIP3     H1       HT       0.417000       1.00800           0
     15771 TIP3     1529     TIP3     H2       HT       0.417000       1.00800           0
     15772 TIP3     1530     TIP3     OH2      OT      -0.834000       15.9994           0
     15773 TIP3     1530     TIP3     H1       HT       0.417000       1.00800           0
     15774 TIP3     1530     TIP3     H2       HT       0.417000       1.00800           0
     15775 TIP3     1531     TIP3     OH2      OT      -0.834000       15.9994           0
     15776 TIP3     1531     TIP3     H1       HT       0.417000       1.00800           0
     15777 TIP3     1531     TIP3     H2       HT       0.417000       1.00800           0
     15778 TIP3     1532     TIP3     OH2      OT      -0.834000       15.9994           0
     15779 TIP3     1532     TIP3     H1       HT       0.417000       1.00800           0
     15780 TIP3     1532     TIP3     H2       HT       0.417000       1.00800           0
     15781 TIP3     1533     TIP3     OH2      OT      -0.834000       15.9994           0
     15782 TIP3     1533     TIP3     H1       HT       0.417000       1.00800           0
     15783 TIP3     1533     TIP3     H2       HT       0.417000       1.00800           0
     15784 TIP3     1534     TIP3     OH2      OT      -0.834000       15.9994           0
     15785 TIP3     1534     TIP3     H1       HT       0.417000       1.00800           0
     15786 TIP3     1534     TIP3     H2       HT       0.417000       1.00800           0
     15787 TIP3     1535     TIP3     OH2      OT      -0.834000       15.9994           0
     15788 TIP3     1535     TIP3     H1       HT       0.417000       1.00800           0
     15789 TIP3     1535     TIP3     H2       HT       0.417000       1.00800           0
     15790 TIP3     1536     TIP3     OH2      OT      -0.834000       15.9994           0
     15791 TIP3     1536     TIP3     H1       HT       0.417000       1.00800           0
     15792 TIP3     1536     TIP3     H2       HT       0.417000       1.00800           0
     15793 TIP3     1537     TIP3     OH2      OT      -0.834000       15.9994           0
     15794 TIP3     1537     TIP3     H1       HT       0.417000       1.00800           0
     15795 TIP3     1537     TIP3     H2       HT       0.417000       1.00800           0
     15796 TIP3     1538     TIP3     OH2      OT      -0.834000       15.9994           0
     15797 TIP3     1538     TIP3     H1       HT       0.417000       1.00800           0
     15798 TIP3     1538     TIP3     H2       HT       0.417000       1.00800           0
     15799 TIP3     1539     TIP3     OH2      OT      -0.834000       15.9994           0
     15800 TIP3     1539     TIP3     H1       HT       0.417000       1.00800           0
     15801 TIP3     1539     TIP3     H2       HT       0.417000       1.00800           0
     15802 TIP3     1540     TIP3     OH2      OT      -0.834000       15.9994           0
     15803 TIP3     1540     TIP3     H1       HT       0.417000       1.00800           0
     15804 TIP3     1540     TIP3     H2       HT       0.417000       1.00800           0
     15805 TIP3     1541     TIP3     OH2      OT      -0.834000       15.9994           0
     15806 TIP3     1541     TIP3     H1       HT       0.417000       1.00800           0
     15807 TIP3     1541     TIP3     H2       HT       0.417000       1.00800           0
     15808 TIP3     1542     TIP3     OH2      OT      -0.834000       15.9994           0
     15809 TIP3     1542     TIP3     H1       HT       0.417000       1.00800           0
     15810 TIP3     1542     TIP3     H2       HT       0.417000       1.00800           0
     15811 TIP3     1543     TIP3     OH2      OT      -0.834000       15.9994           0
     15812 TIP3     1543     TIP3     H1       HT       0.417000       1.00800           0
     15813 TIP3     1543     TIP3     H2       HT       0.417000       1.00800           0
     15814 TIP3     1544     TIP3     OH2      OT      -0.834000       15.9994           0
     15815 TIP3     1544     TIP3     H1       HT       0.417000       1.00800           0
     15816 TIP3     1544     TIP3     H2       HT       0.417000       1.00800           0
     15817 TIP3     1545     TIP3     OH2      OT      -0.834000       15.9994           0
     15818 TIP3     1545     TIP3     H1       HT       0.417000       1.00800           0
     15819 TIP3     1545     TIP3     H2       HT       0.417000       1.00800           0
     15820 TIP3     1546     TIP3     OH2      OT      -0.834000       15.9994           0
     15821 TIP3     1546     TIP3     H1       HT       0.417000       1.00800           0
     15822 TIP3     1546     TIP3     H2       HT       0.417000       1.00800           0
     15823 TIP3     1547     TIP3     OH2      OT      -0.834000       15.9994           0
     15824 TIP3     1547     TIP3     H1       HT       0.417000       1.00800           0
     15825 TIP3     1547     TIP3     H2       HT       0.417000       1.00800           0
     15826 TIP3     1548     TIP3     OH2      OT      -0.834000       15.9994           0
     15827 TIP3     1548     TIP3     H1       HT       0.417000       1.00800           0
     15828 TIP3     1548     TIP3     H2       HT       0.417000       1.00800           0
     15829 TIP3     1549     TIP3     OH2      OT      -0.834000       15.9994           0
     15830 TIP3     1549     TIP3     H1       HT       0.417000       1.00800           0
     15831 TIP3     1549     TIP3     H2       HT       0.417000       1.00800           0
     15832 TIP3     1550     TIP3     OH2      OT      -0.834000       15.9994           0
     15833 TIP3     1550     TIP3     H1       HT       0.417000       1.00800           0
     15834 TIP3     1550     TIP3     H2       HT       0.417000       1.00800           0
     15835 TIP3     1551     TIP3     OH2      OT      -0.834000       15.9994           0
     15836 TIP3     1551     TIP3     H1       HT       0.417000       1.00800           0
     15837 TIP3     1551     TIP3     H2       HT       0.417000       1.00800           0
     15838 TIP3     1552     TIP3     OH2      OT      -0.834000       15.9994           0
     15839 TIP3     1552     TIP3     H1       HT       0.417000       1.00800           0
     15840 TIP3     1552     TIP3     H2       HT       0.417000       1.00800           0
     15841 TIP3     1553     TIP3     OH2      OT      -0.834000       15.9994           0
     15842 TIP3     1553     TIP3     H1       HT       0.417000       1.00800           0
     15843 TIP3     1553     TIP3     H2       HT       0.417000       1.00800           0
     15844 TIP3     1554     TIP3     OH2      OT      -0.834000       15.9994           0
     15845 TIP3     1554     TIP3     H1       HT       0.417000       1.00800           0
     15846 TIP3     1554     TIP3     H2       HT       0.417000       1.00800           0
     15847 TIP3     1555     TIP3     OH2      OT      -0.834000       15.9994           0
     15848 TIP3     1555     TIP3     H1       HT       0.417000       1.00800           0
     15849 TIP3     1555     TIP3     H2       HT       0.417000       1.00800           0
     15850 TIP3     1556     TIP3     OH2      OT      -0.834000       15.9994           0
     15851 TIP3     1556     TIP3     H1       HT       0.417000       1.00800           0
     15852 TIP3     1556     TIP3     H2       HT       0.417000       1.00800           0
     15853 TIP3     1557     TIP3     OH2      OT      -0.834000       15.9994           0
     15854 TIP3     1557     TIP3     H1       HT       0.417000       1.00800           0
     15855 TIP3     1557     TIP3     H2       HT       0.417000       1.00800           0
     15856 TIP3     1558     TIP3     OH2      OT      -0.834000       15.9994           0
     15857 TIP3     1558     TIP3     H1       HT       0.417000       1.00800           0
     15858 TIP3     1558     TIP3     H2       HT       0.417000       1.00800           0
     15859 TIP3     1559     TIP3     OH2      OT      -0.834000       15.9994           0
     15860 TIP3     1559     TIP3     H1       HT       0.417000       1.00800           0
     15861 TIP3     1559     TIP3     H2       HT       0.417000       1.00800           0
     15862 TIP3     1560     TIP3     OH2      OT      -0.834000       15.9994           0
     15863 TIP3     1560     TIP3     H1       HT       0.417000       1.00800           0
     15864 TIP3     1560     TIP3     H2       HT       0.417000       1.00800           0
     15865 TIP3     1561     TIP3     OH2      OT      -0.834000       15.9994           0
     15866 TIP3     1561     TIP3     H1       HT       0.417000       1.00800           0
     15867 TIP3     1561     TIP3     H2       HT       0.417000       1.00800           0
     15868 TIP3     1562     TIP3     OH2      OT      -0.834000       15.9994           0
     15869 TIP3     1562     TIP3     H1       HT       0.417000       1.00800           0
     15870 TIP3     1562     TIP3     H2       HT       0.417000       1.00800           0
     15871 TIP3     1563     TIP3     OH2      OT      -0.834000       15.9994           0
     15872 TIP3     1563     TIP3     H1       HT       0.417000       1.00800           0
     15873 TIP3     1563     TIP3     H2       HT       0.417000       1.00800           0
     15874 TIP3     1564     TIP3     OH2      OT      -0.834000       15.9994           0
     15875 TIP3     1564     TIP3     H1       HT       0.417000       1.00800           0
     15876 TIP3     1564     TIP3     H2       HT       0.417000       1.00800           0
     15877 TIP3     1565     TIP3     OH2      OT      -0.834000       15.9994           0
     15878 TIP3     1565     TIP3     H1       HT       0.417000       1.00800           0
     15879 TIP3     1565     TIP3     H2       HT       0.417000       1.00800           0
     15880 TIP3     1566     TIP3     OH2      OT      -0.834000       15.9994           0
     15881 TIP3     1566     TIP3     H1       HT       0.417000       1.00800           0
     15882 TIP3     1566     TIP3     H2       HT       0.417000       1.00800           0
     15883 TIP3     1567     TIP3     OH2      OT      -0.834000       15.9994           0
     15884 TIP3     1567     TIP3     H1       HT       0.417000       1.00800           0
     15885 TIP3     1567     TIP3     H2       HT       0.417000       1.00800           0
     15886 TIP3     1568     TIP3     OH2      OT      -0.834000       15.9994           0
     15887 TIP3     1568     TIP3     H1       HT       0.417000       1.00800           0
     15888 TIP3     1568     TIP3     H2       HT       0.417000       1.00800           0
     15889 TIP3     1569     TIP3     OH2      OT      -0.834000       15.9994           0
     15890 TIP3     1569     TIP3     H1       HT       0.417000       1.00800           0
     15891 TIP3     1569     TIP3     H2       HT       0.417000       1.00800           0
     15892 TIP3     1570     TIP3     OH2      OT      -0.834000       15.9994           0
     15893 TIP3     1570     TIP3     H1       HT       0.417000       1.00800           0
     15894 TIP3     1570     TIP3     H2       HT       0.417000       1.00800           0
     15895 TIP3     1571     TIP3     OH2      OT      -0.834000       15.9994           0
     15896 TIP3     1571     TIP3     H1       HT       0.417000       1.00800           0
     15897 TIP3     1571     TIP3     H2       HT       0.417000       1.00800           0
     15898 TIP3     1572     TIP3     OH2      OT      -0.834000       15.9994           0
     15899 TIP3     1572     TIP3     H1       HT       0.417000       1.00800           0
     15900 TIP3     1572     TIP3     H2       HT       0.417000       1.00800           0
     15901 TIP3     1573     TIP3     OH2      OT      -0.834000       15.9994           0
     15902 TIP3     1573     TIP3     H1       HT       0.417000       1.00800           0
     15903 TIP3     1573     TIP3     H2       HT       0.417000       1.00800           0
     15904 TIP3     1574     TIP3     OH2      OT      -0.834000       15.9994           0
     15905 TIP3     1574     TIP3     H1       HT       0.417000       1.00800           0
     15906 TIP3     1574     TIP3     H2       HT       0.417000       1.00800           0
     15907 TIP3     1575     TIP3     OH2      OT      -0.834000       15.9994           0
     15908 TIP3     1575     TIP3     H1       HT       0.417000       1.00800           0
     15909 TIP3     1575     TIP3     H2       HT       0.417000       1.00800           0
     15910 TIP3     1576     TIP3     OH2      OT      -0.834000       15.9994           0
     15911 TIP3     1576     TIP3     H1       HT       0.417000       1.00800           0
     15912 TIP3     1576     TIP3     H2       HT       0.417000       1.00800           0
     15913 TIP3     1577     TIP3     OH2      OT      -0.834000       15.9994           0
     15914 TIP3     1577     TIP3     H1       HT       0.417000       1.00800           0
     15915 TIP3     1577     TIP3     H2       HT       0.417000       1.00800           0
     15916 TIP3     1578     TIP3     OH2      OT      -0.834000       15.9994           0
     15917 TIP3     1578     TIP3     H1       HT       0.417000       1.00800           0
     15918 TIP3     1578     TIP3     H2       HT       0.417000       1.00800           0
     15919 TIP3     1579     TIP3     OH2      OT      -0.834000       15.9994           0
     15920 TIP3     1579     TIP3     H1       HT       0.417000       1.00800           0
     15921 TIP3     1579     TIP3     H2       HT       0.417000       1.00800           0
     15922 TIP3     1580     TIP3     OH2      OT      -0.834000       15.9994           0
     15923 TIP3     1580     TIP3     H1       HT       0.417000       1.00800           0
     15924 TIP3     1580     TIP3     H2       HT       0.417000       1.00800           0
     15925 TIP3     1581     TIP3     OH2      OT      -0.834000       15.9994           0
     15926 TIP3     1581     TIP3     H1       HT       0.417000       1.00800           0
     15927 TIP3     1581     TIP3     H2       HT       0.417000       1.00800           0
     15928 TIP3     1582     TIP3     OH2      OT      -0.834000       15.9994           0
     15929 TIP3     1582     TIP3     H1       HT       0.417000       1.00800           0
     15930 TIP3     1582     TIP3     H2       HT       0.417000       1.00800           0
     15931 TIP3     1583     TIP3     OH2      OT      -0.834000       15.9994           0
     15932 TIP3     1583     TIP3     H1       HT       0.417000       1.00800           0
     15933 TIP3     1583     TIP3     H2       HT       0.417000       1.00800           0
     15934 TIP3     1584     TIP3     OH2      OT      -0.834000       15.9994           0
     15935 TIP3     1584     TIP3     H1       HT       0.417000       1.00800           0
     15936 TIP3     1584     TIP3     H2       HT       0.417000       1.00800           0
     15937 TIP3     1585     TIP3     OH2      OT      -0.834000       15.9994           0
     15938 TIP3     1585     TIP3     H1       HT       0.417000       1.00800           0
     15939 TIP3     1585     TIP3     H2       HT       0.417000       1.00800           0
     15940 TIP3     1586     TIP3     OH2      OT      -0.834000       15.9994           0
     15941 TIP3     1586     TIP3     H1       HT       0.417000       1.00800           0
     15942 TIP3     1586     TIP3     H2       HT       0.417000       1.00800           0
     15943 TIP3     1587     TIP3     OH2      OT      -0.834000       15.9994           0
     15944 TIP3     1587     TIP3     H1       HT       0.417000       1.00800           0
     15945 TIP3     1587     TIP3     H2       HT       0.417000       1.00800           0
     15946 TIP3     1588     TIP3     OH2      OT      -0.834000       15.9994           0
     15947 TIP3     1588     TIP3     H1       HT       0.417000       1.00800           0
     15948 TIP3     1588     TIP3     H2       HT       0.417000       1.00800           0
     15949 TIP3     1589     TIP3     OH2      OT      -0.834000       15.9994           0
     15950 TIP3     1589     TIP3     H1       HT       0.417000       1.00800           0
     15951 TIP3     1589     TIP3     H2       HT       0.417000       1.00800           0
     15952 TIP3     1590     TIP3     OH2      OT      -0.834000       15.9994           0
     15953 TIP3     1590     TIP3     H1       HT       0.417000       1.00800           0
     15954 TIP3     1590     TIP3     H2       HT       0.417000       1.00800           0
     15955 TIP3     1591     TIP3     OH2      OT      -0.834000       15.9994           0
     15956 TIP3     1591     TIP3     H1       HT       0.417000       1.00800           0
     15957 TIP3     1591     TIP3     H2       HT       0.417000       1.00800           0
     15958 TIP3     1592     TIP3     OH2      OT      -0.834000       15.9994           0
     15959 TIP3     1592     TIP3     H1       HT       0.417000       1.00800           0
     15960 TIP3     1592     TIP3     H2       HT       0.417000       1.00800           0
     15961 TIP3     1593     TIP3     OH2      OT      -0.834000       15.9994           0
     15962 TIP3     1593     TIP3     H1       HT       0.417000       1.00800           0
     15963 TIP3     1593     TIP3     H2       HT       0.417000       1.00800           0
     15964 TIP3     1594     TIP3     OH2      OT      -0.834000       15.9994           0
     15965 TIP3     1594     TIP3     H1       HT       0.417000       1.00800           0
     15966 TIP3     1594     TIP3     H2       HT       0.417000       1.00800           0
     15967 TIP3     1595     TIP3     OH2      OT      -0.834000       15.9994           0
     15968 TIP3     1595     TIP3     H1       HT       0.417000       1.00800           0
     15969 TIP3     1595     TIP3     H2       HT       0.417000       1.00800           0
     15970 TIP3     1596     TIP3     OH2      OT      -0.834000       15.9994           0
     15971 TIP3     1596     TIP3     H1       HT       0.417000       1.00800           0
     15972 TIP3     1596     TIP3     H2       HT       0.417000       1.00800           0
     15973 TIP3     1597     TIP3     OH2      OT      -0.834000       15.9994           0
     15974 TIP3     1597     TIP3     H1       HT       0.417000       1.00800           0
     15975 TIP3     1597     TIP3     H2       HT       0.417000       1.00800           0
     15976 TIP3     1598     TIP3     OH2      OT      -0.834000       15.9994           0
     15977 TIP3     1598     TIP3     H1       HT       0.417000       1.00800           0
     15978 TIP3     1598     TIP3     H2       HT       0.417000       1.00800           0
     15979 TIP3     1599     TIP3     OH2      OT      -0.834000       15.9994           0
     15980 TIP3     1599     TIP3     H1       HT       0.417000       1.00800           0
     15981 TIP3     1599     TIP3     H2       HT       0.417000       1.00800           0
     15982 TIP3     1600     TIP3     OH2      OT      -0.834000       15.9994           0
     15983 TIP3     1600     TIP3     H1       HT       0.417000       1.00800           0
     15984 TIP3     1600     TIP3     H2       HT       0.417000       1.00800           0
     15985 TIP3     1601     TIP3     OH2      OT      -0.834000       15.9994           0
     15986 TIP3     1601     TIP3     H1       HT       0.417000       1.00800           0
     15987 TIP3     1601     TIP3     H2       HT       0.417000       1.00800           0
     15988 TIP3     1602     TIP3     OH2      OT      -0.834000       15.9994           0
     15989 TIP3     1602     TIP3     H1       HT       0.417000       1.00800           0
     15990 TIP3     1602     TIP3     H2       HT       0.417000       1.00800           0
     15991 TIP3     1603     TIP3     OH2      OT      -0.834000       15.9994           0
     15992 TIP3     1603     TIP3     H1       HT       0.417000       1.00800           0
     15993 TIP3     1603     TIP3     H2       HT       0.417000       1.00800           0
     15994 TIP3     1604     TIP3     OH2      OT      -0.834000       15.9994           0
     15995 TIP3     1604     TIP3     H1       HT       0.417000       1.00800           0
     15996 TIP3     1604     TIP3     H2       HT       0.417000       1.00800           0
     15997 TIP3     1605     TIP3     OH2      OT      -0.834000       15.9994           0
     15998 TIP3     1605     TIP3     H1       HT       0.417000       1.00800           0
     15999 TIP3     1605     TIP3     H2       HT       0.417000       1.00800           0
     16000 TIP3     1606     TIP3     OH2      OT      -0.834000       15.9994           0
     16001 TIP3     1606     TIP3     H1       HT       0.417000       1.00800           0
     16002 TIP3     1606     TIP3     H2       HT       0.417000       1.00800           0
     16003 TIP3     1607     TIP3     OH2      OT      -0.834000       15.9994           0
     16004 TIP3     1607     TIP3     H1       HT       0.417000       1.00800           0
     16005 TIP3     1607     TIP3     H2       HT       0.417000       1.00800           0
     16006 TIP3     1608     TIP3     OH2      OT      -0.834000       15.9994           0
     16007 TIP3     1608     TIP3     H1       HT       0.417000       1.00800           0
     16008 TIP3     1608     TIP3     H2       HT       0.417000       1.00800           0
     16009 TIP3     1609     TIP3     OH2      OT      -0.834000       15.9994           0
     16010 TIP3     1609     TIP3     H1       HT       0.417000       1.00800           0
     16011 TIP3     1609     TIP3     H2       HT       0.417000       1.00800           0
     16012 TIP3     1610     TIP3     OH2      OT      -0.834000       15.9994           0
     16013 TIP3     1610     TIP3     H1       HT       0.417000       1.00800           0
     16014 TIP3     1610     TIP3     H2       HT       0.417000       1.00800           0
     16015 TIP3     1611     TIP3     OH2      OT      -0.834000       15.9994           0
     16016 TIP3     1611     TIP3     H1       HT       0.417000       1.00800           0
     16017 TIP3     1611     TIP3     H2       HT       0.417000       1.00800           0
     16018 TIP3     1612     TIP3     OH2      OT      -0.834000       15.9994           0
     16019 TIP3     1612     TIP3     H1       HT       0.417000       1.00800           0
     16020 TIP3     1612     TIP3     H2       HT       0.417000       1.00800           0
     16021 TIP3     1613     TIP3     OH2      OT      -0.834000       15.9994           0
     16022 TIP3     1613     TIP3     H1       HT       0.417000       1.00800           0
     16023 TIP3     1613     TIP3     H2       HT       0.417000       1.00800           0
     16024 TIP3     1614     TIP3     OH2      OT      -0.834000       15.9994           0
     16025 TIP3     1614     TIP3     H1       HT       0.417000       1.00800           0
     16026 TIP3     1614     TIP3     H2       HT       0.417000       1.00800           0
     16027 TIP3     1615     TIP3     OH2      OT      -0.834000       15.9994           0
     16028 TIP3     1615     TIP3     H1       HT       0.417000       1.00800           0
     16029 TIP3     1615     TIP3     H2       HT       0.417000       1.00800           0
     16030 TIP3     1616     TIP3     OH2      OT      -0.834000       15.9994           0
     16031 TIP3     1616     TIP3     H1       HT       0.417000       1.00800           0
     16032 TIP3     1616     TIP3     H2       HT       0.417000       1.00800           0
     16033 TIP3     1617     TIP3     OH2      OT      -0.834000       15.9994           0
     16034 TIP3     1617     TIP3     H1       HT       0.417000       1.00800           0
     16035 TIP3     1617     TIP3     H2       HT       0.417000       1.00800           0
     16036 TIP3     1618     TIP3     OH2      OT      -0.834000       15.9994           0
     16037 TIP3     1618     TIP3     H1       HT       0.417000       1.00800           0
     16038 TIP3     1618     TIP3     H2       HT       0.417000       1.00800           0
     16039 TIP3     1619     TIP3     OH2      OT      -0.834000       15.9994           0
     16040 TIP3     1619     TIP3     H1       HT       0.417000       1.00800           0
     16041 TIP3     1619     TIP3     H2       HT       0.417000       1.00800           0
     16042 TIP3     1620     TIP3     OH2      OT      -0.834000       15.9994           0
     16043 TIP3     1620     TIP3     H1       HT       0.417000       1.00800           0
     16044 TIP3     1620     TIP3     H2       HT       0.417000       1.00800           0
     16045 TIP3     1621     TIP3     OH2      OT      -0.834000       15.9994           0
     16046 TIP3     1621     TIP3     H1       HT       0.417000       1.00800           0
     16047 TIP3     1621     TIP3     H2       HT       0.417000       1.00800           0
     16048 TIP3     1622     TIP3     OH2      OT      -0.834000       15.9994           0
     16049 TIP3     1622     TIP3     H1       HT       0.417000       1.00800           0
     16050 TIP3     1622     TIP3     H2       HT       0.417000       1.00800           0
     16051 TIP3     1623     TIP3     OH2      OT      -0.834000       15.9994           0
     16052 TIP3     1623     TIP3     H1       HT       0.417000       1.00800           0
     16053 TIP3     1623     TIP3     H2       HT       0.417000       1.00800           0
     16054 TIP3     1624     TIP3     OH2      OT      -0.834000       15.9994           0
     16055 TIP3     1624     TIP3     H1       HT       0.417000       1.00800           0
     16056 TIP3     1624     TIP3     H2       HT       0.417000       1.00800           0
     16057 TIP3     1625     TIP3     OH2      OT      -0.834000       15.9994           0
     16058 TIP3     1625     TIP3     H1       HT       0.417000       1.00800           0
     16059 TIP3     1625     TIP3     H2       HT       0.417000       1.00800           0
     16060 TIP3     1626     TIP3     OH2      OT      -0.834000       15.9994           0
     16061 TIP3     1626     TIP3     H1       HT       0.417000       1.00800           0
     16062 TIP3     1626     TIP3     H2       HT       0.417000       1.00800           0
     16063 TIP3     1627     TIP3     OH2      OT      -0.834000       15.9994           0
     16064 TIP3     1627     TIP3     H1       HT       0.417000       1.00800           0
     16065 TIP3     1627     TIP3     H2       HT       0.417000       1.00800           0
     16066 TIP3     1628     TIP3     OH2      OT      -0.834000       15.9994           0
     16067 TIP3     1628     TIP3     H1       HT       0.417000       1.00800           0
     16068 TIP3     1628     TIP3     H2       HT       0.417000       1.00800           0
     16069 TIP3     1629     TIP3     OH2      OT      -0.834000       15.9994           0
     16070 TIP3     1629     TIP3     H1       HT       0.417000       1.00800           0
     16071 TIP3     1629     TIP3     H2       HT       0.417000       1.00800           0
     16072 TIP3     1630     TIP3     OH2      OT      -0.834000       15.9994           0
     16073 TIP3     1630     TIP3     H1       HT       0.417000       1.00800           0
     16074 TIP3     1630     TIP3     H2       HT       0.417000       1.00800           0
     16075 TIP3     1631     TIP3     OH2      OT      -0.834000       15.9994           0
     16076 TIP3     1631     TIP3     H1       HT       0.417000       1.00800           0
     16077 TIP3     1631     TIP3     H2       HT       0.417000       1.00800           0
     16078 TIP3     1632     TIP3     OH2      OT      -0.834000       15.9994           0
     16079 TIP3     1632     TIP3     H1       HT       0.417000       1.00800           0
     16080 TIP3     1632     TIP3     H2       HT       0.417000       1.00800           0
     16081 TIP3     1633     TIP3     OH2      OT      -0.834000       15.9994           0
     16082 TIP3     1633     TIP3     H1       HT       0.417000       1.00800           0
     16083 TIP3     1633     TIP3     H2       HT       0.417000       1.00800           0
     16084 TIP3     1634     TIP3     OH2      OT      -0.834000       15.9994           0
     16085 TIP3     1634     TIP3     H1       HT       0.417000       1.00800           0
     16086 TIP3     1634     TIP3     H2       HT       0.417000       1.00800           0
     16087 TIP3     1635     TIP3     OH2      OT      -0.834000       15.9994           0
     16088 TIP3     1635     TIP3     H1       HT       0.417000       1.00800           0
     16089 TIP3     1635     TIP3     H2       HT       0.417000       1.00800           0
     16090 TIP3     1636     TIP3     OH2      OT      -0.834000       15.9994           0
     16091 TIP3     1636     TIP3     H1       HT       0.417000       1.00800           0
     16092 TIP3     1636     TIP3     H2       HT       0.417000       1.00800           0
     16093 TIP3     1637     TIP3     OH2      OT      -0.834000       15.9994           0
     16094 TIP3     1637     TIP3     H1       HT       0.417000       1.00800           0
     16095 TIP3     1637     TIP3     H2       HT       0.417000       1.00800           0
     16096 TIP3     1638     TIP3     OH2      OT      -0.834000       15.9994           0
     16097 TIP3     1638     TIP3     H1       HT       0.417000       1.00800           0
     16098 TIP3     1638     TIP3     H2       HT       0.417000       1.00800           0
     16099 TIP3     1639     TIP3     OH2      OT      -0.834000       15.9994           0
     16100 TIP3     1639     TIP3     H1       HT       0.417000       1.00800           0
     16101 TIP3     1639     TIP3     H2       HT       0.417000       1.00800           0
     16102 TIP3     1640     TIP3     OH2      OT      -0.834000       15.9994           0
     16103 TIP3     1640     TIP3     H1       HT       0.417000       1.00800           0
     16104 TIP3     1640     TIP3     H2       HT       0.417000       1.00800           0
     16105 TIP3     1641     TIP3     OH2      OT      -0.834000       15.9994           0
     16106 TIP3     1641     TIP3     H1       HT       0.417000       1.00800           0
     16107 TIP3     1641     TIP3     H2       HT       0.417000       1.00800           0
     16108 TIP3     1642     TIP3     OH2      OT      -0.834000       15.9994           0
     16109 TIP3     1642     TIP3     H1       HT       0.417000       1.00800           0
     16110 TIP3     1642     TIP3     H2       HT       0.417000       1.00800           0
     16111 TIP3     1643     TIP3     OH2      OT      -0.834000       15.9994           0
     16112 TIP3     1643     TIP3     H1       HT       0.417000       1.00800           0
     16113 TIP3     1643     TIP3     H2       HT       0.417000       1.00800           0
     16114 TIP3     1644     TIP3     OH2      OT      -0.834000       15.9994           0
     16115 TIP3     1644     TIP3     H1       HT       0.417000       1.00800           0
     16116 TIP3     1644     TIP3     H2       HT       0.417000       1.00800           0
     16117 TIP3     1645     TIP3     OH2      OT      -0.834000       15.9994           0
     16118 TIP3     1645     TIP3     H1       HT       0.417000       1.00800           0
     16119 TIP3     1645     TIP3     H2       HT       0.417000       1.00800           0
     16120 TIP3     1646     TIP3     OH2      OT      -0.834000       15.9994           0
     16121 TIP3     1646     TIP3     H1       HT       0.417000       1.00800           0
     16122 TIP3     1646     TIP3     H2       HT       0.417000       1.00800           0
     16123 TIP3     1647     TIP3     OH2      OT      -0.834000       15.9994           0
     16124 TIP3     1647     TIP3     H1       HT       0.417000       1.00800           0
     16125 TIP3     1647     TIP3     H2       HT       0.417000       1.00800           0
     16126 TIP3     1648     TIP3     OH2      OT      -0.834000       15.9994           0
     16127 TIP3     1648     TIP3     H1       HT       0.417000       1.00800           0
     16128 TIP3     1648     TIP3     H2       HT       0.417000       1.00800           0
     16129 TIP3     1649     TIP3     OH2      OT      -0.834000       15.9994           0
     16130 TIP3     1649     TIP3     H1       HT       0.417000       1.00800           0
     16131 TIP3     1649     TIP3     H2       HT       0.417000       1.00800           0
     16132 TIP3     1650     TIP3     OH2      OT      -0.834000       15.9994           0
     16133 TIP3     1650     TIP3     H1       HT       0.417000       1.00800           0
     16134 TIP3     1650     TIP3     H2       HT       0.417000       1.00800           0
     16135 TIP3     1651     TIP3     OH2      OT      -0.834000       15.9994           0
     16136 TIP3     1651     TIP3     H1       HT       0.417000       1.00800           0
     16137 TIP3     1651     TIP3     H2       HT       0.417000       1.00800           0
     16138 TIP3     1652     TIP3     OH2      OT      -0.834000       15.9994           0
     16139 TIP3     1652     TIP3     H1       HT       0.417000       1.00800           0
     16140 TIP3     1652     TIP3     H2       HT       0.417000       1.00800           0
     16141 TIP3     1653     TIP3     OH2      OT      -0.834000       15.9994           0
     16142 TIP3     1653     TIP3     H1       HT       0.417000       1.00800           0
     16143 TIP3     1653     TIP3     H2       HT       0.417000       1.00800           0
     16144 TIP3     1654     TIP3     OH2      OT      -0.834000       15.9994           0
     16145 TIP3     1654     TIP3     H1       HT       0.417000       1.00800           0
     16146 TIP3     1654     TIP3     H2       HT       0.417000       1.00800           0
     16147 TIP3     1655     TIP3     OH2      OT      -0.834000       15.9994           0
     16148 TIP3     1655     TIP3     H1       HT       0.417000       1.00800           0
     16149 TIP3     1655     TIP3     H2       HT       0.417000       1.00800           0
     16150 TIP3     1656     TIP3     OH2      OT      -0.834000       15.9994           0
     16151 TIP3     1656     TIP3     H1       HT       0.417000       1.00800           0
     16152 TIP3     1656     TIP3     H2       HT       0.417000       1.00800           0
     16153 TIP3     1657     TIP3     OH2      OT      -0.834000       15.9994           0
     16154 TIP3     1657     TIP3     H1       HT       0.417000       1.00800           0
     16155 TIP3     1657     TIP3     H2       HT       0.417000       1.00800           0
     16156 TIP3     1658     TIP3     OH2      OT      -0.834000       15.9994           0
     16157 TIP3     1658     TIP3     H1       HT       0.417000       1.00800           0
     16158 TIP3     1658     TIP3     H2       HT       0.417000       1.00800           0
     16159 TIP3     1659     TIP3     OH2      OT      -0.834000       15.9994           0
     16160 TIP3     1659     TIP3     H1       HT       0.417000       1.00800           0
     16161 TIP3     1659     TIP3     H2       HT       0.417000       1.00800           0
     16162 TIP3     1660     TIP3     OH2      OT      -0.834000       15.9994           0
     16163 TIP3     1660     TIP3     H1       HT       0.417000       1.00800           0
     16164 TIP3     1660     TIP3     H2       HT       0.417000       1.00800           0
     16165 TIP3     1661     TIP3     OH2      OT      -0.834000       15.9994           0
     16166 TIP3     1661     TIP3     H1       HT       0.417000       1.00800           0
     16167 TIP3     1661     TIP3     H2       HT       0.417000       1.00800           0
     16168 TIP3     1662     TIP3     OH2      OT      -0.834000       15.9994           0
     16169 TIP3     1662     TIP3     H1       HT       0.417000       1.00800           0
     16170 TIP3     1662     TIP3     H2       HT       0.417000       1.00800           0
     16171 TIP3     1663     TIP3     OH2      OT      -0.834000       15.9994           0
     16172 TIP3     1663     TIP3     H1       HT       0.417000       1.00800           0
     16173 TIP3     1663     TIP3     H2       HT       0.417000       1.00800           0
     16174 TIP3     1664     TIP3     OH2      OT      -0.834000       15.9994           0
     16175 TIP3     1664     TIP3     H1       HT       0.417000       1.00800           0
     16176 TIP3     1664     TIP3     H2       HT       0.417000       1.00800           0
     16177 TIP3     1665     TIP3     OH2      OT      -0.834000       15.9994           0
     16178 TIP3     1665     TIP3     H1       HT       0.417000       1.00800           0
     16179 TIP3     1665     TIP3     H2       HT       0.417000       1.00800           0
     16180 TIP3     1666     TIP3     OH2      OT      -0.834000       15.9994           0
     16181 TIP3     1666     TIP3     H1       HT       0.417000       1.00800           0
     16182 TIP3     1666     TIP3     H2       HT       0.417000       1.00800           0
     16183 TIP3     1667     TIP3     OH2      OT      -0.834000       15.9994           0
     16184 TIP3     1667     TIP3     H1       HT       0.417000       1.00800           0
     16185 TIP3     1667     TIP3     H2       HT       0.417000       1.00800           0
     16186 TIP3     1668     TIP3     OH2      OT      -0.834000       15.9994           0
     16187 TIP3     1668     TIP3     H1       HT       0.417000       1.00800           0
     16188 TIP3     1668     TIP3     H2       HT       0.417000       1.00800           0
     16189 TIP3     1669     TIP3     OH2      OT      -0.834000       15.9994           0
     16190 TIP3     1669     TIP3     H1       HT       0.417000       1.00800           0
     16191 TIP3     1669     TIP3     H2       HT       0.417000       1.00800           0
     16192 TIP3     1670     TIP3     OH2      OT      -0.834000       15.9994           0
     16193 TIP3     1670     TIP3     H1       HT       0.417000       1.00800           0
     16194 TIP3     1670     TIP3     H2       HT       0.417000       1.00800           0
     16195 TIP3     1671     TIP3     OH2      OT      -0.834000       15.9994           0
     16196 TIP3     1671     TIP3     H1       HT       0.417000       1.00800           0
     16197 TIP3     1671     TIP3     H2       HT       0.417000       1.00800           0
     16198 TIP3     1672     TIP3     OH2      OT      -0.834000       15.9994           0
     16199 TIP3     1672     TIP3     H1       HT       0.417000       1.00800           0
     16200 TIP3     1672     TIP3     H2       HT       0.417000       1.00800           0
     16201 TIP3     1673     TIP3     OH2      OT      -0.834000       15.9994           0
     16202 TIP3     1673     TIP3     H1       HT       0.417000       1.00800           0
     16203 TIP3     1673     TIP3     H2       HT       0.417000       1.00800           0
     16204 TIP3     1674     TIP3     OH2      OT      -0.834000       15.9994           0
     16205 TIP3     1674     TIP3     H1       HT       0.417000       1.00800           0
     16206 TIP3     1674     TIP3     H2       HT       0.417000       1.00800           0
     16207 TIP3     1675     TIP3     OH2      OT      -0.834000       15.9994           0
     16208 TIP3     1675     TIP3     H1       HT       0.417000       1.00800           0
     16209 TIP3     1675     TIP3     H2       HT       0.417000       1.00800           0
     16210 TIP3     1676     TIP3     OH2      OT      -0.834000       15.9994           0
     16211 TIP3     1676     TIP3     H1       HT       0.417000       1.00800           0
     16212 TIP3     1676     TIP3     H2       HT       0.417000       1.00800           0
     16213 TIP3     1677     TIP3     OH2      OT      -0.834000       15.9994           0
     16214 TIP3     1677     TIP3     H1       HT       0.417000       1.00800           0
     16215 TIP3     1677     TIP3     H2       HT       0.417000       1.00800           0
     16216 TIP3     1678     TIP3     OH2      OT      -0.834000       15.9994           0
     16217 TIP3     1678     TIP3     H1       HT       0.417000       1.00800           0
     16218 TIP3     1678     TIP3     H2       HT       0.417000       1.00800           0
     16219 TIP3     1679     TIP3     OH2      OT      -0.834000       15.9994           0
     16220 TIP3     1679     TIP3     H1       HT       0.417000       1.00800           0
     16221 TIP3     1679     TIP3     H2       HT       0.417000       1.00800           0
     16222 TIP3     1680     TIP3     OH2      OT      -0.834000       15.9994           0
     16223 TIP3     1680     TIP3     H1       HT       0.417000       1.00800           0
     16224 TIP3     1680     TIP3     H2       HT       0.417000       1.00800           0
     16225 TIP3     1681     TIP3     OH2      OT      -0.834000       15.9994           0
     16226 TIP3     1681     TIP3     H1       HT       0.417000       1.00800           0
     16227 TIP3     1681     TIP3     H2       HT       0.417000       1.00800           0
     16228 TIP3     1682     TIP3     OH2      OT      -0.834000       15.9994           0
     16229 TIP3     1682     TIP3     H1       HT       0.417000       1.00800           0
     16230 TIP3     1682     TIP3     H2       HT       0.417000       1.00800           0
     16231 TIP3     1683     TIP3     OH2      OT      -0.834000       15.9994           0
     16232 TIP3     1683     TIP3     H1       HT       0.417000       1.00800           0
     16233 TIP3     1683     TIP3     H2       HT       0.417000       1.00800           0
     16234 TIP3     1684     TIP3     OH2      OT      -0.834000       15.9994           0
     16235 TIP3     1684     TIP3     H1       HT       0.417000       1.00800           0
     16236 TIP3     1684     TIP3     H2       HT       0.417000       1.00800           0
     16237 TIP3     1685     TIP3     OH2      OT      -0.834000       15.9994           0
     16238 TIP3     1685     TIP3     H1       HT       0.417000       1.00800           0
     16239 TIP3     1685     TIP3     H2       HT       0.417000       1.00800           0
     16240 TIP3     1686     TIP3     OH2      OT      -0.834000       15.9994           0
     16241 TIP3     1686     TIP3     H1       HT       0.417000       1.00800           0
     16242 TIP3     1686     TIP3     H2       HT       0.417000       1.00800           0
     16243 TIP3     1687     TIP3     OH2      OT      -0.834000       15.9994           0
     16244 TIP3     1687     TIP3     H1       HT       0.417000       1.00800           0
     16245 TIP3     1687     TIP3     H2       HT       0.417000       1.00800           0
     16246 TIP3     1688     TIP3     OH2      OT      -0.834000       15.9994           0
     16247 TIP3     1688     TIP3     H1       HT       0.417000       1.00800           0
     16248 TIP3     1688     TIP3     H2       HT       0.417000       1.00800           0
     16249 TIP3     1689     TIP3     OH2      OT      -0.834000       15.9994           0
     16250 TIP3     1689     TIP3     H1       HT       0.417000       1.00800           0
     16251 TIP3     1689     TIP3     H2       HT       0.417000       1.00800           0
     16252 TIP3     1690     TIP3     OH2      OT      -0.834000       15.9994           0
     16253 TIP3     1690     TIP3     H1       HT       0.417000       1.00800           0
     16254 TIP3     1690     TIP3     H2       HT       0.417000       1.00800           0
     16255 TIP3     1691     TIP3     OH2      OT      -0.834000       15.9994           0
     16256 TIP3     1691     TIP3     H1       HT       0.417000       1.00800           0
     16257 TIP3     1691     TIP3     H2       HT       0.417000       1.00800           0
     16258 TIP3     1692     TIP3     OH2      OT      -0.834000       15.9994           0
     16259 TIP3     1692     TIP3     H1       HT       0.417000       1.00800           0
     16260 TIP3     1692     TIP3     H2       HT       0.417000       1.00800           0
     16261 TIP3     1693     TIP3     OH2      OT      -0.834000       15.9994           0
     16262 TIP3     1693     TIP3     H1       HT       0.417000       1.00800           0
     16263 TIP3     1693     TIP3     H2       HT       0.417000       1.00800           0
     16264 TIP3     1694     TIP3     OH2      OT      -0.834000       15.9994           0
     16265 TIP3     1694     TIP3     H1       HT       0.417000       1.00800           0
     16266 TIP3     1694     TIP3     H2       HT       0.417000       1.00800           0
     16267 TIP3     1695     TIP3     OH2      OT      -0.834000       15.9994           0
     16268 TIP3     1695     TIP3     H1       HT       0.417000       1.00800           0
     16269 TIP3     1695     TIP3     H2       HT       0.417000       1.00800           0
     16270 TIP3     1696     TIP3     OH2      OT      -0.834000       15.9994           0
     16271 TIP3     1696     TIP3     H1       HT       0.417000       1.00800           0
     16272 TIP3     1696     TIP3     H2       HT       0.417000       1.00800           0
     16273 TIP3     1697     TIP3     OH2      OT      -0.834000       15.9994           0
     16274 TIP3     1697     TIP3     H1       HT       0.417000       1.00800           0
     16275 TIP3     1697     TIP3     H2       HT       0.417000       1.00800           0
     16276 TIP3     1698     TIP3     OH2      OT      -0.834000       15.9994           0
     16277 TIP3     1698     TIP3     H1       HT       0.417000       1.00800           0
     16278 TIP3     1698     TIP3     H2       HT       0.417000       1.00800           0
     16279 TIP3     1699     TIP3     OH2      OT      -0.834000       15.9994           0
     16280 TIP3     1699     TIP3     H1       HT       0.417000       1.00800           0
     16281 TIP3     1699     TIP3     H2       HT       0.417000       1.00800           0
     16282 TIP3     1700     TIP3     OH2      OT      -0.834000       15.9994           0
     16283 TIP3     1700     TIP3     H1       HT       0.417000       1.00800           0
     16284 TIP3     1700     TIP3     H2       HT       0.417000       1.00800           0
     16285 TIP3     1701     TIP3     OH2      OT      -0.834000       15.9994           0
     16286 TIP3     1701     TIP3     H1       HT       0.417000       1.00800           0
     16287 TIP3     1701     TIP3     H2       HT       0.417000       1.00800           0
     16288 TIP3     1702     TIP3     OH2      OT      -0.834000       15.9994           0
     16289 TIP3     1702     TIP3     H1       HT       0.417000       1.00800           0
     16290 TIP3     1702     TIP3     H2       HT       0.417000       1.00800           0
     16291 TIP3     1703     TIP3     OH2      OT      -0.834000       15.9994           0
     16292 TIP3     1703     TIP3     H1       HT       0.417000       1.00800           0
     16293 TIP3     1703     TIP3     H2       HT       0.417000       1.00800           0
     16294 TIP3     1704     TIP3     OH2      OT      -0.834000       15.9994           0
     16295 TIP3     1704     TIP3     H1       HT       0.417000       1.00800           0
     16296 TIP3     1704     TIP3     H2       HT       0.417000       1.00800           0
     16297 TIP3     1705     TIP3     OH2      OT      -0.834000       15.9994           0
     16298 TIP3     1705     TIP3     H1       HT       0.417000       1.00800           0
     16299 TIP3     1705     TIP3     H2       HT       0.417000       1.00800           0
     16300 TIP3     1706     TIP3     OH2      OT      -0.834000       15.9994           0
     16301 TIP3     1706     TIP3     H1       HT       0.417000       1.00800           0
     16302 TIP3     1706     TIP3     H2       HT       0.417000       1.00800           0
     16303 TIP3     1707     TIP3     OH2      OT      -0.834000       15.9994           0
     16304 TIP3     1707     TIP3     H1       HT       0.417000       1.00800           0
     16305 TIP3     1707     TIP3     H2       HT       0.417000       1.00800           0
     16306 TIP3     1708     TIP3     OH2      OT      -0.834000       15.9994           0
     16307 TIP3     1708     TIP3     H1       HT       0.417000       1.00800           0
     16308 TIP3     1708     TIP3     H2       HT       0.417000       1.00800           0
     16309 TIP3     1709     TIP3     OH2      OT      -0.834000       15.9994           0
     16310 TIP3     1709     TIP3     H1       HT       0.417000       1.00800           0
     16311 TIP3     1709     TIP3     H2       HT       0.417000       1.00800           0
     16312 TIP3     1710     TIP3     OH2      OT      -0.834000       15.9994           0
     16313 TIP3     1710     TIP3     H1       HT       0.417000       1.00800           0
     16314 TIP3     1710     TIP3     H2       HT       0.417000       1.00800           0
     16315 TIP3     1711     TIP3     OH2      OT      -0.834000       15.9994           0
     16316 TIP3     1711     TIP3     H1       HT       0.417000       1.00800           0
     16317 TIP3     1711     TIP3     H2       HT       0.417000       1.00800           0
     16318 TIP3     1712     TIP3     OH2      OT      -0.834000       15.9994           0
     16319 TIP3     1712     TIP3     H1       HT       0.417000       1.00800           0
     16320 TIP3     1712     TIP3     H2       HT       0.417000       1.00800           0
     16321 TIP3     1713     TIP3     OH2      OT      -0.834000       15.9994           0
     16322 TIP3     1713     TIP3     H1       HT       0.417000       1.00800           0
     16323 TIP3     1713     TIP3     H2       HT       0.417000       1.00800           0
     16324 TIP3     1714     TIP3     OH2      OT      -0.834000       15.9994           0
     16325 TIP3     1714     TIP3     H1       HT       0.417000       1.00800           0
     16326 TIP3     1714     TIP3     H2       HT       0.417000       1.00800           0
     16327 TIP3     1715     TIP3     OH2      OT      -0.834000       15.9994           0
     16328 TIP3     1715     TIP3     H1       HT       0.417000       1.00800           0
     16329 TIP3     1715     TIP3     H2       HT       0.417000       1.00800           0
     16330 TIP3     1716     TIP3     OH2      OT      -0.834000       15.9994           0
     16331 TIP3     1716     TIP3     H1       HT       0.417000       1.00800           0
     16332 TIP3     1716     TIP3     H2       HT       0.417000       1.00800           0
     16333 TIP3     1717     TIP3     OH2      OT      -0.834000       15.9994           0
     16334 TIP3     1717     TIP3     H1       HT       0.417000       1.00800           0
     16335 TIP3     1717     TIP3     H2       HT       0.417000       1.00800           0
     16336 TIP3     1718     TIP3     OH2      OT      -0.834000       15.9994           0
     16337 TIP3     1718     TIP3     H1       HT       0.417000       1.00800           0
     16338 TIP3     1718     TIP3     H2       HT       0.417000       1.00800           0
     16339 TIP3     1719     TIP3     OH2      OT      -0.834000       15.9994           0
     16340 TIP3     1719     TIP3     H1       HT       0.417000       1.00800           0
     16341 TIP3     1719     TIP3     H2       HT       0.417000       1.00800           0
     16342 TIP3     1720     TIP3     OH2      OT      -0.834000       15.9994           0
     16343 TIP3     1720     TIP3     H1       HT       0.417000       1.00800           0
     16344 TIP3     1720     TIP3     H2       HT       0.417000       1.00800           0
     16345 TIP3     1721     TIP3     OH2      OT      -0.834000       15.9994           0
     16346 TIP3     1721     TIP3     H1       HT       0.417000       1.00800           0
     16347 TIP3     1721     TIP3     H2       HT       0.417000       1.00800           0
     16348 TIP3     1722     TIP3     OH2      OT      -0.834000       15.9994           0
     16349 TIP3     1722     TIP3     H1       HT       0.417000       1.00800           0
     16350 TIP3     1722     TIP3     H2       HT       0.417000       1.00800           0
     16351 TIP3     1723     TIP3     OH2      OT      -0.834000       15.9994           0
     16352 TIP3     1723     TIP3     H1       HT       0.417000       1.00800           0
     16353 TIP3     1723     TIP3     H2       HT       0.417000       1.00800           0
     16354 TIP3     1724     TIP3     OH2      OT      -0.834000       15.9994           0
     16355 TIP3     1724     TIP3     H1       HT       0.417000       1.00800           0
     16356 TIP3     1724     TIP3     H2       HT       0.417000       1.00800           0
     16357 TIP3     1725     TIP3     OH2      OT      -0.834000       15.9994           0
     16358 TIP3     1725     TIP3     H1       HT       0.417000       1.00800           0
     16359 TIP3     1725     TIP3     H2       HT       0.417000       1.00800           0
     16360 TIP3     1726     TIP3     OH2      OT      -0.834000       15.9994           0
     16361 TIP3     1726     TIP3     H1       HT       0.417000       1.00800           0
     16362 TIP3     1726     TIP3     H2       HT       0.417000       1.00800           0
     16363 TIP3     1727     TIP3     OH2      OT      -0.834000       15.9994           0
     16364 TIP3     1727     TIP3     H1       HT       0.417000       1.00800           0
     16365 TIP3     1727     TIP3     H2       HT       0.417000       1.00800           0
     16366 TIP3     1728     TIP3     OH2      OT      -0.834000       15.9994           0
     16367 TIP3     1728     TIP3     H1       HT       0.417000       1.00800           0
     16368 TIP3     1728     TIP3     H2       HT       0.417000       1.00800           0
     16369 TIP3     1729     TIP3     OH2      OT      -0.834000       15.9994           0
     16370 TIP3     1729     TIP3     H1       HT       0.417000       1.00800           0
     16371 TIP3     1729     TIP3     H2       HT       0.417000       1.00800           0
     16372 TIP3     1730     TIP3     OH2      OT      -0.834000       15.9994           0
     16373 TIP3     1730     TIP3     H1       HT       0.417000       1.00800           0
     16374 TIP3     1730     TIP3     H2       HT       0.417000       1.00800           0
     16375 TIP3     1731     TIP3     OH2      OT      -0.834000       15.9994           0
     16376 TIP3     1731     TIP3     H1       HT       0.417000       1.00800           0
     16377 TIP3     1731     TIP3     H2       HT       0.417000       1.00800           0
     16378 TIP3     1732     TIP3     OH2      OT      -0.834000       15.9994           0
     16379 TIP3     1732     TIP3     H1       HT       0.417000       1.00800           0
     16380 TIP3     1732     TIP3     H2       HT       0.417000       1.00800           0
     16381 TIP3     1733     TIP3     OH2      OT      -0.834000       15.9994           0
     16382 TIP3     1733     TIP3     H1       HT       0.417000       1.00800           0
     16383 TIP3     1733     TIP3     H2       HT       0.417000       1.00800           0
     16384 TIP3     1734     TIP3     OH2      OT      -0.834000       15.9994           0
     16385 TIP3     1734     TIP3     H1       HT       0.417000       1.00800           0
     16386 TIP3     1734     TIP3     H2       HT       0.417000       1.00800           0
     16387 TIP3     1735     TIP3     OH2      OT      -0.834000       15.9994           0
     16388 TIP3     1735     TIP3     H1       HT       0.417000       1.00800           0
     16389 TIP3     1735     TIP3     H2       HT       0.417000       1.00800           0
     16390 TIP3     1736     TIP3     OH2      OT      -0.834000       15.9994           0
     16391 TIP3     1736     TIP3     H1       HT       0.417000       1.00800           0
     16392 TIP3     1736     TIP3     H2       HT       0.417000       1.00800           0
     16393 TIP3     1737     TIP3     OH2      OT      -0.834000       15.9994           0
     16394 TIP3     1737     TIP3     H1       HT       0.417000       1.00800           0
     16395 TIP3     1737     TIP3     H2       HT       0.417000       1.00800           0
     16396 TIP3     1738     TIP3     OH2      OT      -0.834000       15.9994           0
     16397 TIP3     1738     TIP3     H1       HT       0.417000       1.00800           0
     16398 TIP3     1738     TIP3     H2       HT       0.417000       1.00800           0
     16399 TIP3     1739     TIP3     OH2      OT      -0.834000       15.9994           0
     16400 TIP3     1739     TIP3     H1       HT       0.417000       1.00800           0
     16401 TIP3     1739     TIP3     H2       HT       0.417000       1.00800           0
     16402 TIP3     1740     TIP3     OH2      OT      -0.834000       15.9994           0
     16403 TIP3     1740     TIP3     H1       HT       0.417000       1.00800           0
     16404 TIP3     1740     TIP3     H2       HT       0.417000       1.00800           0
     16405 TIP3     1741     TIP3     OH2      OT      -0.834000       15.9994           0
     16406 TIP3     1741     TIP3     H1       HT       0.417000       1.00800           0
     16407 TIP3     1741     TIP3     H2       HT       0.417000       1.00800           0
     16408 TIP3     1742     TIP3     OH2      OT      -0.834000       15.9994           0
     16409 TIP3     1742     TIP3     H1       HT       0.417000       1.00800           0
     16410 TIP3     1742     TIP3     H2       HT       0.417000       1.00800           0
     16411 TIP3     1743     TIP3     OH2      OT      -0.834000       15.9994           0
     16412 TIP3     1743     TIP3     H1       HT       0.417000       1.00800           0
     16413 TIP3     1743     TIP3     H2       HT       0.417000       1.00800           0
     16414 TIP3     1744     TIP3     OH2      OT      -0.834000       15.9994           0
     16415 TIP3     1744     TIP3     H1       HT       0.417000       1.00800           0
     16416 TIP3     1744     TIP3     H2       HT       0.417000       1.00800           0
     16417 TIP3     1745     TIP3     OH2      OT      -0.834000       15.9994           0
     16418 TIP3     1745     TIP3     H1       HT       0.417000       1.00800           0
     16419 TIP3     1745     TIP3     H2       HT       0.417000       1.00800           0
     16420 TIP3     1746     TIP3     OH2      OT      -0.834000       15.9994           0
     16421 TIP3     1746     TIP3     H1       HT       0.417000       1.00800           0
     16422 TIP3     1746     TIP3     H2       HT       0.417000       1.00800           0
     16423 TIP3     1747     TIP3     OH2      OT      -0.834000       15.9994           0
     16424 TIP3     1747     TIP3     H1       HT       0.417000       1.00800           0
     16425 TIP3     1747     TIP3     H2       HT       0.417000       1.00800           0
     16426 TIP3     1748     TIP3     OH2      OT      -0.834000       15.9994           0
     16427 TIP3     1748     TIP3     H1       HT       0.417000       1.00800           0
     16428 TIP3     1748     TIP3     H2       HT       0.417000       1.00800           0
     16429 TIP3     1749     TIP3     OH2      OT      -0.834000       15.9994           0
     16430 TIP3     1749     TIP3     H1       HT       0.417000       1.00800           0
     16431 TIP3     1749     TIP3     H2       HT       0.417000       1.00800           0
     16432 TIP3     1750     TIP3     OH2      OT      -0.834000       15.9994           0
     16433 TIP3     1750     TIP3     H1       HT       0.417000       1.00800           0
     16434 TIP3     1750     TIP3     H2       HT       0.417000       1.00800           0
     16435 TIP3     1751     TIP3     OH2      OT      -0.834000       15.9994           0
     16436 TIP3     1751     TIP3     H1       HT       0.417000       1.00800           0
     16437 TIP3     1751     TIP3     H2       HT       0.417000       1.00800           0
     16438 TIP3     1752     TIP3     OH2      OT      -0.834000       15.9994           0
     16439 TIP3     1752     TIP3     H1       HT       0.417000       1.00800           0
     16440 TIP3     1752     TIP3     H2       HT       0.417000       1.00800           0
     16441 TIP3     1753     TIP3     OH2      OT      -0.834000       15.9994           0
     16442 TIP3     1753     TIP3     H1       HT       0.417000       1.00800           0
     16443 TIP3     1753     TIP3     H2       HT       0.417000       1.00800           0
     16444 TIP3     1754     TIP3     OH2      OT      -0.834000       15.9994           0
     16445 TIP3     1754     TIP3     H1       HT       0.417000       1.00800           0
     16446 TIP3     1754     TIP3     H2       HT       0.417000       1.00800           0
     16447 TIP3     1755     TIP3     OH2      OT      -0.834000       15.9994           0
     16448 TIP3     1755     TIP3     H1       HT       0.417000       1.00800           0
     16449 TIP3     1755     TIP3     H2       HT       0.417000       1.00800           0
     16450 TIP3     1756     TIP3     OH2      OT      -0.834000       15.9994           0
     16451 TIP3     1756     TIP3     H1       HT       0.417000       1.00800           0
     16452 TIP3     1756     TIP3     H2       HT       0.417000       1.00800           0
     16453 TIP3     1757     TIP3     OH2      OT      -0.834000       15.9994           0
     16454 TIP3     1757     TIP3     H1       HT       0.417000       1.00800           0
     16455 TIP3     1757     TIP3     H2       HT       0.417000       1.00800           0
     16456 TIP3     1758     TIP3     OH2      OT      -0.834000       15.9994           0
     16457 TIP3     1758     TIP3     H1       HT       0.417000       1.00800           0
     16458 TIP3     1758     TIP3     H2       HT       0.417000       1.00800           0
     16459 TIP3     1759     TIP3     OH2      OT      -0.834000       15.9994           0
     16460 TIP3     1759     TIP3     H1       HT       0.417000       1.00800           0
     16461 TIP3     1759     TIP3     H2       HT       0.417000       1.00800           0
     16462 TIP3     1760     TIP3     OH2      OT      -0.834000       15.9994           0
     16463 TIP3     1760     TIP3     H1       HT       0.417000       1.00800           0
     16464 TIP3     1760     TIP3     H2       HT       0.417000       1.00800           0
     16465 TIP3     1761     TIP3     OH2      OT      -0.834000       15.9994           0
     16466 TIP3     1761     TIP3     H1       HT       0.417000       1.00800           0
     16467 TIP3     1761     TIP3     H2       HT       0.417000       1.00800           0
     16468 TIP3     1762     TIP3     OH2      OT      -0.834000       15.9994           0
     16469 TIP3     1762     TIP3     H1       HT       0.417000       1.00800           0
     16470 TIP3     1762     TIP3     H2       HT       0.417000       1.00800           0
     16471 TIP3     1763     TIP3     OH2      OT      -0.834000       15.9994           0
     16472 TIP3     1763     TIP3     H1       HT       0.417000       1.00800           0
     16473 TIP3     1763     TIP3     H2       HT       0.417000       1.00800           0
     16474 TIP3     1764     TIP3     OH2      OT      -0.834000       15.9994           0
     16475 TIP3     1764     TIP3     H1       HT       0.417000       1.00800           0
     16476 TIP3     1764     TIP3     H2       HT       0.417000       1.00800           0
     16477 TIP3     1765     TIP3     OH2      OT      -0.834000       15.9994           0
     16478 TIP3     1765     TIP3     H1       HT       0.417000       1.00800           0
     16479 TIP3     1765     TIP3     H2       HT       0.417000       1.00800           0
     16480 TIP3     1766     TIP3     OH2      OT      -0.834000       15.9994           0
     16481 TIP3     1766     TIP3     H1       HT       0.417000       1.00800           0
     16482 TIP3     1766     TIP3     H2       HT       0.417000       1.00800           0
     16483 TIP3     1767     TIP3     OH2      OT      -0.834000       15.9994           0
     16484 TIP3     1767     TIP3     H1       HT       0.417000       1.00800           0
     16485 TIP3     1767     TIP3     H2       HT       0.417000       1.00800           0
     16486 TIP3     1768     TIP3     OH2      OT      -0.834000       15.9994           0
     16487 TIP3     1768     TIP3     H1       HT       0.417000       1.00800           0
     16488 TIP3     1768     TIP3     H2       HT       0.417000       1.00800           0
     16489 TIP3     1769     TIP3     OH2      OT      -0.834000       15.9994           0
     16490 TIP3     1769     TIP3     H1       HT       0.417000       1.00800           0
     16491 TIP3     1769     TIP3     H2       HT       0.417000       1.00800           0
     16492 TIP3     1770     TIP3     OH2      OT      -0.834000       15.9994           0
     16493 TIP3     1770     TIP3     H1       HT       0.417000       1.00800           0
     16494 TIP3     1770     TIP3     H2       HT       0.417000       1.00800           0
     16495 TIP3     1771     TIP3     OH2      OT      -0.834000       15.9994           0
     16496 TIP3     1771     TIP3     H1       HT       0.417000       1.00800           0
     16497 TIP3     1771     TIP3     H2       HT       0.417000       1.00800           0
     16498 TIP3     1772     TIP3     OH2      OT      -0.834000       15.9994           0
     16499 TIP3     1772     TIP3     H1       HT       0.417000       1.00800           0
     16500 TIP3     1772     TIP3     H2       HT       0.417000       1.00800           0
     16501 TIP3     1773     TIP3     OH2      OT      -0.834000       15.9994           0
     16502 TIP3     1773     TIP3     H1       HT       0.417000       1.00800           0
     16503 TIP3     1773     TIP3     H2       HT       0.417000       1.00800           0
     16504 TIP3     1774     TIP3     OH2      OT      -0.834000       15.9994           0
     16505 TIP3     1774     TIP3     H1       HT       0.417000       1.00800           0
     16506 TIP3     1774     TIP3     H2       HT       0.417000       1.00800           0
     16507 TIP3     1775     TIP3     OH2      OT      -0.834000       15.9994           0
     16508 TIP3     1775     TIP3     H1       HT       0.417000       1.00800           0
     16509 TIP3     1775     TIP3     H2       HT       0.417000       1.00800           0
     16510 TIP3     1776     TIP3     OH2      OT      -0.834000       15.9994           0
     16511 TIP3     1776     TIP3     H1       HT       0.417000       1.00800           0
     16512 TIP3     1776     TIP3     H2       HT       0.417000       1.00800           0
     16513 TIP3     1777     TIP3     OH2      OT      -0.834000       15.9994           0
     16514 TIP3     1777     TIP3     H1       HT       0.417000       1.00800           0
     16515 TIP3     1777     TIP3     H2       HT       0.417000       1.00800           0
     16516 TIP3     1778     TIP3     OH2      OT      -0.834000       15.9994           0
     16517 TIP3     1778     TIP3     H1       HT       0.417000       1.00800           0
     16518 TIP3     1778     TIP3     H2       HT       0.417000       1.00800           0
     16519 TIP3     1779     TIP3     OH2      OT      -0.834000       15.9994           0
     16520 TIP3     1779     TIP3     H1       HT       0.417000       1.00800           0
     16521 TIP3     1779     TIP3     H2       HT       0.417000       1.00800           0
     16522 TIP3     1780     TIP3     OH2      OT      -0.834000       15.9994           0
     16523 TIP3     1780     TIP3     H1       HT       0.417000       1.00800           0
     16524 TIP3     1780     TIP3     H2       HT       0.417000       1.00800           0
     16525 TIP3     1781     TIP3     OH2      OT      -0.834000       15.9994           0
     16526 TIP3     1781     TIP3     H1       HT       0.417000       1.00800           0
     16527 TIP3     1781     TIP3     H2       HT       0.417000       1.00800           0
     16528 TIP3     1782     TIP3     OH2      OT      -0.834000       15.9994           0
     16529 TIP3     1782     TIP3     H1       HT       0.417000       1.00800           0
     16530 TIP3     1782     TIP3     H2       HT       0.417000       1.00800           0
     16531 TIP3     1783     TIP3     OH2      OT      -0.834000       15.9994           0
     16532 TIP3     1783     TIP3     H1       HT       0.417000       1.00800           0
     16533 TIP3     1783     TIP3     H2       HT       0.417000       1.00800           0
     16534 TIP3     1784     TIP3     OH2      OT      -0.834000       15.9994           0
     16535 TIP3     1784     TIP3     H1       HT       0.417000       1.00800           0
     16536 TIP3     1784     TIP3     H2       HT       0.417000       1.00800           0
     16537 TIP3     1785     TIP3     OH2      OT      -0.834000       15.9994           0
     16538 TIP3     1785     TIP3     H1       HT       0.417000       1.00800           0
     16539 TIP3     1785     TIP3     H2       HT       0.417000       1.00800           0
     16540 TIP3     1786     TIP3     OH2      OT      -0.834000       15.9994           0
     16541 TIP3     1786     TIP3     H1       HT       0.417000       1.00800           0
     16542 TIP3     1786     TIP3     H2       HT       0.417000       1.00800           0
     16543 TIP3     1787     TIP3     OH2      OT      -0.834000       15.9994           0
     16544 TIP3     1787     TIP3     H1       HT       0.417000       1.00800           0
     16545 TIP3     1787     TIP3     H2       HT       0.417000       1.00800           0
     16546 TIP3     1788     TIP3     OH2      OT      -0.834000       15.9994           0
     16547 TIP3     1788     TIP3     H1       HT       0.417000       1.00800           0
     16548 TIP3     1788     TIP3     H2       HT       0.417000       1.00800           0
     16549 TIP3     1789     TIP3     OH2      OT      -0.834000       15.9994           0
     16550 TIP3     1789     TIP3     H1       HT       0.417000       1.00800           0
     16551 TIP3     1789     TIP3     H2       HT       0.417000       1.00800           0
     16552 TIP3     1790     TIP3     OH2      OT      -0.834000       15.9994           0
     16553 TIP3     1790     TIP3     H1       HT       0.417000       1.00800           0
     16554 TIP3     1790     TIP3     H2       HT       0.417000       1.00800           0
     16555 TIP3     1791     TIP3     OH2      OT      -0.834000       15.9994           0
     16556 TIP3     1791     TIP3     H1       HT       0.417000       1.00800           0
     16557 TIP3     1791     TIP3     H2       HT       0.417000       1.00800           0
     16558 TIP3     1792     TIP3     OH2      OT      -0.834000       15.9994           0
     16559 TIP3     1792     TIP3     H1       HT       0.417000       1.00800           0
     16560 TIP3     1792     TIP3     H2       HT       0.417000       1.00800           0
     16561 TIP3     1793     TIP3     OH2      OT      -0.834000       15.9994           0
     16562 TIP3     1793     TIP3     H1       HT       0.417000       1.00800           0
     16563 TIP3     1793     TIP3     H2       HT       0.417000       1.00800           0
     16564 TIP3     1794     TIP3     OH2      OT      -0.834000       15.9994           0
     16565 TIP3     1794     TIP3     H1       HT       0.417000       1.00800           0
     16566 TIP3     1794     TIP3     H2       HT       0.417000       1.00800           0
     16567 TIP3     1795     TIP3     OH2      OT      -0.834000       15.9994           0
     16568 TIP3     1795     TIP3     H1       HT       0.417000       1.00800           0
     16569 TIP3     1795     TIP3     H2       HT       0.417000       1.00800           0
     16570 TIP3     1796     TIP3     OH2      OT      -0.834000       15.9994           0
     16571 TIP3     1796     TIP3     H1       HT       0.417000       1.00800           0
     16572 TIP3     1796     TIP3     H2       HT       0.417000       1.00800           0
     16573 TIP3     1797     TIP3     OH2      OT      -0.834000       15.9994           0
     16574 TIP3     1797     TIP3     H1       HT       0.417000       1.00800           0
     16575 TIP3     1797     TIP3     H2       HT       0.417000       1.00800           0
     16576 TIP3     1798     TIP3     OH2      OT      -0.834000       15.9994           0
     16577 TIP3     1798     TIP3     H1       HT       0.417000       1.00800           0
     16578 TIP3     1798     TIP3     H2       HT       0.417000       1.00800           0
     16579 TIP3     1799     TIP3     OH2      OT      -0.834000       15.9994           0
     16580 TIP3     1799     TIP3     H1       HT       0.417000       1.00800           0
     16581 TIP3     1799     TIP3     H2       HT       0.417000       1.00800           0
     16582 TIP3     1800     TIP3     OH2      OT      -0.834000       15.9994           0
     16583 TIP3     1800     TIP3     H1       HT       0.417000       1.00800           0
     16584 TIP3     1800     TIP3     H2       HT       0.417000       1.00800           0
     16585 TIP3     1801     TIP3     OH2      OT      -0.834000       15.9994           0
     16586 TIP3     1801     TIP3     H1       HT       0.417000       1.00800           0
     16587 TIP3     1801     TIP3     H2       HT       0.417000       1.00800           0
     16588 TIP3     1802     TIP3     OH2      OT      -0.834000       15.9994           0
     16589 TIP3     1802     TIP3     H1       HT       0.417000       1.00800           0
     16590 TIP3     1802     TIP3     H2       HT       0.417000       1.00800           0
     16591 TIP3     1803     TIP3     OH2      OT      -0.834000       15.9994           0
     16592 TIP3     1803     TIP3     H1       HT       0.417000       1.00800           0
     16593 TIP3     1803     TIP3     H2       HT       0.417000       1.00800           0
     16594 TIP3     1804     TIP3     OH2      OT      -0.834000       15.9994           0
     16595 TIP3     1804     TIP3     H1       HT       0.417000       1.00800           0
     16596 TIP3     1804     TIP3     H2       HT       0.417000       1.00800           0
     16597 TIP3     1805     TIP3     OH2      OT      -0.834000       15.9994           0
     16598 TIP3     1805     TIP3     H1       HT       0.417000       1.00800           0
     16599 TIP3     1805     TIP3     H2       HT       0.417000       1.00800           0
     16600 TIP3     1806     TIP3     OH2      OT      -0.834000       15.9994           0
     16601 TIP3     1806     TIP3     H1       HT       0.417000       1.00800           0
     16602 TIP3     1806     TIP3     H2       HT       0.417000       1.00800           0
     16603 TIP3     1807     TIP3     OH2      OT      -0.834000       15.9994           0
     16604 TIP3     1807     TIP3     H1       HT       0.417000       1.00800           0
     16605 TIP3     1807     TIP3     H2       HT       0.417000       1.00800           0
     16606 TIP3     1808     TIP3     OH2      OT      -0.834000       15.9994           0
     16607 TIP3     1808     TIP3     H1       HT       0.417000       1.00800           0
     16608 TIP3     1808     TIP3     H2       HT       0.417000       1.00800           0
     16609 TIP3     1809     TIP3     OH2      OT      -0.834000       15.9994           0
     16610 TIP3     1809     TIP3     H1       HT       0.417000       1.00800           0
     16611 TIP3     1809     TIP3     H2       HT       0.417000       1.00800           0
     16612 TIP3     1810     TIP3     OH2      OT      -0.834000       15.9994           0
     16613 TIP3     1810     TIP3     H1       HT       0.417000       1.00800           0
     16614 TIP3     1810     TIP3     H2       HT       0.417000       1.00800           0
     16615 TIP3     1811     TIP3     OH2      OT      -0.834000       15.9994           0
     16616 TIP3     1811     TIP3     H1       HT       0.417000       1.00800           0
     16617 TIP3     1811     TIP3     H2       HT       0.417000       1.00800           0
     16618 TIP3     1812     TIP3     OH2      OT      -0.834000       15.9994           0
     16619 TIP3     1812     TIP3     H1       HT       0.417000       1.00800           0
     16620 TIP3     1812     TIP3     H2       HT       0.417000       1.00800           0
     16621 TIP3     1813     TIP3     OH2      OT      -0.834000       15.9994           0
     16622 TIP3     1813     TIP3     H1       HT       0.417000       1.00800           0
     16623 TIP3     1813     TIP3     H2       HT       0.417000       1.00800           0
     16624 TIP3     1814     TIP3     OH2      OT      -0.834000       15.9994           0
     16625 TIP3     1814     TIP3     H1       HT       0.417000       1.00800           0
     16626 TIP3     1814     TIP3     H2       HT       0.417000       1.00800           0
     16627 TIP3     1815     TIP3     OH2      OT      -0.834000       15.9994           0
     16628 TIP3     1815     TIP3     H1       HT       0.417000       1.00800           0
     16629 TIP3     1815     TIP3     H2       HT       0.417000       1.00800           0
     16630 TIP3     1816     TIP3     OH2      OT      -0.834000       15.9994           0
     16631 TIP3     1816     TIP3     H1       HT       0.417000       1.00800           0
     16632 TIP3     1816     TIP3     H2       HT       0.417000       1.00800           0
     16633 TIP3     1817     TIP3     OH2      OT      -0.834000       15.9994           0
     16634 TIP3     1817     TIP3     H1       HT       0.417000       1.00800           0
     16635 TIP3     1817     TIP3     H2       HT       0.417000       1.00800           0
     16636 TIP3     1818     TIP3     OH2      OT      -0.834000       15.9994           0
     16637 TIP3     1818     TIP3     H1       HT       0.417000       1.00800           0
     16638 TIP3     1818     TIP3     H2       HT       0.417000       1.00800           0
     16639 TIP3     1819     TIP3     OH2      OT      -0.834000       15.9994           0
     16640 TIP3     1819     TIP3     H1       HT       0.417000       1.00800           0
     16641 TIP3     1819     TIP3     H2       HT       0.417000       1.00800           0
     16642 TIP3     1820     TIP3     OH2      OT      -0.834000       15.9994           0
     16643 TIP3     1820     TIP3     H1       HT       0.417000       1.00800           0
     16644 TIP3     1820     TIP3     H2       HT       0.417000       1.00800           0
     16645 TIP3     1821     TIP3     OH2      OT      -0.834000       15.9994           0
     16646 TIP3     1821     TIP3     H1       HT       0.417000       1.00800           0
     16647 TIP3     1821     TIP3     H2       HT       0.417000       1.00800           0
     16648 TIP3     1822     TIP3     OH2      OT      -0.834000       15.9994           0
     16649 TIP3     1822     TIP3     H1       HT       0.417000       1.00800           0
     16650 TIP3     1822     TIP3     H2       HT       0.417000       1.00800           0
     16651 TIP3     1823     TIP3     OH2      OT      -0.834000       15.9994           0
     16652 TIP3     1823     TIP3     H1       HT       0.417000       1.00800           0
     16653 TIP3     1823     TIP3     H2       HT       0.417000       1.00800           0
     16654 TIP3     1824     TIP3     OH2      OT      -0.834000       15.9994           0
     16655 TIP3     1824     TIP3     H1       HT       0.417000       1.00800           0
     16656 TIP3     1824     TIP3     H2       HT       0.417000       1.00800           0
     16657 TIP3     1825     TIP3     OH2      OT      -0.834000       15.9994           0
     16658 TIP3     1825     TIP3     H1       HT       0.417000       1.00800           0
     16659 TIP3     1825     TIP3     H2       HT       0.417000       1.00800           0
     16660 TIP3     1826     TIP3     OH2      OT      -0.834000       15.9994           0
     16661 TIP3     1826     TIP3     H1       HT       0.417000       1.00800           0
     16662 TIP3     1826     TIP3     H2       HT       0.417000       1.00800           0
     16663 TIP3     1827     TIP3     OH2      OT      -0.834000       15.9994           0
     16664 TIP3     1827     TIP3     H1       HT       0.417000       1.00800           0
     16665 TIP3     1827     TIP3     H2       HT       0.417000       1.00800           0
     16666 TIP3     1828     TIP3     OH2      OT      -0.834000       15.9994           0
     16667 TIP3     1828     TIP3     H1       HT       0.417000       1.00800           0
     16668 TIP3     1828     TIP3     H2       HT       0.417000       1.00800           0
     16669 TIP3     1829     TIP3     OH2      OT      -0.834000       15.9994           0
     16670 TIP3     1829     TIP3     H1       HT       0.417000       1.00800           0
     16671 TIP3     1829     TIP3     H2       HT       0.417000       1.00800           0
     16672 TIP3     1830     TIP3     OH2      OT      -0.834000       15.9994           0
     16673 TIP3     1830     TIP3     H1       HT       0.417000       1.00800           0
     16674 TIP3     1830     TIP3     H2       HT       0.417000       1.00800           0
     16675 TIP3     1831     TIP3     OH2      OT      -0.834000       15.9994           0
     16676 TIP3     1831     TIP3     H1       HT       0.417000       1.00800           0
     16677 TIP3     1831     TIP3     H2       HT       0.417000       1.00800           0
     16678 TIP3     1832     TIP3     OH2      OT      -0.834000       15.9994           0
     16679 TIP3     1832     TIP3     H1       HT       0.417000       1.00800           0
     16680 TIP3     1832     TIP3     H2       HT       0.417000       1.00800           0
     16681 TIP3     1833     TIP3     OH2      OT      -0.834000       15.9994           0
     16682 TIP3     1833     TIP3     H1       HT       0.417000       1.00800           0
     16683 TIP3     1833     TIP3     H2       HT       0.417000       1.00800           0
     16684 TIP3     1834     TIP3     OH2      OT      -0.834000       15.9994           0
     16685 TIP3     1834     TIP3     H1       HT       0.417000       1.00800           0
     16686 TIP3     1834     TIP3     H2       HT       0.417000       1.00800           0
     16687 TIP3     1835     TIP3     OH2      OT      -0.834000       15.9994           0
     16688 TIP3     1835     TIP3     H1       HT       0.417000       1.00800           0
     16689 TIP3     1835     TIP3     H2       HT       0.417000       1.00800           0
     16690 TIP3     1836     TIP3     OH2      OT      -0.834000       15.9994           0
     16691 TIP3     1836     TIP3     H1       HT       0.417000       1.00800           0
     16692 TIP3     1836     TIP3     H2       HT       0.417000       1.00800           0
     16693 TIP3     1837     TIP3     OH2      OT      -0.834000       15.9994           0
     16694 TIP3     1837     TIP3     H1       HT       0.417000       1.00800           0
     16695 TIP3     1837     TIP3     H2       HT       0.417000       1.00800           0
     16696 TIP3     1838     TIP3     OH2      OT      -0.834000       15.9994           0
     16697 TIP3     1838     TIP3     H1       HT       0.417000       1.00800           0
     16698 TIP3     1838     TIP3     H2       HT       0.417000       1.00800           0
     16699 TIP3     1839     TIP3     OH2      OT      -0.834000       15.9994           0
     16700 TIP3     1839     TIP3     H1       HT       0.417000       1.00800           0
     16701 TIP3     1839     TIP3     H2       HT       0.417000       1.00800           0
     16702 TIP3     1840     TIP3     OH2      OT      -0.834000       15.9994           0
     16703 TIP3     1840     TIP3     H1       HT       0.417000       1.00800           0
     16704 TIP3     1840     TIP3     H2       HT       0.417000       1.00800           0
     16705 TIP3     1841     TIP3     OH2      OT      -0.834000       15.9994           0
     16706 TIP3     1841     TIP3     H1       HT       0.417000       1.00800           0
     16707 TIP3     1841     TIP3     H2       HT       0.417000       1.00800           0
     16708 TIP3     1842     TIP3     OH2      OT      -0.834000       15.9994           0
     16709 TIP3     1842     TIP3     H1       HT       0.417000       1.00800           0
     16710 TIP3     1842     TIP3     H2       HT       0.417000       1.00800           0
     16711 TIP3     1843     TIP3     OH2      OT      -0.834000       15.9994           0
     16712 TIP3     1843     TIP3     H1       HT       0.417000       1.00800           0
     16713 TIP3     1843     TIP3     H2       HT       0.417000       1.00800           0
     16714 TIP3     1844     TIP3     OH2      OT      -0.834000       15.9994           0
     16715 TIP3     1844     TIP3     H1       HT       0.417000       1.00800           0
     16716 TIP3     1844     TIP3     H2       HT       0.417000       1.00800           0
     16717 TIP3     1845     TIP3     OH2      OT      -0.834000       15.9994           0
     16718 TIP3     1845     TIP3     H1       HT       0.417000       1.00800           0
     16719 TIP3     1845     TIP3     H2       HT       0.417000       1.00800           0
     16720 TIP3     1846     TIP3     OH2      OT      -0.834000       15.9994           0
     16721 TIP3     1846     TIP3     H1       HT       0.417000       1.00800           0
     16722 TIP3     1846     TIP3     H2       HT       0.417000       1.00800           0
     16723 TIP3     1847     TIP3     OH2      OT      -0.834000       15.9994           0
     16724 TIP3     1847     TIP3     H1       HT       0.417000       1.00800           0
     16725 TIP3     1847     TIP3     H2       HT       0.417000       1.00800           0
     16726 TIP3     1848     TIP3     OH2      OT      -0.834000       15.9994           0
     16727 TIP3     1848     TIP3     H1       HT       0.417000       1.00800           0
     16728 TIP3     1848     TIP3     H2       HT       0.417000       1.00800           0
     16729 TIP3     1849     TIP3     OH2      OT      -0.834000       15.9994           0
     16730 TIP3     1849     TIP3     H1       HT       0.417000       1.00800           0
     16731 TIP3     1849     TIP3     H2       HT       0.417000       1.00800           0
     16732 TIP3     1850     TIP3     OH2      OT      -0.834000       15.9994           0
     16733 TIP3     1850     TIP3     H1       HT       0.417000       1.00800           0
     16734 TIP3     1850     TIP3     H2       HT       0.417000       1.00800           0
     16735 TIP3     1851     TIP3     OH2      OT      -0.834000       15.9994           0
     16736 TIP3     1851     TIP3     H1       HT       0.417000       1.00800           0
     16737 TIP3     1851     TIP3     H2       HT       0.417000       1.00800           0
     16738 TIP3     1852     TIP3     OH2      OT      -0.834000       15.9994           0
     16739 TIP3     1852     TIP3     H1       HT       0.417000       1.00800           0
     16740 TIP3     1852     TIP3     H2       HT       0.417000       1.00800           0
     16741 TIP3     1853     TIP3     OH2      OT      -0.834000       15.9994           0
     16742 TIP3     1853     TIP3     H1       HT       0.417000       1.00800           0
     16743 TIP3     1853     TIP3     H2       HT       0.417000       1.00800           0
     16744 TIP3     1854     TIP3     OH2      OT      -0.834000       15.9994           0
     16745 TIP3     1854     TIP3     H1       HT       0.417000       1.00800           0
     16746 TIP3     1854     TIP3     H2       HT       0.417000       1.00800           0
     16747 TIP3     1855     TIP3     OH2      OT      -0.834000       15.9994           0
     16748 TIP3     1855     TIP3     H1       HT       0.417000       1.00800           0
     16749 TIP3     1855     TIP3     H2       HT       0.417000       1.00800           0
     16750 TIP3     1856     TIP3     OH2      OT      -0.834000       15.9994           0
     16751 TIP3     1856     TIP3     H1       HT       0.417000       1.00800           0
     16752 TIP3     1856     TIP3     H2       HT       0.417000       1.00800           0
     16753 TIP3     1857     TIP3     OH2      OT      -0.834000       15.9994           0
     16754 TIP3     1857     TIP3     H1       HT       0.417000       1.00800           0
     16755 TIP3     1857     TIP3     H2       HT       0.417000       1.00800           0
     16756 TIP3     1858     TIP3     OH2      OT      -0.834000       15.9994           0
     16757 TIP3     1858     TIP3     H1       HT       0.417000       1.00800           0
     16758 TIP3     1858     TIP3     H2       HT       0.417000       1.00800           0
     16759 TIP3     1859     TIP3     OH2      OT      -0.834000       15.9994           0
     16760 TIP3     1859     TIP3     H1       HT       0.417000       1.00800           0
     16761 TIP3     1859     TIP3     H2       HT       0.417000       1.00800           0
     16762 TIP3     1860     TIP3     OH2      OT      -0.834000       15.9994           0
     16763 TIP3     1860     TIP3     H1       HT       0.417000       1.00800           0
     16764 TIP3     1860     TIP3     H2       HT       0.417000       1.00800           0
     16765 TIP3     1861     TIP3     OH2      OT      -0.834000       15.9994           0
     16766 TIP3     1861     TIP3     H1       HT       0.417000       1.00800           0
     16767 TIP3     1861     TIP3     H2       HT       0.417000       1.00800           0
     16768 TIP3     1862     TIP3     OH2      OT      -0.834000       15.9994           0
     16769 TIP3     1862     TIP3     H1       HT       0.417000       1.00800           0
     16770 TIP3     1862     TIP3     H2       HT       0.417000       1.00800           0
     16771 TIP3     1863     TIP3     OH2      OT      -0.834000       15.9994           0
     16772 TIP3     1863     TIP3     H1       HT       0.417000       1.00800           0
     16773 TIP3     1863     TIP3     H2       HT       0.417000       1.00800           0
     16774 TIP3     1864     TIP3     OH2      OT      -0.834000       15.9994           0
     16775 TIP3     1864     TIP3     H1       HT       0.417000       1.00800           0
     16776 TIP3     1864     TIP3     H2       HT       0.417000       1.00800           0
     16777 TIP3     1865     TIP3     OH2      OT      -0.834000       15.9994           0
     16778 TIP3     1865     TIP3     H1       HT       0.417000       1.00800           0
     16779 TIP3     1865     TIP3     H2       HT       0.417000       1.00800           0
     16780 TIP3     1866     TIP3     OH2      OT      -0.834000       15.9994           0
     16781 TIP3     1866     TIP3     H1       HT       0.417000       1.00800           0
     16782 TIP3     1866     TIP3     H2       HT       0.417000       1.00800           0
     16783 TIP3     1867     TIP3     OH2      OT      -0.834000       15.9994           0
     16784 TIP3     1867     TIP3     H1       HT       0.417000       1.00800           0
     16785 TIP3     1867     TIP3     H2       HT       0.417000       1.00800           0
     16786 TIP3     1868     TIP3     OH2      OT      -0.834000       15.9994           0
     16787 TIP3     1868     TIP3     H1       HT       0.417000       1.00800           0
     16788 TIP3     1868     TIP3     H2       HT       0.417000       1.00800           0
     16789 TIP3     1869     TIP3     OH2      OT      -0.834000       15.9994           0
     16790 TIP3     1869     TIP3     H1       HT       0.417000       1.00800           0
     16791 TIP3     1869     TIP3     H2       HT       0.417000       1.00800           0
     16792 TIP3     1870     TIP3     OH2      OT      -0.834000       15.9994           0
     16793 TIP3     1870     TIP3     H1       HT       0.417000       1.00800           0
     16794 TIP3     1870     TIP3     H2       HT       0.417000       1.00800           0
     16795 TIP3     1871     TIP3     OH2      OT      -0.834000       15.9994           0
     16796 TIP3     1871     TIP3     H1       HT       0.417000       1.00800           0
     16797 TIP3     1871     TIP3     H2       HT       0.417000       1.00800           0
     16798 TIP3     1872     TIP3     OH2      OT      -0.834000       15.9994           0
     16799 TIP3     1872     TIP3     H1       HT       0.417000       1.00800           0
     16800 TIP3     1872     TIP3     H2       HT       0.417000       1.00800           0
     16801 TIP3     1873     TIP3     OH2      OT      -0.834000       15.9994           0
     16802 TIP3     1873     TIP3     H1       HT       0.417000       1.00800           0
     16803 TIP3     1873     TIP3     H2       HT       0.417000       1.00800           0
     16804 TIP3     1874     TIP3     OH2      OT      -0.834000       15.9994           0
     16805 TIP3     1874     TIP3     H1       HT       0.417000       1.00800           0
     16806 TIP3     1874     TIP3     H2       HT       0.417000       1.00800           0
     16807 TIP3     1875     TIP3     OH2      OT      -0.834000       15.9994           0
     16808 TIP3     1875     TIP3     H1       HT       0.417000       1.00800           0
     16809 TIP3     1875     TIP3     H2       HT       0.417000       1.00800           0
     16810 TIP3     1876     TIP3     OH2      OT      -0.834000       15.9994           0
     16811 TIP3     1876     TIP3     H1       HT       0.417000       1.00800           0
     16812 TIP3     1876     TIP3     H2       HT       0.417000       1.00800           0
     16813 TIP3     1877     TIP3     OH2      OT      -0.834000       15.9994           0
     16814 TIP3     1877     TIP3     H1       HT       0.417000       1.00800           0
     16815 TIP3     1877     TIP3     H2       HT       0.417000       1.00800           0
     16816 TIP3     1878     TIP3     OH2      OT      -0.834000       15.9994           0
     16817 TIP3     1878     TIP3     H1       HT       0.417000       1.00800           0
     16818 TIP3     1878     TIP3     H2       HT       0.417000       1.00800           0
     16819 TIP3     1879     TIP3     OH2      OT      -0.834000       15.9994           0
     16820 TIP3     1879     TIP3     H1       HT       0.417000       1.00800           0
     16821 TIP3     1879     TIP3     H2       HT       0.417000       1.00800           0
     16822 TIP3     1880     TIP3     OH2      OT      -0.834000       15.9994           0
     16823 TIP3     1880     TIP3     H1       HT       0.417000       1.00800           0
     16824 TIP3     1880     TIP3     H2       HT       0.417000       1.00800           0
     16825 TIP3     1881     TIP3     OH2      OT      -0.834000       15.9994           0
     16826 TIP3     1881     TIP3     H1       HT       0.417000       1.00800           0
     16827 TIP3     1881     TIP3     H2       HT       0.417000       1.00800           0
     16828 TIP3     1882     TIP3     OH2      OT      -0.834000       15.9994           0
     16829 TIP3     1882     TIP3     H1       HT       0.417000       1.00800           0
     16830 TIP3     1882     TIP3     H2       HT       0.417000       1.00800           0
     16831 TIP3     1883     TIP3     OH2      OT      -0.834000       15.9994           0
     16832 TIP3     1883     TIP3     H1       HT       0.417000       1.00800           0
     16833 TIP3     1883     TIP3     H2       HT       0.417000       1.00800           0
     16834 TIP3     1884     TIP3     OH2      OT      -0.834000       15.9994           0
     16835 TIP3     1884     TIP3     H1       HT       0.417000       1.00800           0
     16836 TIP3     1884     TIP3     H2       HT       0.417000       1.00800           0
     16837 TIP3     1885     TIP3     OH2      OT      -0.834000       15.9994           0
     16838 TIP3     1885     TIP3     H1       HT       0.417000       1.00800           0
     16839 TIP3     1885     TIP3     H2       HT       0.417000       1.00800           0
     16840 TIP3     1886     TIP3     OH2      OT      -0.834000       15.9994           0
     16841 TIP3     1886     TIP3     H1       HT       0.417000       1.00800           0
     16842 TIP3     1886     TIP3     H2       HT       0.417000       1.00800           0
     16843 TIP3     1887     TIP3     OH2      OT      -0.834000       15.9994           0
     16844 TIP3     1887     TIP3     H1       HT       0.417000       1.00800           0
     16845 TIP3     1887     TIP3     H2       HT       0.417000       1.00800           0
     16846 TIP3     1888     TIP3     OH2      OT      -0.834000       15.9994           0
     16847 TIP3     1888     TIP3     H1       HT       0.417000       1.00800           0
     16848 TIP3     1888     TIP3     H2       HT       0.417000       1.00800           0
     16849 TIP3     1889     TIP3     OH2      OT      -0.834000       15.9994           0
     16850 TIP3     1889     TIP3     H1       HT       0.417000       1.00800           0
     16851 TIP3     1889     TIP3     H2       HT       0.417000       1.00800           0
     16852 TIP3     1890     TIP3     OH2      OT      -0.834000       15.9994           0
     16853 TIP3     1890     TIP3     H1       HT       0.417000       1.00800           0
     16854 TIP3     1890     TIP3     H2       HT       0.417000       1.00800           0
     16855 TIP3     1891     TIP3     OH2      OT      -0.834000       15.9994           0
     16856 TIP3     1891     TIP3     H1       HT       0.417000       1.00800           0
     16857 TIP3     1891     TIP3     H2       HT       0.417000       1.00800           0
     16858 TIP3     1892     TIP3     OH2      OT      -0.834000       15.9994           0
     16859 TIP3     1892     TIP3     H1       HT       0.417000       1.00800           0
     16860 TIP3     1892     TIP3     H2       HT       0.417000       1.00800           0
     16861 TIP3     1893     TIP3     OH2      OT      -0.834000       15.9994           0
     16862 TIP3     1893     TIP3     H1       HT       0.417000       1.00800           0
     16863 TIP3     1893     TIP3     H2       HT       0.417000       1.00800           0
     16864 TIP3     1894     TIP3     OH2      OT      -0.834000       15.9994           0
     16865 TIP3     1894     TIP3     H1       HT       0.417000       1.00800           0
     16866 TIP3     1894     TIP3     H2       HT       0.417000       1.00800           0
     16867 TIP3     1895     TIP3     OH2      OT      -0.834000       15.9994           0
     16868 TIP3     1895     TIP3     H1       HT       0.417000       1.00800           0
     16869 TIP3     1895     TIP3     H2       HT       0.417000       1.00800           0
     16870 TIP3     1896     TIP3     OH2      OT      -0.834000       15.9994           0
     16871 TIP3     1896     TIP3     H1       HT       0.417000       1.00800           0
     16872 TIP3     1896     TIP3     H2       HT       0.417000       1.00800           0
     16873 TIP3     1897     TIP3     OH2      OT      -0.834000       15.9994           0
     16874 TIP3     1897     TIP3     H1       HT       0.417000       1.00800           0
     16875 TIP3     1897     TIP3     H2       HT       0.417000       1.00800           0
     16876 TIP3     1898     TIP3     OH2      OT      -0.834000       15.9994           0
     16877 TIP3     1898     TIP3     H1       HT       0.417000       1.00800           0
     16878 TIP3     1898     TIP3     H2       HT       0.417000       1.00800           0
     16879 TIP3     1899     TIP3     OH2      OT      -0.834000       15.9994           0
     16880 TIP3     1899     TIP3     H1       HT       0.417000       1.00800           0
     16881 TIP3     1899     TIP3     H2       HT       0.417000       1.00800           0
     16882 TIP3     1900     TIP3     OH2      OT      -0.834000       15.9994           0
     16883 TIP3     1900     TIP3     H1       HT       0.417000       1.00800           0
     16884 TIP3     1900     TIP3     H2       HT       0.417000       1.00800           0
     16885 TIP3     1901     TIP3     OH2      OT      -0.834000       15.9994           0
     16886 TIP3     1901     TIP3     H1       HT       0.417000       1.00800           0
     16887 TIP3     1901     TIP3     H2       HT       0.417000       1.00800           0
     16888 TIP3     1902     TIP3     OH2      OT      -0.834000       15.9994           0
     16889 TIP3     1902     TIP3     H1       HT       0.417000       1.00800           0
     16890 TIP3     1902     TIP3     H2       HT       0.417000       1.00800           0
     16891 TIP3     1903     TIP3     OH2      OT      -0.834000       15.9994           0
     16892 TIP3     1903     TIP3     H1       HT       0.417000       1.00800           0
     16893 TIP3     1903     TIP3     H2       HT       0.417000       1.00800           0
     16894 TIP3     1904     TIP3     OH2      OT      -0.834000       15.9994           0
     16895 TIP3     1904     TIP3     H1       HT       0.417000       1.00800           0
     16896 TIP3     1904     TIP3     H2       HT       0.417000       1.00800           0
     16897 TIP3     1905     TIP3     OH2      OT      -0.834000       15.9994           0
     16898 TIP3     1905     TIP3     H1       HT       0.417000       1.00800           0
     16899 TIP3     1905     TIP3     H2       HT       0.417000       1.00800           0
     16900 TIP3     1906     TIP3     OH2      OT      -0.834000       15.9994           0
     16901 TIP3     1906     TIP3     H1       HT       0.417000       1.00800           0
     16902 TIP3     1906     TIP3     H2       HT       0.417000       1.00800           0
     16903 TIP3     1907     TIP3     OH2      OT      -0.834000       15.9994           0
     16904 TIP3     1907     TIP3     H1       HT       0.417000       1.00800           0
     16905 TIP3     1907     TIP3     H2       HT       0.417000       1.00800           0
     16906 TIP3     1908     TIP3     OH2      OT      -0.834000       15.9994           0
     16907 TIP3     1908     TIP3     H1       HT       0.417000       1.00800           0
     16908 TIP3     1908     TIP3     H2       HT       0.417000       1.00800           0
     16909 TIP3     1909     TIP3     OH2      OT      -0.834000       15.9994           0
     16910 TIP3     1909     TIP3     H1       HT       0.417000       1.00800           0
     16911 TIP3     1909     TIP3     H2       HT       0.417000       1.00800           0
     16912 TIP3     1910     TIP3     OH2      OT      -0.834000       15.9994           0
     16913 TIP3     1910     TIP3     H1       HT       0.417000       1.00800           0
     16914 TIP3     1910     TIP3     H2       HT       0.417000       1.00800           0
     16915 TIP3     1911     TIP3     OH2      OT      -0.834000       15.9994           0
     16916 TIP3     1911     TIP3     H1       HT       0.417000       1.00800           0
     16917 TIP3     1911     TIP3     H2       HT       0.417000       1.00800           0
     16918 TIP3     1912     TIP3     OH2      OT      -0.834000       15.9994           0
     16919 TIP3     1912     TIP3     H1       HT       0.417000       1.00800           0
     16920 TIP3     1912     TIP3     H2       HT       0.417000       1.00800           0
     16921 TIP3     1913     TIP3     OH2      OT      -0.834000       15.9994           0
     16922 TIP3     1913     TIP3     H1       HT       0.417000       1.00800           0
     16923 TIP3     1913     TIP3     H2       HT       0.417000       1.00800           0
     16924 TIP3     1914     TIP3     OH2      OT      -0.834000       15.9994           0
     16925 TIP3     1914     TIP3     H1       HT       0.417000       1.00800           0
     16926 TIP3     1914     TIP3     H2       HT       0.417000       1.00800           0
     16927 TIP3     1915     TIP3     OH2      OT      -0.834000       15.9994           0
     16928 TIP3     1915     TIP3     H1       HT       0.417000       1.00800           0
     16929 TIP3     1915     TIP3     H2       HT       0.417000       1.00800           0
     16930 TIP3     1916     TIP3     OH2      OT      -0.834000       15.9994           0
     16931 TIP3     1916     TIP3     H1       HT       0.417000       1.00800           0
     16932 TIP3     1916     TIP3     H2       HT       0.417000       1.00800           0
     16933 TIP3     1917     TIP3     OH2      OT      -0.834000       15.9994           0
     16934 TIP3     1917     TIP3     H1       HT       0.417000       1.00800           0
     16935 TIP3     1917     TIP3     H2       HT       0.417000       1.00800           0
     16936 TIP3     1918     TIP3     OH2      OT      -0.834000       15.9994           0
     16937 TIP3     1918     TIP3     H1       HT       0.417000       1.00800           0
     16938 TIP3     1918     TIP3     H2       HT       0.417000       1.00800           0
     16939 TIP3     1919     TIP3     OH2      OT      -0.834000       15.9994           0
     16940 TIP3     1919     TIP3     H1       HT       0.417000       1.00800           0
     16941 TIP3     1919     TIP3     H2       HT       0.417000       1.00800           0
     16942 TIP3     1920     TIP3     OH2      OT      -0.834000       15.9994           0
     16943 TIP3     1920     TIP3     H1       HT       0.417000       1.00800           0
     16944 TIP3     1920     TIP3     H2       HT       0.417000       1.00800           0
     16945 TIP3     1921     TIP3     OH2      OT      -0.834000       15.9994           0
     16946 TIP3     1921     TIP3     H1       HT       0.417000       1.00800           0
     16947 TIP3     1921     TIP3     H2       HT       0.417000       1.00800           0
     16948 TIP3     1922     TIP3     OH2      OT      -0.834000       15.9994           0
     16949 TIP3     1922     TIP3     H1       HT       0.417000       1.00800           0
     16950 TIP3     1922     TIP3     H2       HT       0.417000       1.00800           0
     16951 TIP3     1923     TIP3     OH2      OT      -0.834000       15.9994           0
     16952 TIP3     1923     TIP3     H1       HT       0.417000       1.00800           0
     16953 TIP3     1923     TIP3     H2       HT       0.417000       1.00800           0
     16954 TIP3     1924     TIP3     OH2      OT      -0.834000       15.9994           0
     16955 TIP3     1924     TIP3     H1       HT       0.417000       1.00800           0
     16956 TIP3     1924     TIP3     H2       HT       0.417000       1.00800           0
     16957 TIP3     1925     TIP3     OH2      OT      -0.834000       15.9994           0
     16958 TIP3     1925     TIP3     H1       HT       0.417000       1.00800           0
     16959 TIP3     1925     TIP3     H2       HT       0.417000       1.00800           0
     16960 TIP3     1926     TIP3     OH2      OT      -0.834000       15.9994           0
     16961 TIP3     1926     TIP3     H1       HT       0.417000       1.00800           0
     16962 TIP3     1926     TIP3     H2       HT       0.417000       1.00800           0
     16963 TIP3     1927     TIP3     OH2      OT      -0.834000       15.9994           0
     16964 TIP3     1927     TIP3     H1       HT       0.417000       1.00800           0
     16965 TIP3     1927     TIP3     H2       HT       0.417000       1.00800           0
     16966 TIP3     1928     TIP3     OH2      OT      -0.834000       15.9994           0
     16967 TIP3     1928     TIP3     H1       HT       0.417000       1.00800           0
     16968 TIP3     1928     TIP3     H2       HT       0.417000       1.00800           0
     16969 TIP3     1929     TIP3     OH2      OT      -0.834000       15.9994           0
     16970 TIP3     1929     TIP3     H1       HT       0.417000       1.00800           0
     16971 TIP3     1929     TIP3     H2       HT       0.417000       1.00800           0
     16972 TIP3     1930     TIP3     OH2      OT      -0.834000       15.9994           0
     16973 TIP3     1930     TIP3     H1       HT       0.417000       1.00800           0
     16974 TIP3     1930     TIP3     H2       HT       0.417000       1.00800           0
     16975 TIP3     1931     TIP3     OH2      OT      -0.834000       15.9994           0
     16976 TIP3     1931     TIP3     H1       HT       0.417000       1.00800           0
     16977 TIP3     1931     TIP3     H2       HT       0.417000       1.00800           0
     16978 TIP3     1932     TIP3     OH2      OT      -0.834000       15.9994           0
     16979 TIP3     1932     TIP3     H1       HT       0.417000       1.00800           0
     16980 TIP3     1932     TIP3     H2       HT       0.417000       1.00800           0
     16981 TIP3     1933     TIP3     OH2      OT      -0.834000       15.9994           0
     16982 TIP3     1933     TIP3     H1       HT       0.417000       1.00800           0
     16983 TIP3     1933     TIP3     H2       HT       0.417000       1.00800           0
     16984 TIP3     1934     TIP3     OH2      OT      -0.834000       15.9994           0
     16985 TIP3     1934     TIP3     H1       HT       0.417000       1.00800           0
     16986 TIP3     1934     TIP3     H2       HT       0.417000       1.00800           0
     16987 TIP3     1935     TIP3     OH2      OT      -0.834000       15.9994           0
     16988 TIP3     1935     TIP3     H1       HT       0.417000       1.00800           0
     16989 TIP3     1935     TIP3     H2       HT       0.417000       1.00800           0
     16990 TIP3     1936     TIP3     OH2      OT      -0.834000       15.9994           0
     16991 TIP3     1936     TIP3     H1       HT       0.417000       1.00800           0
     16992 TIP3     1936     TIP3     H2       HT       0.417000       1.00800           0
     16993 TIP3     1937     TIP3     OH2      OT      -0.834000       15.9994           0
     16994 TIP3     1937     TIP3     H1       HT       0.417000       1.00800           0
     16995 TIP3     1937     TIP3     H2       HT       0.417000       1.00800           0
     16996 TIP3     1938     TIP3     OH2      OT      -0.834000       15.9994           0
     16997 TIP3     1938     TIP3     H1       HT       0.417000       1.00800           0
     16998 TIP3     1938     TIP3     H2       HT       0.417000       1.00800           0
     16999 TIP3     1939     TIP3     OH2      OT      -0.834000       15.9994           0
     17000 TIP3     1939     TIP3     H1       HT       0.417000       1.00800           0
     17001 TIP3     1939     TIP3     H2       HT       0.417000       1.00800           0
     17002 TIP3     1940     TIP3     OH2      OT      -0.834000       15.9994           0
     17003 TIP3     1940     TIP3     H1       HT       0.417000       1.00800           0
     17004 TIP3     1940     TIP3     H2       HT       0.417000       1.00800           0
     17005 TIP3     1941     TIP3     OH2      OT      -0.834000       15.9994           0
     17006 TIP3     1941     TIP3     H1       HT       0.417000       1.00800           0
     17007 TIP3     1941     TIP3     H2       HT       0.417000       1.00800           0
     17008 TIP3     1942     TIP3     OH2      OT      -0.834000       15.9994           0
     17009 TIP3     1942     TIP3     H1       HT       0.417000       1.00800           0
     17010 TIP3     1942     TIP3     H2       HT       0.417000       1.00800           0
     17011 TIP3     1943     TIP3     OH2      OT      -0.834000       15.9994           0
     17012 TIP3     1943     TIP3     H1       HT       0.417000       1.00800           0
     17013 TIP3     1943     TIP3     H2       HT       0.417000       1.00800           0
     17014 TIP3     1944     TIP3     OH2      OT      -0.834000       15.9994           0
     17015 TIP3     1944     TIP3     H1       HT       0.417000       1.00800           0
     17016 TIP3     1944     TIP3     H2       HT       0.417000       1.00800           0
     17017 TIP3     1945     TIP3     OH2      OT      -0.834000       15.9994           0
     17018 TIP3     1945     TIP3     H1       HT       0.417000       1.00800           0
     17019 TIP3     1945     TIP3     H2       HT       0.417000       1.00800           0
     17020 TIP3     1946     TIP3     OH2      OT      -0.834000       15.9994           0
     17021 TIP3     1946     TIP3     H1       HT       0.417000       1.00800           0
     17022 TIP3     1946     TIP3     H2       HT       0.417000       1.00800           0
     17023 TIP3     1947     TIP3     OH2      OT      -0.834000       15.9994           0
     17024 TIP3     1947     TIP3     H1       HT       0.417000       1.00800           0
     17025 TIP3     1947     TIP3     H2       HT       0.417000       1.00800           0
     17026 TIP3     1948     TIP3     OH2      OT      -0.834000       15.9994           0
     17027 TIP3     1948     TIP3     H1       HT       0.417000       1.00800           0
     17028 TIP3     1948     TIP3     H2       HT       0.417000       1.00800           0
     17029 TIP3     1949     TIP3     OH2      OT      -0.834000       15.9994           0
     17030 TIP3     1949     TIP3     H1       HT       0.417000       1.00800           0
     17031 TIP3     1949     TIP3     H2       HT       0.417000       1.00800           0
     17032 TIP3     1950     TIP3     OH2      OT      -0.834000       15.9994           0
     17033 TIP3     1950     TIP3     H1       HT       0.417000       1.00800           0
     17034 TIP3     1950     TIP3     H2       HT       0.417000       1.00800           0
     17035 TIP3     1951     TIP3     OH2      OT      -0.834000       15.9994           0
     17036 TIP3     1951     TIP3     H1       HT       0.417000       1.00800           0
     17037 TIP3     1951     TIP3     H2       HT       0.417000       1.00800           0
     17038 TIP3     1952     TIP3     OH2      OT      -0.834000       15.9994           0
     17039 TIP3     1952     TIP3     H1       HT       0.417000       1.00800           0
     17040 TIP3     1952     TIP3     H2       HT       0.417000       1.00800           0
     17041 TIP3     1953     TIP3     OH2      OT      -0.834000       15.9994           0
     17042 TIP3     1953     TIP3     H1       HT       0.417000       1.00800           0
     17043 TIP3     1953     TIP3     H2       HT       0.417000       1.00800           0
     17044 TIP3     1954     TIP3     OH2      OT      -0.834000       15.9994           0
     17045 TIP3     1954     TIP3     H1       HT       0.417000       1.00800           0
     17046 TIP3     1954     TIP3     H2       HT       0.417000       1.00800           0
     17047 TIP3     1955     TIP3     OH2      OT      -0.834000       15.9994           0
     17048 TIP3     1955     TIP3     H1       HT       0.417000       1.00800           0
     17049 TIP3     1955     TIP3     H2       HT       0.417000       1.00800           0
     17050 TIP3     1956     TIP3     OH2      OT      -0.834000       15.9994           0
     17051 TIP3     1956     TIP3     H1       HT       0.417000       1.00800           0
     17052 TIP3     1956     TIP3     H2       HT       0.417000       1.00800           0
     17053 TIP3     1957     TIP3     OH2      OT      -0.834000       15.9994           0
     17054 TIP3     1957     TIP3     H1       HT       0.417000       1.00800           0
     17055 TIP3     1957     TIP3     H2       HT       0.417000       1.00800           0
     17056 TIP3     1958     TIP3     OH2      OT      -0.834000       15.9994           0
     17057 TIP3     1958     TIP3     H1       HT       0.417000       1.00800           0
     17058 TIP3     1958     TIP3     H2       HT       0.417000       1.00800           0
     17059 TIP3     1959     TIP3     OH2      OT      -0.834000       15.9994           0
     17060 TIP3     1959     TIP3     H1       HT       0.417000       1.00800           0
     17061 TIP3     1959     TIP3     H2       HT       0.417000       1.00800           0
     17062 TIP3     1960     TIP3     OH2      OT      -0.834000       15.9994           0
     17063 TIP3     1960     TIP3     H1       HT       0.417000       1.00800           0
     17064 TIP3     1960     TIP3     H2       HT       0.417000       1.00800           0
     17065 TIP3     1961     TIP3     OH2      OT      -0.834000       15.9994           0
     17066 TIP3     1961     TIP3     H1       HT       0.417000       1.00800           0
     17067 TIP3     1961     TIP3     H2       HT       0.417000       1.00800           0
     17068 TIP3     1962     TIP3     OH2      OT      -0.834000       15.9994           0
     17069 TIP3     1962     TIP3     H1       HT       0.417000       1.00800           0
     17070 TIP3     1962     TIP3     H2       HT       0.417000       1.00800           0
     17071 TIP3     1963     TIP3     OH2      OT      -0.834000       15.9994           0
     17072 TIP3     1963     TIP3     H1       HT       0.417000       1.00800           0
     17073 TIP3     1963     TIP3     H2       HT       0.417000       1.00800           0
     17074 TIP3     1964     TIP3     OH2      OT      -0.834000       15.9994           0
     17075 TIP3     1964     TIP3     H1       HT       0.417000       1.00800           0
     17076 TIP3     1964     TIP3     H2       HT       0.417000       1.00800           0
     17077 TIP3     1965     TIP3     OH2      OT      -0.834000       15.9994           0
     17078 TIP3     1965     TIP3     H1       HT       0.417000       1.00800           0
     17079 TIP3     1965     TIP3     H2       HT       0.417000       1.00800           0
     17080 TIP3     1966     TIP3     OH2      OT      -0.834000       15.9994           0
     17081 TIP3     1966     TIP3     H1       HT       0.417000       1.00800           0
     17082 TIP3     1966     TIP3     H2       HT       0.417000       1.00800           0
     17083 TIP3     1967     TIP3     OH2      OT      -0.834000       15.9994           0
     17084 TIP3     1967     TIP3     H1       HT       0.417000       1.00800           0
     17085 TIP3     1967     TIP3     H2       HT       0.417000       1.00800           0
     17086 TIP3     1968     TIP3     OH2      OT      -0.834000       15.9994           0
     17087 TIP3     1968     TIP3     H1       HT       0.417000       1.00800           0
     17088 TIP3     1968     TIP3     H2       HT       0.417000       1.00800           0
     17089 TIP3     1969     TIP3     OH2      OT      -0.834000       15.9994           0
     17090 TIP3     1969     TIP3     H1       HT       0.417000       1.00800           0
     17091 TIP3     1969     TIP3     H2       HT       0.417000       1.00800           0
     17092 TIP3     1970     TIP3     OH2      OT      -0.834000       15.9994           0
     17093 TIP3     1970     TIP3     H1       HT       0.417000       1.00800           0
     17094 TIP3     1970     TIP3     H2       HT       0.417000       1.00800           0
     17095 TIP3     1971     TIP3     OH2      OT      -0.834000       15.9994           0
     17096 TIP3     1971     TIP3     H1       HT       0.417000       1.00800           0
     17097 TIP3     1971     TIP3     H2       HT       0.417000       1.00800           0
     17098 TIP3     1972     TIP3     OH2      OT      -0.834000       15.9994           0
     17099 TIP3     1972     TIP3     H1       HT       0.417000       1.00800           0
     17100 TIP3     1972     TIP3     H2       HT       0.417000       1.00800           0
     17101 TIP3     1973     TIP3     OH2      OT      -0.834000       15.9994           0
     17102 TIP3     1973     TIP3     H1       HT       0.417000       1.00800           0
     17103 TIP3     1973     TIP3     H2       HT       0.417000       1.00800           0
     17104 TIP3     1974     TIP3     OH2      OT      -0.834000       15.9994           0
     17105 TIP3     1974     TIP3     H1       HT       0.417000       1.00800           0
     17106 TIP3     1974     TIP3     H2       HT       0.417000       1.00800           0
     17107 TIP3     1975     TIP3     OH2      OT      -0.834000       15.9994           0
     17108 TIP3     1975     TIP3     H1       HT       0.417000       1.00800           0
     17109 TIP3     1975     TIP3     H2       HT       0.417000       1.00800           0
     17110 TIP3     1976     TIP3     OH2      OT      -0.834000       15.9994           0
     17111 TIP3     1976     TIP3     H1       HT       0.417000       1.00800           0
     17112 TIP3     1976     TIP3     H2       HT       0.417000       1.00800           0
     17113 TIP3     1977     TIP3     OH2      OT      -0.834000       15.9994           0
     17114 TIP3     1977     TIP3     H1       HT       0.417000       1.00800           0
     17115 TIP3     1977     TIP3     H2       HT       0.417000       1.00800           0
     17116 TIP3     1978     TIP3     OH2      OT      -0.834000       15.9994           0
     17117 TIP3     1978     TIP3     H1       HT       0.417000       1.00800           0
     17118 TIP3     1978     TIP3     H2       HT       0.417000       1.00800           0
     17119 TIP3     1979     TIP3     OH2      OT      -0.834000       15.9994           0
     17120 TIP3     1979     TIP3     H1       HT       0.417000       1.00800           0
     17121 TIP3     1979     TIP3     H2       HT       0.417000       1.00800           0
     17122 TIP3     1980     TIP3     OH2      OT      -0.834000       15.9994           0
     17123 TIP3     1980     TIP3     H1       HT       0.417000       1.00800           0
     17124 TIP3     1980     TIP3     H2       HT       0.417000       1.00800           0
     17125 TIP3     1981     TIP3     OH2      OT      -0.834000       15.9994           0
     17126 TIP3     1981     TIP3     H1       HT       0.417000       1.00800           0
     17127 TIP3     1981     TIP3     H2       HT       0.417000       1.00800           0
     17128 TIP3     1982     TIP3     OH2      OT      -0.834000       15.9994           0
     17129 TIP3     1982     TIP3     H1       HT       0.417000       1.00800           0
     17130 TIP3     1982     TIP3     H2       HT       0.417000       1.00800           0
     17131 TIP3     1983     TIP3     OH2      OT      -0.834000       15.9994           0
     17132 TIP3     1983     TIP3     H1       HT       0.417000       1.00800           0
     17133 TIP3     1983     TIP3     H2       HT       0.417000       1.00800           0
     17134 TIP3     1984     TIP3     OH2      OT      -0.834000       15.9994           0
     17135 TIP3     1984     TIP3     H1       HT       0.417000       1.00800           0
     17136 TIP3     1984     TIP3     H2       HT       0.417000       1.00800           0
     17137 TIP3     1985     TIP3     OH2      OT      -0.834000       15.9994           0
     17138 TIP3     1985     TIP3     H1       HT       0.417000       1.00800           0
     17139 TIP3     1985     TIP3     H2       HT       0.417000       1.00800           0
     17140 TIP3     1986     TIP3     OH2      OT      -0.834000       15.9994           0
     17141 TIP3     1986     TIP3     H1       HT       0.417000       1.00800           0
     17142 TIP3     1986     TIP3     H2       HT       0.417000       1.00800           0
     17143 TIP3     1987     TIP3     OH2      OT      -0.834000       15.9994           0
     17144 TIP3     1987     TIP3     H1       HT       0.417000       1.00800           0
     17145 TIP3     1987     TIP3     H2       HT       0.417000       1.00800           0
     17146 TIP3     1988     TIP3     OH2      OT      -0.834000       15.9994           0
     17147 TIP3     1988     TIP3     H1       HT       0.417000       1.00800           0
     17148 TIP3     1988     TIP3     H2       HT       0.417000       1.00800           0
     17149 TIP3     1989     TIP3     OH2      OT      -0.834000       15.9994           0
     17150 TIP3     1989     TIP3     H1       HT       0.417000       1.00800           0
     17151 TIP3     1989     TIP3     H2       HT       0.417000       1.00800           0
     17152 TIP3     1990     TIP3     OH2      OT      -0.834000       15.9994           0
     17153 TIP3     1990     TIP3     H1       HT       0.417000       1.00800           0
     17154 TIP3     1990     TIP3     H2       HT       0.417000       1.00800           0
     17155 TIP3     1991     TIP3     OH2      OT      -0.834000       15.9994           0
     17156 TIP3     1991     TIP3     H1       HT       0.417000       1.00800           0
     17157 TIP3     1991     TIP3     H2       HT       0.417000       1.00800           0
     17158 TIP3     1992     TIP3     OH2      OT      -0.834000       15.9994           0
     17159 TIP3     1992     TIP3     H1       HT       0.417000       1.00800           0
     17160 TIP3     1992     TIP3     H2       HT       0.417000       1.00800           0
     17161 TIP3     1993     TIP3     OH2      OT      -0.834000       15.9994           0
     17162 TIP3     1993     TIP3     H1       HT       0.417000       1.00800           0
     17163 TIP3     1993     TIP3     H2       HT       0.417000       1.00800           0
     17164 TIP3     1994     TIP3     OH2      OT      -0.834000       15.9994           0
     17165 TIP3     1994     TIP3     H1       HT       0.417000       1.00800           0
     17166 TIP3     1994     TIP3     H2       HT       0.417000       1.00800           0
     17167 TIP3     1995     TIP3     OH2      OT      -0.834000       15.9994           0
     17168 TIP3     1995     TIP3     H1       HT       0.417000       1.00800           0
     17169 TIP3     1995     TIP3     H2       HT       0.417000       1.00800           0
     17170 TIP3     1996     TIP3     OH2      OT      -0.834000       15.9994           0
     17171 TIP3     1996     TIP3     H1       HT       0.417000       1.00800           0
     17172 TIP3     1996     TIP3     H2       HT       0.417000       1.00800           0
     17173 TIP3     1997     TIP3     OH2      OT      -0.834000       15.9994           0
     17174 TIP3     1997     TIP3     H1       HT       0.417000       1.00800           0
     17175 TIP3     1997     TIP3     H2       HT       0.417000       1.00800           0
     17176 TIP3     1998     TIP3     OH2      OT      -0.834000       15.9994           0
     17177 TIP3     1998     TIP3     H1       HT       0.417000       1.00800           0
     17178 TIP3     1998     TIP3     H2       HT       0.417000       1.00800           0
     17179 TIP3     1999     TIP3     OH2      OT      -0.834000       15.9994           0
     17180 TIP3     1999     TIP3     H1       HT       0.417000       1.00800           0
     17181 TIP3     1999     TIP3     H2       HT       0.417000       1.00800           0
     17182 TIP3     2000     TIP3     OH2      OT      -0.834000       15.9994           0
     17183 TIP3     2000     TIP3     H1       HT       0.417000       1.00800           0
     17184 TIP3     2000     TIP3     H2       HT       0.417000       1.00800           0
     17185 TIP3     2001     TIP3     OH2      OT      -0.834000       15.9994           0
     17186 TIP3     2001     TIP3     H1       HT       0.417000       1.00800           0
     17187 TIP3     2001     TIP3     H2       HT       0.417000       1.00800           0
     17188 TIP3     2002     TIP3     OH2      OT      -0.834000       15.9994           0
     17189 TIP3     2002     TIP3     H1       HT       0.417000       1.00800           0
     17190 TIP3     2002     TIP3     H2       HT       0.417000       1.00800           0
     17191 TIP3     2003     TIP3     OH2      OT      -0.834000       15.9994           0
     17192 TIP3     2003     TIP3     H1       HT       0.417000       1.00800           0
     17193 TIP3     2003     TIP3     H2       HT       0.417000       1.00800           0
     17194 TIP3     2004     TIP3     OH2      OT      -0.834000       15.9994           0
     17195 TIP3     2004     TIP3     H1       HT       0.417000       1.00800           0
     17196 TIP3     2004     TIP3     H2       HT       0.417000       1.00800           0
     17197 TIP3     2005     TIP3     OH2      OT      -0.834000       15.9994           0
     17198 TIP3     2005     TIP3     H1       HT       0.417000       1.00800           0
     17199 TIP3     2005     TIP3     H2       HT       0.417000       1.00800           0
     17200 TIP3     2006     TIP3     OH2      OT      -0.834000       15.9994           0
     17201 TIP3     2006     TIP3     H1       HT       0.417000       1.00800           0
     17202 TIP3     2006     TIP3     H2       HT       0.417000       1.00800           0
     17203 TIP3     2007     TIP3     OH2      OT      -0.834000       15.9994           0
     17204 TIP3     2007     TIP3     H1       HT       0.417000       1.00800           0
     17205 TIP3     2007     TIP3     H2       HT       0.417000       1.00800           0
     17206 TIP3     2008     TIP3     OH2      OT      -0.834000       15.9994           0
     17207 TIP3     2008     TIP3     H1       HT       0.417000       1.00800           0
     17208 TIP3     2008     TIP3     H2       HT       0.417000       1.00800           0
     17209 TIP3     2009     TIP3     OH2      OT      -0.834000       15.9994           0
     17210 TIP3     2009     TIP3     H1       HT       0.417000       1.00800           0
     17211 TIP3     2009     TIP3     H2       HT       0.417000       1.00800           0
     17212 TIP3     2010     TIP3     OH2      OT      -0.834000       15.9994           0
     17213 TIP3     2010     TIP3     H1       HT       0.417000       1.00800           0
     17214 TIP3     2010     TIP3     H2       HT       0.417000       1.00800           0
     17215 TIP3     2011     TIP3     OH2      OT      -0.834000       15.9994           0
     17216 TIP3     2011     TIP3     H1       HT       0.417000       1.00800           0
     17217 TIP3     2011     TIP3     H2       HT       0.417000       1.00800           0
     17218 TIP3     2012     TIP3     OH2      OT      -0.834000       15.9994           0
     17219 TIP3     2012     TIP3     H1       HT       0.417000       1.00800           0
     17220 TIP3     2012     TIP3     H2       HT       0.417000       1.00800           0
     17221 TIP3     2013     TIP3     OH2      OT      -0.834000       15.9994           0
     17222 TIP3     2013     TIP3     H1       HT       0.417000       1.00800           0
     17223 TIP3     2013     TIP3     H2       HT       0.417000       1.00800           0
     17224 TIP3     2014     TIP3     OH2      OT      -0.834000       15.9994           0
     17225 TIP3     2014     TIP3     H1       HT       0.417000       1.00800           0
     17226 TIP3     2014     TIP3     H2       HT       0.417000       1.00800           0
     17227 TIP3     2015     TIP3     OH2      OT      -0.834000       15.9994           0
     17228 TIP3     2015     TIP3     H1       HT       0.417000       1.00800           0
     17229 TIP3     2015     TIP3     H2       HT       0.417000       1.00800           0
     17230 TIP3     2016     TIP3     OH2      OT      -0.834000       15.9994           0
     17231 TIP3     2016     TIP3     H1       HT       0.417000       1.00800           0
     17232 TIP3     2016     TIP3     H2       HT       0.417000       1.00800           0
     17233 TIP3     2017     TIP3     OH2      OT      -0.834000       15.9994           0
     17234 TIP3     2017     TIP3     H1       HT       0.417000       1.00800           0
     17235 TIP3     2017     TIP3     H2       HT       0.417000       1.00800           0
     17236 TIP3     2018     TIP3     OH2      OT      -0.834000       15.9994           0
     17237 TIP3     2018     TIP3     H1       HT       0.417000       1.00800           0
     17238 TIP3     2018     TIP3     H2       HT       0.417000       1.00800           0
     17239 TIP3     2019     TIP3     OH2      OT      -0.834000       15.9994           0
     17240 TIP3     2019     TIP3     H1       HT       0.417000       1.00800           0
     17241 TIP3     2019     TIP3     H2       HT       0.417000       1.00800           0
     17242 TIP3     2020     TIP3     OH2      OT      -0.834000       15.9994           0
     17243 TIP3     2020     TIP3     H1       HT       0.417000       1.00800           0
     17244 TIP3     2020     TIP3     H2       HT       0.417000       1.00800           0
     17245 TIP3     2021     TIP3     OH2      OT      -0.834000       15.9994           0
     17246 TIP3     2021     TIP3     H1       HT       0.417000       1.00800           0
     17247 TIP3     2021     TIP3     H2       HT       0.417000       1.00800           0
     17248 TIP3     2022     TIP3     OH2      OT      -0.834000       15.9994           0
     17249 TIP3     2022     TIP3     H1       HT       0.417000       1.00800           0
     17250 TIP3     2022     TIP3     H2       HT       0.417000       1.00800           0
     17251 TIP3     2023     TIP3     OH2      OT      -0.834000       15.9994           0
     17252 TIP3     2023     TIP3     H1       HT       0.417000       1.00800           0
     17253 TIP3     2023     TIP3     H2       HT       0.417000       1.00800           0
     17254 TIP3     2024     TIP3     OH2      OT      -0.834000       15.9994           0
     17255 TIP3     2024     TIP3     H1       HT       0.417000       1.00800           0
     17256 TIP3     2024     TIP3     H2       HT       0.417000       1.00800           0
     17257 TIP3     2025     TIP3     OH2      OT      -0.834000       15.9994           0
     17258 TIP3     2025     TIP3     H1       HT       0.417000       1.00800           0
     17259 TIP3     2025     TIP3     H2       HT       0.417000       1.00800           0
     17260 TIP3     2026     TIP3     OH2      OT      -0.834000       15.9994           0
     17261 TIP3     2026     TIP3     H1       HT       0.417000       1.00800           0
     17262 TIP3     2026     TIP3     H2       HT       0.417000       1.00800           0
     17263 TIP3     2027     TIP3     OH2      OT      -0.834000       15.9994           0
     17264 TIP3     2027     TIP3     H1       HT       0.417000       1.00800           0
     17265 TIP3     2027     TIP3     H2       HT       0.417000       1.00800           0
     17266 TIP3     2028     TIP3     OH2      OT      -0.834000       15.9994           0
     17267 TIP3     2028     TIP3     H1       HT       0.417000       1.00800           0
     17268 TIP3     2028     TIP3     H2       HT       0.417000       1.00800           0
     17269 TIP3     2029     TIP3     OH2      OT      -0.834000       15.9994           0
     17270 TIP3     2029     TIP3     H1       HT       0.417000       1.00800           0
     17271 TIP3     2029     TIP3     H2       HT       0.417000       1.00800           0
     17272 TIP3     2030     TIP3     OH2      OT      -0.834000       15.9994           0
     17273 TIP3     2030     TIP3     H1       HT       0.417000       1.00800           0
     17274 TIP3     2030     TIP3     H2       HT       0.417000       1.00800           0
     17275 TIP3     2031     TIP3     OH2      OT      -0.834000       15.9994           0
     17276 TIP3     2031     TIP3     H1       HT       0.417000       1.00800           0
     17277 TIP3     2031     TIP3     H2       HT       0.417000       1.00800           0
     17278 TIP3     2032     TIP3     OH2      OT      -0.834000       15.9994           0
     17279 TIP3     2032     TIP3     H1       HT       0.417000       1.00800           0
     17280 TIP3     2032     TIP3     H2       HT       0.417000       1.00800           0
     17281 TIP3     2033     TIP3     OH2      OT      -0.834000       15.9994           0
     17282 TIP3     2033     TIP3     H1       HT       0.417000       1.00800           0
     17283 TIP3     2033     TIP3     H2       HT       0.417000       1.00800           0
     17284 TIP3     2034     TIP3     OH2      OT      -0.834000       15.9994           0
     17285 TIP3     2034     TIP3     H1       HT       0.417000       1.00800           0
     17286 TIP3     2034     TIP3     H2       HT       0.417000       1.00800           0
     17287 TIP3     2035     TIP3     OH2      OT      -0.834000       15.9994           0
     17288 TIP3     2035     TIP3     H1       HT       0.417000       1.00800           0
     17289 TIP3     2035     TIP3     H2       HT       0.417000       1.00800           0
     17290 TIP3     2036     TIP3     OH2      OT      -0.834000       15.9994           0
     17291 TIP3     2036     TIP3     H1       HT       0.417000       1.00800           0
     17292 TIP3     2036     TIP3     H2       HT       0.417000       1.00800           0
     17293 TIP3     2037     TIP3     OH2      OT      -0.834000       15.9994           0
     17294 TIP3     2037     TIP3     H1       HT       0.417000       1.00800           0
     17295 TIP3     2037     TIP3     H2       HT       0.417000       1.00800           0
     17296 TIP3     2038     TIP3     OH2      OT      -0.834000       15.9994           0
     17297 TIP3     2038     TIP3     H1       HT       0.417000       1.00800           0
     17298 TIP3     2038     TIP3     H2       HT       0.417000       1.00800           0
     17299 TIP3     2039     TIP3     OH2      OT      -0.834000       15.9994           0
     17300 TIP3     2039     TIP3     H1       HT       0.417000       1.00800           0
     17301 TIP3     2039     TIP3     H2       HT       0.417000       1.00800           0
     17302 TIP3     2040     TIP3     OH2      OT      -0.834000       15.9994           0
     17303 TIP3     2040     TIP3     H1       HT       0.417000       1.00800           0
     17304 TIP3     2040     TIP3     H2       HT       0.417000       1.00800           0
     17305 TIP3     2041     TIP3     OH2      OT      -0.834000       15.9994           0
     17306 TIP3     2041     TIP3     H1       HT       0.417000       1.00800           0
     17307 TIP3     2041     TIP3     H2       HT       0.417000       1.00800           0
     17308 TIP3     2042     TIP3     OH2      OT      -0.834000       15.9994           0
     17309 TIP3     2042     TIP3     H1       HT       0.417000       1.00800           0
     17310 TIP3     2042     TIP3     H2       HT       0.417000       1.00800           0
     17311 TIP3     2043     TIP3     OH2      OT      -0.834000       15.9994           0
     17312 TIP3     2043     TIP3     H1       HT       0.417000       1.00800           0
     17313 TIP3     2043     TIP3     H2       HT       0.417000       1.00800           0
     17314 TIP3     2044     TIP3     OH2      OT      -0.834000       15.9994           0
     17315 TIP3     2044     TIP3     H1       HT       0.417000       1.00800           0
     17316 TIP3     2044     TIP3     H2       HT       0.417000       1.00800           0
     17317 TIP3     2045     TIP3     OH2      OT      -0.834000       15.9994           0
     17318 TIP3     2045     TIP3     H1       HT       0.417000       1.00800           0
     17319 TIP3     2045     TIP3     H2       HT       0.417000       1.00800           0
     17320 TIP3     2046     TIP3     OH2      OT      -0.834000       15.9994           0
     17321 TIP3     2046     TIP3     H1       HT       0.417000       1.00800           0
     17322 TIP3     2046     TIP3     H2       HT       0.417000       1.00800           0
     17323 TIP3     2047     TIP3     OH2      OT      -0.834000       15.9994           0
     17324 TIP3     2047     TIP3     H1       HT       0.417000       1.00800           0
     17325 TIP3     2047     TIP3     H2       HT       0.417000       1.00800           0
     17326 TIP3     2048     TIP3     OH2      OT      -0.834000       15.9994           0
     17327 TIP3     2048     TIP3     H1       HT       0.417000       1.00800           0
     17328 TIP3     2048     TIP3     H2       HT       0.417000       1.00800           0
     17329 TIP3     2049     TIP3     OH2      OT      -0.834000       15.9994           0
     17330 TIP3     2049     TIP3     H1       HT       0.417000       1.00800           0
     17331 TIP3     2049     TIP3     H2       HT       0.417000       1.00800           0
     17332 TIP3     2050     TIP3     OH2      OT      -0.834000       15.9994           0
     17333 TIP3     2050     TIP3     H1       HT       0.417000       1.00800           0
     17334 TIP3     2050     TIP3     H2       HT       0.417000       1.00800           0
     17335 TIP3     2051     TIP3     OH2      OT      -0.834000       15.9994           0
     17336 TIP3     2051     TIP3     H1       HT       0.417000       1.00800           0
     17337 TIP3     2051     TIP3     H2       HT       0.417000       1.00800           0
     17338 TIP3     2052     TIP3     OH2      OT      -0.834000       15.9994           0
     17339 TIP3     2052     TIP3     H1       HT       0.417000       1.00800           0
     17340 TIP3     2052     TIP3     H2       HT       0.417000       1.00800           0
     17341 TIP3     2053     TIP3     OH2      OT      -0.834000       15.9994           0
     17342 TIP3     2053     TIP3     H1       HT       0.417000       1.00800           0
     17343 TIP3     2053     TIP3     H2       HT       0.417000       1.00800           0
     17344 TIP3     2054     TIP3     OH2      OT      -0.834000       15.9994           0
     17345 TIP3     2054     TIP3     H1       HT       0.417000       1.00800           0
     17346 TIP3     2054     TIP3     H2       HT       0.417000       1.00800           0
     17347 TIP3     2055     TIP3     OH2      OT      -0.834000       15.9994           0
     17348 TIP3     2055     TIP3     H1       HT       0.417000       1.00800           0
     17349 TIP3     2055     TIP3     H2       HT       0.417000       1.00800           0
     17350 TIP3     2056     TIP3     OH2      OT      -0.834000       15.9994           0
     17351 TIP3     2056     TIP3     H1       HT       0.417000       1.00800           0
     17352 TIP3     2056     TIP3     H2       HT       0.417000       1.00800           0
     17353 TIP3     2057     TIP3     OH2      OT      -0.834000       15.9994           0
     17354 TIP3     2057     TIP3     H1       HT       0.417000       1.00800           0
     17355 TIP3     2057     TIP3     H2       HT       0.417000       1.00800           0
     17356 TIP3     2058     TIP3     OH2      OT      -0.834000       15.9994           0
     17357 TIP3     2058     TIP3     H1       HT       0.417000       1.00800           0
     17358 TIP3     2058     TIP3     H2       HT       0.417000       1.00800           0
     17359 TIP3     2059     TIP3     OH2      OT      -0.834000       15.9994           0
     17360 TIP3     2059     TIP3     H1       HT       0.417000       1.00800           0
     17361 TIP3     2059     TIP3     H2       HT       0.417000       1.00800           0
     17362 TIP3     2060     TIP3     OH2      OT      -0.834000       15.9994           0
     17363 TIP3     2060     TIP3     H1       HT       0.417000       1.00800           0
     17364 TIP3     2060     TIP3     H2       HT       0.417000       1.00800           0
     17365 TIP3     2061     TIP3     OH2      OT      -0.834000       15.9994           0
     17366 TIP3     2061     TIP3     H1       HT       0.417000       1.00800           0
     17367 TIP3     2061     TIP3     H2       HT       0.417000       1.00800           0
     17368 TIP3     2062     TIP3     OH2      OT      -0.834000       15.9994           0
     17369 TIP3     2062     TIP3     H1       HT       0.417000       1.00800           0
     17370 TIP3     2062     TIP3     H2       HT       0.417000       1.00800           0
     17371 TIP3     2063     TIP3     OH2      OT      -0.834000       15.9994           0
     17372 TIP3     2063     TIP3     H1       HT       0.417000       1.00800           0
     17373 TIP3     2063     TIP3     H2       HT       0.417000       1.00800           0
     17374 TIP3     2064     TIP3     OH2      OT      -0.834000       15.9994           0
     17375 TIP3     2064     TIP3     H1       HT       0.417000       1.00800           0
     17376 TIP3     2064     TIP3     H2       HT       0.417000       1.00800           0
     17377 TIP3     2065     TIP3     OH2      OT      -0.834000       15.9994           0
     17378 TIP3     2065     TIP3     H1       HT       0.417000       1.00800           0
     17379 TIP3     2065     TIP3     H2       HT       0.417000       1.00800           0
     17380 TIP3     2066     TIP3     OH2      OT      -0.834000       15.9994           0
     17381 TIP3     2066     TIP3     H1       HT       0.417000       1.00800           0
     17382 TIP3     2066     TIP3     H2       HT       0.417000       1.00800           0
     17383 TIP3     2067     TIP3     OH2      OT      -0.834000       15.9994           0
     17384 TIP3     2067     TIP3     H1       HT       0.417000       1.00800           0
     17385 TIP3     2067     TIP3     H2       HT       0.417000       1.00800           0
     17386 TIP3     2068     TIP3     OH2      OT      -0.834000       15.9994           0
     17387 TIP3     2068     TIP3     H1       HT       0.417000       1.00800           0
     17388 TIP3     2068     TIP3     H2       HT       0.417000       1.00800           0
     17389 TIP3     2069     TIP3     OH2      OT      -0.834000       15.9994           0
     17390 TIP3     2069     TIP3     H1       HT       0.417000       1.00800           0
     17391 TIP3     2069     TIP3     H2       HT       0.417000       1.00800           0
     17392 TIP3     2070     TIP3     OH2      OT      -0.834000       15.9994           0
     17393 TIP3     2070     TIP3     H1       HT       0.417000       1.00800           0
     17394 TIP3     2070     TIP3     H2       HT       0.417000       1.00800           0
     17395 TIP3     2071     TIP3     OH2      OT      -0.834000       15.9994           0
     17396 TIP3     2071     TIP3     H1       HT       0.417000       1.00800           0
     17397 TIP3     2071     TIP3     H2       HT       0.417000       1.00800           0
     17398 TIP3     2072     TIP3     OH2      OT      -0.834000       15.9994           0
     17399 TIP3     2072     TIP3     H1       HT       0.417000       1.00800           0
     17400 TIP3     2072     TIP3     H2       HT       0.417000       1.00800           0
     17401 TIP3     2073     TIP3     OH2      OT      -0.834000       15.9994           0
     17402 TIP3     2073     TIP3     H1       HT       0.417000       1.00800           0
     17403 TIP3     2073     TIP3     H2       HT       0.417000       1.00800           0
     17404 TIP3     2074     TIP3     OH2      OT      -0.834000       15.9994           0
     17405 TIP3     2074     TIP3     H1       HT       0.417000       1.00800           0
     17406 TIP3     2074     TIP3     H2       HT       0.417000       1.00800           0
     17407 TIP3     2075     TIP3     OH2      OT      -0.834000       15.9994           0
     17408 TIP3     2075     TIP3     H1       HT       0.417000       1.00800           0
     17409 TIP3     2075     TIP3     H2       HT       0.417000       1.00800           0
     17410 TIP3     2076     TIP3     OH2      OT      -0.834000       15.9994           0
     17411 TIP3     2076     TIP3     H1       HT       0.417000       1.00800           0
     17412 TIP3     2076     TIP3     H2       HT       0.417000       1.00800           0
     17413 TIP3     2077     TIP3     OH2      OT      -0.834000       15.9994           0
     17414 TIP3     2077     TIP3     H1       HT       0.417000       1.00800           0
     17415 TIP3     2077     TIP3     H2       HT       0.417000       1.00800           0
     17416 TIP3     2078     TIP3     OH2      OT      -0.834000       15.9994           0
     17417 TIP3     2078     TIP3     H1       HT       0.417000       1.00800           0
     17418 TIP3     2078     TIP3     H2       HT       0.417000       1.00800           0
     17419 TIP3     2079     TIP3     OH2      OT      -0.834000       15.9994           0
     17420 TIP3     2079     TIP3     H1       HT       0.417000       1.00800           0
     17421 TIP3     2079     TIP3     H2       HT       0.417000       1.00800           0
     17422 TIP3     2080     TIP3     OH2      OT      -0.834000       15.9994           0
     17423 TIP3     2080     TIP3     H1       HT       0.417000       1.00800           0
     17424 TIP3     2080     TIP3     H2       HT       0.417000       1.00800           0
     17425 TIP3     2081     TIP3     OH2      OT      -0.834000       15.9994           0
     17426 TIP3     2081     TIP3     H1       HT       0.417000       1.00800           0
     17427 TIP3     2081     TIP3     H2       HT       0.417000       1.00800           0
     17428 TIP3     2082     TIP3     OH2      OT      -0.834000       15.9994           0
     17429 TIP3     2082     TIP3     H1       HT       0.417000       1.00800           0
     17430 TIP3     2082     TIP3     H2       HT       0.417000       1.00800           0
     17431 TIP3     2083     TIP3     OH2      OT      -0.834000       15.9994           0
     17432 TIP3     2083     TIP3     H1       HT       0.417000       1.00800           0
     17433 TIP3     2083     TIP3     H2       HT       0.417000       1.00800           0
     17434 TIP3     2084     TIP3     OH2      OT      -0.834000       15.9994           0
     17435 TIP3     2084     TIP3     H1       HT       0.417000       1.00800           0
     17436 TIP3     2084     TIP3     H2       HT       0.417000       1.00800           0
     17437 TIP3     2085     TIP3     OH2      OT      -0.834000       15.9994           0
     17438 TIP3     2085     TIP3     H1       HT       0.417000       1.00800           0
     17439 TIP3     2085     TIP3     H2       HT       0.417000       1.00800           0
     17440 TIP3     2086     TIP3     OH2      OT      -0.834000       15.9994           0
     17441 TIP3     2086     TIP3     H1       HT       0.417000       1.00800           0
     17442 TIP3     2086     TIP3     H2       HT       0.417000       1.00800           0
     17443 TIP3     2087     TIP3     OH2      OT      -0.834000       15.9994           0
     17444 TIP3     2087     TIP3     H1       HT       0.417000       1.00800           0
     17445 TIP3     2087     TIP3     H2       HT       0.417000       1.00800           0
     17446 TIP3     2088     TIP3     OH2      OT      -0.834000       15.9994           0
     17447 TIP3     2088     TIP3     H1       HT       0.417000       1.00800           0
     17448 TIP3     2088     TIP3     H2       HT       0.417000       1.00800           0
     17449 TIP3     2089     TIP3     OH2      OT      -0.834000       15.9994           0
     17450 TIP3     2089     TIP3     H1       HT       0.417000       1.00800           0
     17451 TIP3     2089     TIP3     H2       HT       0.417000       1.00800           0
     17452 TIP3     2090     TIP3     OH2      OT      -0.834000       15.9994           0
     17453 TIP3     2090     TIP3     H1       HT       0.417000       1.00800           0
     17454 TIP3     2090     TIP3     H2       HT       0.417000       1.00800           0
     17455 TIP3     2091     TIP3     OH2      OT      -0.834000       15.9994           0
     17456 TIP3     2091     TIP3     H1       HT       0.417000       1.00800           0
     17457 TIP3     2091     TIP3     H2       HT       0.417000       1.00800           0
     17458 TIP3     2092     TIP3     OH2      OT      -0.834000       15.9994           0
     17459 TIP3     2092     TIP3     H1       HT       0.417000       1.00800           0
     17460 TIP3     2092     TIP3     H2       HT       0.417000       1.00800           0
     17461 TIP3     2093     TIP3     OH2      OT      -0.834000       15.9994           0
     17462 TIP3     2093     TIP3     H1       HT       0.417000       1.00800           0
     17463 TIP3     2093     TIP3     H2       HT       0.417000       1.00800           0
     17464 TIP3     2094     TIP3     OH2      OT      -0.834000       15.9994           0
     17465 TIP3     2094     TIP3     H1       HT       0.417000       1.00800           0
     17466 TIP3     2094     TIP3     H2       HT       0.417000       1.00800           0
     17467 TIP3     2095     TIP3     OH2      OT      -0.834000       15.9994           0
     17468 TIP3     2095     TIP3     H1       HT       0.417000       1.00800           0
     17469 TIP3     2095     TIP3     H2       HT       0.417000       1.00800           0
     17470 TIP3     2096     TIP3     OH2      OT      -0.834000       15.9994           0
     17471 TIP3     2096     TIP3     H1       HT       0.417000       1.00800           0
     17472 TIP3     2096     TIP3     H2       HT       0.417000       1.00800           0
     17473 TIP3     2097     TIP3     OH2      OT      -0.834000       15.9994           0
     17474 TIP3     2097     TIP3     H1       HT       0.417000       1.00800           0
     17475 TIP3     2097     TIP3     H2       HT       0.417000       1.00800           0
     17476 TIP3     2098     TIP3     OH2      OT      -0.834000       15.9994           0
     17477 TIP3     2098     TIP3     H1       HT       0.417000       1.00800           0
     17478 TIP3     2098     TIP3     H2       HT       0.417000       1.00800           0
     17479 TIP3     2099     TIP3     OH2      OT      -0.834000       15.9994           0
     17480 TIP3     2099     TIP3     H1       HT       0.417000       1.00800           0
     17481 TIP3     2099     TIP3     H2       HT       0.417000       1.00800           0
     17482 TIP3     2100     TIP3     OH2      OT      -0.834000       15.9994           0
     17483 TIP3     2100     TIP3     H1       HT       0.417000       1.00800           0
     17484 TIP3     2100     TIP3     H2       HT       0.417000       1.00800           0
     17485 TIP3     2101     TIP3     OH2      OT      -0.834000       15.9994           0
     17486 TIP3     2101     TIP3     H1       HT       0.417000       1.00800           0
     17487 TIP3     2101     TIP3     H2       HT       0.417000       1.00800           0
     17488 TIP3     2102     TIP3     OH2      OT      -0.834000       15.9994           0
     17489 TIP3     2102     TIP3     H1       HT       0.417000       1.00800           0
     17490 TIP3     2102     TIP3     H2       HT       0.417000       1.00800           0
     17491 TIP3     2103     TIP3     OH2      OT      -0.834000       15.9994           0
     17492 TIP3     2103     TIP3     H1       HT       0.417000       1.00800           0
     17493 TIP3     2103     TIP3     H2       HT       0.417000       1.00800           0
     17494 TIP3     2104     TIP3     OH2      OT      -0.834000       15.9994           0
     17495 TIP3     2104     TIP3     H1       HT       0.417000       1.00800           0
     17496 TIP3     2104     TIP3     H2       HT       0.417000       1.00800           0
     17497 TIP3     2105     TIP3     OH2      OT      -0.834000       15.9994           0
     17498 TIP3     2105     TIP3     H1       HT       0.417000       1.00800           0
     17499 TIP3     2105     TIP3     H2       HT       0.417000       1.00800           0
     17500 TIP3     2106     TIP3     OH2      OT      -0.834000       15.9994           0
     17501 TIP3     2106     TIP3     H1       HT       0.417000       1.00800           0
     17502 TIP3     2106     TIP3     H2       HT       0.417000       1.00800           0
     17503 TIP3     2107     TIP3     OH2      OT      -0.834000       15.9994           0
     17504 TIP3     2107     TIP3     H1       HT       0.417000       1.00800           0
     17505 TIP3     2107     TIP3     H2       HT       0.417000       1.00800           0
     17506 TIP3     2108     TIP3     OH2      OT      -0.834000       15.9994           0
     17507 TIP3     2108     TIP3     H1       HT       0.417000       1.00800           0
     17508 TIP3     2108     TIP3     H2       HT       0.417000       1.00800           0
     17509 TIP3     2109     TIP3     OH2      OT      -0.834000       15.9994           0
     17510 TIP3     2109     TIP3     H1       HT       0.417000       1.00800           0
     17511 TIP3     2109     TIP3     H2       HT       0.417000       1.00800           0
     17512 TIP3     2110     TIP3     OH2      OT      -0.834000       15.9994           0
     17513 TIP3     2110     TIP3     H1       HT       0.417000       1.00800           0
     17514 TIP3     2110     TIP3     H2       HT       0.417000       1.00800           0
     17515 TIP3     2111     TIP3     OH2      OT      -0.834000       15.9994           0
     17516 TIP3     2111     TIP3     H1       HT       0.417000       1.00800           0
     17517 TIP3     2111     TIP3     H2       HT       0.417000       1.00800           0
     17518 TIP3     2112     TIP3     OH2      OT      -0.834000       15.9994           0
     17519 TIP3     2112     TIP3     H1       HT       0.417000       1.00800           0
     17520 TIP3     2112     TIP3     H2       HT       0.417000       1.00800           0
     17521 TIP3     2113     TIP3     OH2      OT      -0.834000       15.9994           0
     17522 TIP3     2113     TIP3     H1       HT       0.417000       1.00800           0
     17523 TIP3     2113     TIP3     H2       HT       0.417000       1.00800           0
     17524 TIP3     2114     TIP3     OH2      OT      -0.834000       15.9994           0
     17525 TIP3     2114     TIP3     H1       HT       0.417000       1.00800           0
     17526 TIP3     2114     TIP3     H2       HT       0.417000       1.00800           0
     17527 TIP3     2115     TIP3     OH2      OT      -0.834000       15.9994           0
     17528 TIP3     2115     TIP3     H1       HT       0.417000       1.00800           0
     17529 TIP3     2115     TIP3     H2       HT       0.417000       1.00800           0
     17530 TIP3     2116     TIP3     OH2      OT      -0.834000       15.9994           0
     17531 TIP3     2116     TIP3     H1       HT       0.417000       1.00800           0
     17532 TIP3     2116     TIP3     H2       HT       0.417000       1.00800           0
     17533 TIP3     2117     TIP3     OH2      OT      -0.834000       15.9994           0
     17534 TIP3     2117     TIP3     H1       HT       0.417000       1.00800           0
     17535 TIP3     2117     TIP3     H2       HT       0.417000       1.00800           0
     17536 TIP3     2118     TIP3     OH2      OT      -0.834000       15.9994           0
     17537 TIP3     2118     TIP3     H1       HT       0.417000       1.00800           0
     17538 TIP3     2118     TIP3     H2       HT       0.417000       1.00800           0
     17539 TIP3     2119     TIP3     OH2      OT      -0.834000       15.9994           0
     17540 TIP3     2119     TIP3     H1       HT       0.417000       1.00800           0
     17541 TIP3     2119     TIP3     H2       HT       0.417000       1.00800           0
     17542 TIP3     2120     TIP3     OH2      OT      -0.834000       15.9994           0
     17543 TIP3     2120     TIP3     H1       HT       0.417000       1.00800           0
     17544 TIP3     2120     TIP3     H2       HT       0.417000       1.00800           0
     17545 TIP3     2121     TIP3     OH2      OT      -0.834000       15.9994           0
     17546 TIP3     2121     TIP3     H1       HT       0.417000       1.00800           0
     17547 TIP3     2121     TIP3     H2       HT       0.417000       1.00800           0
     17548 TIP3     2122     TIP3     OH2      OT      -0.834000       15.9994           0
     17549 TIP3     2122     TIP3     H1       HT       0.417000       1.00800           0
     17550 TIP3     2122     TIP3     H2       HT       0.417000       1.00800           0
     17551 TIP3     2123     TIP3     OH2      OT      -0.834000       15.9994           0
     17552 TIP3     2123     TIP3     H1       HT       0.417000       1.00800           0
     17553 TIP3     2123     TIP3     H2       HT       0.417000       1.00800           0
     17554 TIP3     2124     TIP3     OH2      OT      -0.834000       15.9994           0
     17555 TIP3     2124     TIP3     H1       HT       0.417000       1.00800           0
     17556 TIP3     2124     TIP3     H2       HT       0.417000       1.00800           0
     17557 TIP3     2125     TIP3     OH2      OT      -0.834000       15.9994           0
     17558 TIP3     2125     TIP3     H1       HT       0.417000       1.00800           0
     17559 TIP3     2125     TIP3     H2       HT       0.417000       1.00800           0
     17560 TIP3     2126     TIP3     OH2      OT      -0.834000       15.9994           0
     17561 TIP3     2126     TIP3     H1       HT       0.417000       1.00800           0
     17562 TIP3     2126     TIP3     H2       HT       0.417000       1.00800           0
     17563 TIP3     2127     TIP3     OH2      OT      -0.834000       15.9994           0
     17564 TIP3     2127     TIP3     H1       HT       0.417000       1.00800           0
     17565 TIP3     2127     TIP3     H2       HT       0.417000       1.00800           0
     17566 TIP3     2128     TIP3     OH2      OT      -0.834000       15.9994           0
     17567 TIP3     2128     TIP3     H1       HT       0.417000       1.00800           0
     17568 TIP3     2128     TIP3     H2       HT       0.417000       1.00800           0
     17569 TIP3     2129     TIP3     OH2      OT      -0.834000       15.9994           0
     17570 TIP3     2129     TIP3     H1       HT       0.417000       1.00800           0
     17571 TIP3     2129     TIP3     H2       HT       0.417000       1.00800           0
     17572 TIP3     2130     TIP3     OH2      OT      -0.834000       15.9994           0
     17573 TIP3     2130     TIP3     H1       HT       0.417000       1.00800           0
     17574 TIP3     2130     TIP3     H2       HT       0.417000       1.00800           0
     17575 TIP3     2131     TIP3     OH2      OT      -0.834000       15.9994           0
     17576 TIP3     2131     TIP3     H1       HT       0.417000       1.00800           0
     17577 TIP3     2131     TIP3     H2       HT       0.417000       1.00800           0
     17578 TIP3     2132     TIP3     OH2      OT      -0.834000       15.9994           0
     17579 TIP3     2132     TIP3     H1       HT       0.417000       1.00800           0
     17580 TIP3     2132     TIP3     H2       HT       0.417000       1.00800           0
     17581 TIP3     2133     TIP3     OH2      OT      -0.834000       15.9994           0
     17582 TIP3     2133     TIP3     H1       HT       0.417000       1.00800           0
     17583 TIP3     2133     TIP3     H2       HT       0.417000       1.00800           0
     17584 TIP3     2134     TIP3     OH2      OT      -0.834000       15.9994           0
     17585 TIP3     2134     TIP3     H1       HT       0.417000       1.00800           0
     17586 TIP3     2134     TIP3     H2       HT       0.417000       1.00800           0
     17587 TIP3     2135     TIP3     OH2      OT      -0.834000       15.9994           0
     17588 TIP3     2135     TIP3     H1       HT       0.417000       1.00800           0
     17589 TIP3     2135     TIP3     H2       HT       0.417000       1.00800           0
     17590 TIP3     2136     TIP3     OH2      OT      -0.834000       15.9994           0
     17591 TIP3     2136     TIP3     H1       HT       0.417000       1.00800           0
     17592 TIP3     2136     TIP3     H2       HT       0.417000       1.00800           0
     17593 TIP3     2137     TIP3     OH2      OT      -0.834000       15.9994           0
     17594 TIP3     2137     TIP3     H1       HT       0.417000       1.00800           0
     17595 TIP3     2137     TIP3     H2       HT       0.417000       1.00800           0
     17596 TIP3     2138     TIP3     OH2      OT      -0.834000       15.9994           0
     17597 TIP3     2138     TIP3     H1       HT       0.417000       1.00800           0
     17598 TIP3     2138     TIP3     H2       HT       0.417000       1.00800           0
     17599 TIP3     2139     TIP3     OH2      OT      -0.834000       15.9994           0
     17600 TIP3     2139     TIP3     H1       HT       0.417000       1.00800           0
     17601 TIP3     2139     TIP3     H2       HT       0.417000       1.00800           0
     17602 TIP3     2140     TIP3     OH2      OT      -0.834000       15.9994           0
     17603 TIP3     2140     TIP3     H1       HT       0.417000       1.00800           0
     17604 TIP3     2140     TIP3     H2       HT       0.417000       1.00800           0
     17605 TIP3     2141     TIP3     OH2      OT      -0.834000       15.9994           0
     17606 TIP3     2141     TIP3     H1       HT       0.417000       1.00800           0
     17607 TIP3     2141     TIP3     H2       HT       0.417000       1.00800           0
     17608 TIP3     2142     TIP3     OH2      OT      -0.834000       15.9994           0
     17609 TIP3     2142     TIP3     H1       HT       0.417000       1.00800           0
     17610 TIP3     2142     TIP3     H2       HT       0.417000       1.00800           0
     17611 TIP3     2143     TIP3     OH2      OT      -0.834000       15.9994           0
     17612 TIP3     2143     TIP3     H1       HT       0.417000       1.00800           0
     17613 TIP3     2143     TIP3     H2       HT       0.417000       1.00800           0
     17614 TIP3     2144     TIP3     OH2      OT      -0.834000       15.9994           0
     17615 TIP3     2144     TIP3     H1       HT       0.417000       1.00800           0
     17616 TIP3     2144     TIP3     H2       HT       0.417000       1.00800           0
     17617 TIP3     2145     TIP3     OH2      OT      -0.834000       15.9994           0
     17618 TIP3     2145     TIP3     H1       HT       0.417000       1.00800           0
     17619 TIP3     2145     TIP3     H2       HT       0.417000       1.00800           0
     17620 TIP3     2146     TIP3     OH2      OT      -0.834000       15.9994           0
     17621 TIP3     2146     TIP3     H1       HT       0.417000       1.00800           0
     17622 TIP3     2146     TIP3     H2       HT       0.417000       1.00800           0
     17623 TIP3     2147     TIP3     OH2      OT      -0.834000       15.9994           0
     17624 TIP3     2147     TIP3     H1       HT       0.417000       1.00800           0
     17625 TIP3     2147     TIP3     H2       HT       0.417000       1.00800           0
     17626 TIP3     2148     TIP3     OH2      OT      -0.834000       15.9994           0
     17627 TIP3     2148     TIP3     H1       HT       0.417000       1.00800           0
     17628 TIP3     2148     TIP3     H2       HT       0.417000       1.00800           0
     17629 TIP3     2149     TIP3     OH2      OT      -0.834000       15.9994           0
     17630 TIP3     2149     TIP3     H1       HT       0.417000       1.00800           0
     17631 TIP3     2149     TIP3     H2       HT       0.417000       1.00800           0
     17632 TIP3     2150     TIP3     OH2      OT      -0.834000       15.9994           0
     17633 TIP3     2150     TIP3     H1       HT       0.417000       1.00800           0
     17634 TIP3     2150     TIP3     H2       HT       0.417000       1.00800           0
     17635 TIP3     2151     TIP3     OH2      OT      -0.834000       15.9994           0
     17636 TIP3     2151     TIP3     H1       HT       0.417000       1.00800           0
     17637 TIP3     2151     TIP3     H2       HT       0.417000       1.00800           0
     17638 TIP3     2152     TIP3     OH2      OT      -0.834000       15.9994           0
     17639 TIP3     2152     TIP3     H1       HT       0.417000       1.00800           0
     17640 TIP3     2152     TIP3     H2       HT       0.417000       1.00800           0
     17641 TIP3     2153     TIP3     OH2      OT      -0.834000       15.9994           0
     17642 TIP3     2153     TIP3     H1       HT       0.417000       1.00800           0
     17643 TIP3     2153     TIP3     H2       HT       0.417000       1.00800           0
     17644 TIP3     2154     TIP3     OH2      OT      -0.834000       15.9994           0
     17645 TIP3     2154     TIP3     H1       HT       0.417000       1.00800           0
     17646 TIP3     2154     TIP3     H2       HT       0.417000       1.00800           0
     17647 TIP3     2155     TIP3     OH2      OT      -0.834000       15.9994           0
     17648 TIP3     2155     TIP3     H1       HT       0.417000       1.00800           0
     17649 TIP3     2155     TIP3     H2       HT       0.417000       1.00800           0
     17650 TIP3     2156     TIP3     OH2      OT      -0.834000       15.9994           0
     17651 TIP3     2156     TIP3     H1       HT       0.417000       1.00800           0
     17652 TIP3     2156     TIP3     H2       HT       0.417000       1.00800           0
     17653 TIP3     2157     TIP3     OH2      OT      -0.834000       15.9994           0
     17654 TIP3     2157     TIP3     H1       HT       0.417000       1.00800           0
     17655 TIP3     2157     TIP3     H2       HT       0.417000       1.00800           0
     17656 TIP3     2158     TIP3     OH2      OT      -0.834000       15.9994           0
     17657 TIP3     2158     TIP3     H1       HT       0.417000       1.00800           0
     17658 TIP3     2158     TIP3     H2       HT       0.417000       1.00800           0
     17659 TIP3     2159     TIP3     OH2      OT      -0.834000       15.9994           0
     17660 TIP3     2159     TIP3     H1       HT       0.417000       1.00800           0
     17661 TIP3     2159     TIP3     H2       HT       0.417000       1.00800           0
     17662 TIP3     2160     TIP3     OH2      OT      -0.834000       15.9994           0
     17663 TIP3     2160     TIP3     H1       HT       0.417000       1.00800           0
     17664 TIP3     2160     TIP3     H2       HT       0.417000       1.00800           0
     17665 TIP3     2161     TIP3     OH2      OT      -0.834000       15.9994           0
     17666 TIP3     2161     TIP3     H1       HT       0.417000       1.00800           0
     17667 TIP3     2161     TIP3     H2       HT       0.417000       1.00800           0
     17668 TIP3     2162     TIP3     OH2      OT      -0.834000       15.9994           0
     17669 TIP3     2162     TIP3     H1       HT       0.417000       1.00800           0
     17670 TIP3     2162     TIP3     H2       HT       0.417000       1.00800           0
     17671 TIP3     2163     TIP3     OH2      OT      -0.834000       15.9994           0
     17672 TIP3     2163     TIP3     H1       HT       0.417000       1.00800           0
     17673 TIP3     2163     TIP3     H2       HT       0.417000       1.00800           0
     17674 TIP3     2164     TIP3     OH2      OT      -0.834000       15.9994           0
     17675 TIP3     2164     TIP3     H1       HT       0.417000       1.00800           0
     17676 TIP3     2164     TIP3     H2       HT       0.417000       1.00800           0
     17677 TIP3     2165     TIP3     OH2      OT      -0.834000       15.9994           0
     17678 TIP3     2165     TIP3     H1       HT       0.417000       1.00800           0
     17679 TIP3     2165     TIP3     H2       HT       0.417000       1.00800           0
     17680 TIP3     2166     TIP3     OH2      OT      -0.834000       15.9994           0
     17681 TIP3     2166     TIP3     H1       HT       0.417000       1.00800           0
     17682 TIP3     2166     TIP3     H2       HT       0.417000       1.00800           0
     17683 TIP3     2167     TIP3     OH2      OT      -0.834000       15.9994           0
     17684 TIP3     2167     TIP3     H1       HT       0.417000       1.00800           0
     17685 TIP3     2167     TIP3     H2       HT       0.417000       1.00800           0
     17686 TIP3     2168     TIP3     OH2      OT      -0.834000       15.9994           0
     17687 TIP3     2168     TIP3     H1       HT       0.417000       1.00800           0
     17688 TIP3     2168     TIP3     H2       HT       0.417000       1.00800           0
     17689 TIP3     2169     TIP3     OH2      OT      -0.834000       15.9994           0
     17690 TIP3     2169     TIP3     H1       HT       0.417000       1.00800           0
     17691 TIP3     2169     TIP3     H2       HT       0.417000       1.00800           0
     17692 TIP3     2170     TIP3     OH2      OT      -0.834000       15.9994           0
     17693 TIP3     2170     TIP3     H1       HT       0.417000       1.00800           0
     17694 TIP3     2170     TIP3     H2       HT       0.417000       1.00800           0
     17695 TIP3     2171     TIP3     OH2      OT      -0.834000       15.9994           0
     17696 TIP3     2171     TIP3     H1       HT       0.417000       1.00800           0
     17697 TIP3     2171     TIP3     H2       HT       0.417000       1.00800           0
     17698 TIP3     2172     TIP3     OH2      OT      -0.834000       15.9994           0
     17699 TIP3     2172     TIP3     H1       HT       0.417000       1.00800           0
     17700 TIP3     2172     TIP3     H2       HT       0.417000       1.00800           0
     17701 TIP3     2173     TIP3     OH2      OT      -0.834000       15.9994           0
     17702 TIP3     2173     TIP3     H1       HT       0.417000       1.00800           0
     17703 TIP3     2173     TIP3     H2       HT       0.417000       1.00800           0
     17704 TIP3     2174     TIP3     OH2      OT      -0.834000       15.9994           0
     17705 TIP3     2174     TIP3     H1       HT       0.417000       1.00800           0
     17706 TIP3     2174     TIP3     H2       HT       0.417000       1.00800           0
     17707 TIP3     2175     TIP3     OH2      OT      -0.834000       15.9994           0
     17708 TIP3     2175     TIP3     H1       HT       0.417000       1.00800           0
     17709 TIP3     2175     TIP3     H2       HT       0.417000       1.00800           0
     17710 TIP3     2176     TIP3     OH2      OT      -0.834000       15.9994           0
     17711 TIP3     2176     TIP3     H1       HT       0.417000       1.00800           0
     17712 TIP3     2176     TIP3     H2       HT       0.417000       1.00800           0
     17713 TIP3     2177     TIP3     OH2      OT      -0.834000       15.9994           0
     17714 TIP3     2177     TIP3     H1       HT       0.417000       1.00800           0
     17715 TIP3     2177     TIP3     H2       HT       0.417000       1.00800           0
     17716 TIP3     2178     TIP3     OH2      OT      -0.834000       15.9994           0
     17717 TIP3     2178     TIP3     H1       HT       0.417000       1.00800           0
     17718 TIP3     2178     TIP3     H2       HT       0.417000       1.00800           0
     17719 TIP3     2179     TIP3     OH2      OT      -0.834000       15.9994           0
     17720 TIP3     2179     TIP3     H1       HT       0.417000       1.00800           0
     17721 TIP3     2179     TIP3     H2       HT       0.417000       1.00800           0
     17722 TIP3     2180     TIP3     OH2      OT      -0.834000       15.9994           0
     17723 TIP3     2180     TIP3     H1       HT       0.417000       1.00800           0
     17724 TIP3     2180     TIP3     H2       HT       0.417000       1.00800           0
     17725 TIP3     2181     TIP3     OH2      OT      -0.834000       15.9994           0
     17726 TIP3     2181     TIP3     H1       HT       0.417000       1.00800           0
     17727 TIP3     2181     TIP3     H2       HT       0.417000       1.00800           0
     17728 TIP3     2182     TIP3     OH2      OT      -0.834000       15.9994           0
     17729 TIP3     2182     TIP3     H1       HT       0.417000       1.00800           0
     17730 TIP3     2182     TIP3     H2       HT       0.417000       1.00800           0
     17731 TIP3     2183     TIP3     OH2      OT      -0.834000       15.9994           0
     17732 TIP3     2183     TIP3     H1       HT       0.417000       1.00800           0
     17733 TIP3     2183     TIP3     H2       HT       0.417000       1.00800           0
     17734 TIP3     2184     TIP3     OH2      OT      -0.834000       15.9994           0
     17735 TIP3     2184     TIP3     H1       HT       0.417000       1.00800           0
     17736 TIP3     2184     TIP3     H2       HT       0.417000       1.00800           0
     17737 TIP3     2185     TIP3     OH2      OT      -0.834000       15.9994           0
     17738 TIP3     2185     TIP3     H1       HT       0.417000       1.00800           0
     17739 TIP3     2185     TIP3     H2       HT       0.417000       1.00800           0
     17740 TIP3     2186     TIP3     OH2      OT      -0.834000       15.9994           0
     17741 TIP3     2186     TIP3     H1       HT       0.417000       1.00800           0
     17742 TIP3     2186     TIP3     H2       HT       0.417000       1.00800           0
     17743 TIP3     2187     TIP3     OH2      OT      -0.834000       15.9994           0
     17744 TIP3     2187     TIP3     H1       HT       0.417000       1.00800           0
     17745 TIP3     2187     TIP3     H2       HT       0.417000       1.00800           0
     17746 TIP3     2188     TIP3     OH2      OT      -0.834000       15.9994           0
     17747 TIP3     2188     TIP3     H1       HT       0.417000       1.00800           0
     17748 TIP3     2188     TIP3     H2       HT       0.417000       1.00800           0
     17749 TIP3     2189     TIP3     OH2      OT      -0.834000       15.9994           0
     17750 TIP3     2189     TIP3     H1       HT       0.417000       1.00800           0
     17751 TIP3     2189     TIP3     H2       HT       0.417000       1.00800           0
     17752 TIP3     2190     TIP3     OH2      OT      -0.834000       15.9994           0
     17753 TIP3     2190     TIP3     H1       HT       0.417000       1.00800           0
     17754 TIP3     2190     TIP3     H2       HT       0.417000       1.00800           0
     17755 TIP3     2191     TIP3     OH2      OT      -0.834000       15.9994           0
     17756 TIP3     2191     TIP3     H1       HT       0.417000       1.00800           0
     17757 TIP3     2191     TIP3     H2       HT       0.417000       1.00800           0
     17758 TIP3     2192     TIP3     OH2      OT      -0.834000       15.9994           0
     17759 TIP3     2192     TIP3     H1       HT       0.417000       1.00800           0
     17760 TIP3     2192     TIP3     H2       HT       0.417000       1.00800           0
     17761 TIP3     2193     TIP3     OH2      OT      -0.834000       15.9994           0
     17762 TIP3     2193     TIP3     H1       HT       0.417000       1.00800           0
     17763 TIP3     2193     TIP3     H2       HT       0.417000       1.00800           0
     17764 TIP3     2194     TIP3     OH2      OT      -0.834000       15.9994           0
     17765 TIP3     2194     TIP3     H1       HT       0.417000       1.00800           0
     17766 TIP3     2194     TIP3     H2       HT       0.417000       1.00800           0
     17767 TIP3     2195     TIP3     OH2      OT      -0.834000       15.9994           0
     17768 TIP3     2195     TIP3     H1       HT       0.417000       1.00800           0
     17769 TIP3     2195     TIP3     H2       HT       0.417000       1.00800           0
     17770 TIP3     2196     TIP3     OH2      OT      -0.834000       15.9994           0
     17771 TIP3     2196     TIP3     H1       HT       0.417000       1.00800           0
     17772 TIP3     2196     TIP3     H2       HT       0.417000       1.00800           0
     17773 TIP3     2197     TIP3     OH2      OT      -0.834000       15.9994           0
     17774 TIP3     2197     TIP3     H1       HT       0.417000       1.00800           0
     17775 TIP3     2197     TIP3     H2       HT       0.417000       1.00800           0
     17776 TIP3     2198     TIP3     OH2      OT      -0.834000       15.9994           0
     17777 TIP3     2198     TIP3     H1       HT       0.417000       1.00800           0
     17778 TIP3     2198     TIP3     H2       HT       0.417000       1.00800           0
     17779 TIP3     2199     TIP3     OH2      OT      -0.834000       15.9994           0
     17780 TIP3     2199     TIP3     H1       HT       0.417000       1.00800           0
     17781 TIP3     2199     TIP3     H2       HT       0.417000       1.00800           0
     17782 TIP3     2200     TIP3     OH2      OT      -0.834000       15.9994           0
     17783 TIP3     2200     TIP3     H1       HT       0.417000       1.00800           0
     17784 TIP3     2200     TIP3     H2       HT       0.417000       1.00800           0
     17785 TIP3     2201     TIP3     OH2      OT      -0.834000       15.9994           0
     17786 TIP3     2201     TIP3     H1       HT       0.417000       1.00800           0
     17787 TIP3     2201     TIP3     H2       HT       0.417000       1.00800           0
     17788 TIP3     2202     TIP3     OH2      OT      -0.834000       15.9994           0
     17789 TIP3     2202     TIP3     H1       HT       0.417000       1.00800           0
     17790 TIP3     2202     TIP3     H2       HT       0.417000       1.00800           0
     17791 TIP3     2203     TIP3     OH2      OT      -0.834000       15.9994           0
     17792 TIP3     2203     TIP3     H1       HT       0.417000       1.00800           0
     17793 TIP3     2203     TIP3     H2       HT       0.417000       1.00800           0
     17794 TIP3     2204     TIP3     OH2      OT      -0.834000       15.9994           0
     17795 TIP3     2204     TIP3     H1       HT       0.417000       1.00800           0
     17796 TIP3     2204     TIP3     H2       HT       0.417000       1.00800           0
     17797 TIP3     2205     TIP3     OH2      OT      -0.834000       15.9994           0
     17798 TIP3     2205     TIP3     H1       HT       0.417000       1.00800           0
     17799 TIP3     2205     TIP3     H2       HT       0.417000       1.00800           0
     17800 TIP3     2206     TIP3     OH2      OT      -0.834000       15.9994           0
     17801 TIP3     2206     TIP3     H1       HT       0.417000       1.00800           0
     17802 TIP3     2206     TIP3     H2       HT       0.417000       1.00800           0
     17803 TIP3     2207     TIP3     OH2      OT      -0.834000       15.9994           0
     17804 TIP3     2207     TIP3     H1       HT       0.417000       1.00800           0
     17805 TIP3     2207     TIP3     H2       HT       0.417000       1.00800           0
     17806 TIP3     2208     TIP3     OH2      OT      -0.834000       15.9994           0
     17807 TIP3     2208     TIP3     H1       HT       0.417000       1.00800           0
     17808 TIP3     2208     TIP3     H2       HT       0.417000       1.00800           0
     17809 TIP3     2209     TIP3     OH2      OT      -0.834000       15.9994           0
     17810 TIP3     2209     TIP3     H1       HT       0.417000       1.00800           0
     17811 TIP3     2209     TIP3     H2       HT       0.417000       1.00800           0
     17812 TIP3     2210     TIP3     OH2      OT      -0.834000       15.9994           0
     17813 TIP3     2210     TIP3     H1       HT       0.417000       1.00800           0
     17814 TIP3     2210     TIP3     H2       HT       0.417000       1.00800           0
     17815 TIP3     2211     TIP3     OH2      OT      -0.834000       15.9994           0
     17816 TIP3     2211     TIP3     H1       HT       0.417000       1.00800           0
     17817 TIP3     2211     TIP3     H2       HT       0.417000       1.00800           0
     17818 TIP3     2212     TIP3     OH2      OT      -0.834000       15.9994           0
     17819 TIP3     2212     TIP3     H1       HT       0.417000       1.00800           0
     17820 TIP3     2212     TIP3     H2       HT       0.417000       1.00800           0
     17821 TIP3     2213     TIP3     OH2      OT      -0.834000       15.9994           0
     17822 TIP3     2213     TIP3     H1       HT       0.417000       1.00800           0
     17823 TIP3     2213     TIP3     H2       HT       0.417000       1.00800           0
     17824 TIP3     2214     TIP3     OH2      OT      -0.834000       15.9994           0
     17825 TIP3     2214     TIP3     H1       HT       0.417000       1.00800           0
     17826 TIP3     2214     TIP3     H2       HT       0.417000       1.00800           0
     17827 TIP3     2215     TIP3     OH2      OT      -0.834000       15.9994           0
     17828 TIP3     2215     TIP3     H1       HT       0.417000       1.00800           0
     17829 TIP3     2215     TIP3     H2       HT       0.417000       1.00800           0
     17830 TIP3     2216     TIP3     OH2      OT      -0.834000       15.9994           0
     17831 TIP3     2216     TIP3     H1       HT       0.417000       1.00800           0
     17832 TIP3     2216     TIP3     H2       HT       0.417000       1.00800           0
     17833 TIP3     2217     TIP3     OH2      OT      -0.834000       15.9994           0
     17834 TIP3     2217     TIP3     H1       HT       0.417000       1.00800           0
     17835 TIP3     2217     TIP3     H2       HT       0.417000       1.00800           0
     17836 TIP3     2218     TIP3     OH2      OT      -0.834000       15.9994           0
     17837 TIP3     2218     TIP3     H1       HT       0.417000       1.00800           0
     17838 TIP3     2218     TIP3     H2       HT       0.417000       1.00800           0
     17839 TIP3     2219     TIP3     OH2      OT      -0.834000       15.9994           0
     17840 TIP3     2219     TIP3     H1       HT       0.417000       1.00800           0
     17841 TIP3     2219     TIP3     H2       HT       0.417000       1.00800           0
     17842 TIP3     2220     TIP3     OH2      OT      -0.834000       15.9994           0
     17843 TIP3     2220     TIP3     H1       HT       0.417000       1.00800           0
     17844 TIP3     2220     TIP3     H2       HT       0.417000       1.00800           0
     17845 TIP3     2221     TIP3     OH2      OT      -0.834000       15.9994           0
     17846 TIP3     2221     TIP3     H1       HT       0.417000       1.00800           0
     17847 TIP3     2221     TIP3     H2       HT       0.417000       1.00800           0
     17848 TIP3     2222     TIP3     OH2      OT      -0.834000       15.9994           0
     17849 TIP3     2222     TIP3     H1       HT       0.417000       1.00800           0
     17850 TIP3     2222     TIP3     H2       HT       0.417000       1.00800           0
     17851 TIP3     2223     TIP3     OH2      OT      -0.834000       15.9994           0
     17852 TIP3     2223     TIP3     H1       HT       0.417000       1.00800           0
     17853 TIP3     2223     TIP3     H2       HT       0.417000       1.00800           0
     17854 TIP3     2224     TIP3     OH2      OT      -0.834000       15.9994           0
     17855 TIP3     2224     TIP3     H1       HT       0.417000       1.00800           0
     17856 TIP3     2224     TIP3     H2       HT       0.417000       1.00800           0
     17857 TIP3     2225     TIP3     OH2      OT      -0.834000       15.9994           0
     17858 TIP3     2225     TIP3     H1       HT       0.417000       1.00800           0
     17859 TIP3     2225     TIP3     H2       HT       0.417000       1.00800           0
     17860 TIP3     2226     TIP3     OH2      OT      -0.834000       15.9994           0
     17861 TIP3     2226     TIP3     H1       HT       0.417000       1.00800           0
     17862 TIP3     2226     TIP3     H2       HT       0.417000       1.00800           0
     17863 TIP3     2227     TIP3     OH2      OT      -0.834000       15.9994           0
     17864 TIP3     2227     TIP3     H1       HT       0.417000       1.00800           0
     17865 TIP3     2227     TIP3     H2       HT       0.417000       1.00800           0
     17866 TIP3     2228     TIP3     OH2      OT      -0.834000       15.9994           0
     17867 TIP3     2228     TIP3     H1       HT       0.417000       1.00800           0
     17868 TIP3     2228     TIP3     H2       HT       0.417000       1.00800           0
     17869 TIP3     2229     TIP3     OH2      OT      -0.834000       15.9994           0
     17870 TIP3     2229     TIP3     H1       HT       0.417000       1.00800           0
     17871 TIP3     2229     TIP3     H2       HT       0.417000       1.00800           0
     17872 TIP3     2230     TIP3     OH2      OT      -0.834000       15.9994           0
     17873 TIP3     2230     TIP3     H1       HT       0.417000       1.00800           0
     17874 TIP3     2230     TIP3     H2       HT       0.417000       1.00800           0
     17875 TIP3     2231     TIP3     OH2      OT      -0.834000       15.9994           0
     17876 TIP3     2231     TIP3     H1       HT       0.417000       1.00800           0
     17877 TIP3     2231     TIP3     H2       HT       0.417000       1.00800           0
     17878 TIP3     2232     TIP3     OH2      OT      -0.834000       15.9994           0
     17879 TIP3     2232     TIP3     H1       HT       0.417000       1.00800           0
     17880 TIP3     2232     TIP3     H2       HT       0.417000       1.00800           0
     17881 TIP3     2233     TIP3     OH2      OT      -0.834000       15.9994           0
     17882 TIP3     2233     TIP3     H1       HT       0.417000       1.00800           0
     17883 TIP3     2233     TIP3     H2       HT       0.417000       1.00800           0
     17884 TIP3     2234     TIP3     OH2      OT      -0.834000       15.9994           0
     17885 TIP3     2234     TIP3     H1       HT       0.417000       1.00800           0
     17886 TIP3     2234     TIP3     H2       HT       0.417000       1.00800           0
     17887 TIP3     2235     TIP3     OH2      OT      -0.834000       15.9994           0
     17888 TIP3     2235     TIP3     H1       HT       0.417000       1.00800           0
     17889 TIP3     2235     TIP3     H2       HT       0.417000       1.00800           0
     17890 TIP3     2236     TIP3     OH2      OT      -0.834000       15.9994           0
     17891 TIP3     2236     TIP3     H1       HT       0.417000       1.00800           0
     17892 TIP3     2236     TIP3     H2       HT       0.417000       1.00800           0
     17893 TIP3     2237     TIP3     OH2      OT      -0.834000       15.9994           0
     17894 TIP3     2237     TIP3     H1       HT       0.417000       1.00800           0
     17895 TIP3     2237     TIP3     H2       HT       0.417000       1.00800           0
     17896 TIP3     2238     TIP3     OH2      OT      -0.834000       15.9994           0
     17897 TIP3     2238     TIP3     H1       HT       0.417000       1.00800           0
     17898 TIP3     2238     TIP3     H2       HT       0.417000       1.00800           0
     17899 TIP3     2239     TIP3     OH2      OT      -0.834000       15.9994           0
     17900 TIP3     2239     TIP3     H1       HT       0.417000       1.00800           0
     17901 TIP3     2239     TIP3     H2       HT       0.417000       1.00800           0
     17902 TIP3     2240     TIP3     OH2      OT      -0.834000       15.9994           0
     17903 TIP3     2240     TIP3     H1       HT       0.417000       1.00800           0
     17904 TIP3     2240     TIP3     H2       HT       0.417000       1.00800           0
     17905 TIP3     2241     TIP3     OH2      OT      -0.834000       15.9994           0
     17906 TIP3     2241     TIP3     H1       HT       0.417000       1.00800           0
     17907 TIP3     2241     TIP3     H2       HT       0.417000       1.00800           0
     17908 TIP3     2242     TIP3     OH2      OT      -0.834000       15.9994           0
     17909 TIP3     2242     TIP3     H1       HT       0.417000       1.00800           0
     17910 TIP3     2242     TIP3     H2       HT       0.417000       1.00800           0
     17911 TIP3     2243     TIP3     OH2      OT      -0.834000       15.9994           0
     17912 TIP3     2243     TIP3     H1       HT       0.417000       1.00800           0
     17913 TIP3     2243     TIP3     H2       HT       0.417000       1.00800           0
     17914 TIP3     2244     TIP3     OH2      OT      -0.834000       15.9994           0
     17915 TIP3     2244     TIP3     H1       HT       0.417000       1.00800           0
     17916 TIP3     2244     TIP3     H2       HT       0.417000       1.00800           0
     17917 TIP3     2245     TIP3     OH2      OT      -0.834000       15.9994           0
     17918 TIP3     2245     TIP3     H1       HT       0.417000       1.00800           0
     17919 TIP3     2245     TIP3     H2       HT       0.417000       1.00800           0
     17920 TIP3     2246     TIP3     OH2      OT      -0.834000       15.9994           0
     17921 TIP3     2246     TIP3     H1       HT       0.417000       1.00800           0
     17922 TIP3     2246     TIP3     H2       HT       0.417000       1.00800           0
     17923 TIP3     2247     TIP3     OH2      OT      -0.834000       15.9994           0
     17924 TIP3     2247     TIP3     H1       HT       0.417000       1.00800           0
     17925 TIP3     2247     TIP3     H2       HT       0.417000       1.00800           0
     17926 TIP3     2248     TIP3     OH2      OT      -0.834000       15.9994           0
     17927 TIP3     2248     TIP3     H1       HT       0.417000       1.00800           0
     17928 TIP3     2248     TIP3     H2       HT       0.417000       1.00800           0
     17929 TIP3     2249     TIP3     OH2      OT      -0.834000       15.9994           0
     17930 TIP3     2249     TIP3     H1       HT       0.417000       1.00800           0
     17931 TIP3     2249     TIP3     H2       HT       0.417000       1.00800           0
     17932 TIP3     2250     TIP3     OH2      OT      -0.834000       15.9994           0
     17933 TIP3     2250     TIP3     H1       HT       0.417000       1.00800           0
     17934 TIP3     2250     TIP3     H2       HT       0.417000       1.00800           0
     17935 TIP3     2251     TIP3     OH2      OT      -0.834000       15.9994           0
     17936 TIP3     2251     TIP3     H1       HT       0.417000       1.00800           0
     17937 TIP3     2251     TIP3     H2       HT       0.417000       1.00800           0
     17938 TIP3     2252     TIP3     OH2      OT      -0.834000       15.9994           0
     17939 TIP3     2252     TIP3     H1       HT       0.417000       1.00800           0
     17940 TIP3     2252     TIP3     H2       HT       0.417000       1.00800           0
     17941 TIP3     2253     TIP3     OH2      OT      -0.834000       15.9994           0
     17942 TIP3     2253     TIP3     H1       HT       0.417000       1.00800           0
     17943 TIP3     2253     TIP3     H2       HT       0.417000       1.00800           0
     17944 TIP3     2254     TIP3     OH2      OT      -0.834000       15.9994           0
     17945 TIP3     2254     TIP3     H1       HT       0.417000       1.00800           0
     17946 TIP3     2254     TIP3     H2       HT       0.417000       1.00800           0
     17947 TIP3     2255     TIP3     OH2      OT      -0.834000       15.9994           0
     17948 TIP3     2255     TIP3     H1       HT       0.417000       1.00800           0
     17949 TIP3     2255     TIP3     H2       HT       0.417000       1.00800           0
     17950 TIP3     2256     TIP3     OH2      OT      -0.834000       15.9994           0
     17951 TIP3     2256     TIP3     H1       HT       0.417000       1.00800           0
     17952 TIP3     2256     TIP3     H2       HT       0.417000       1.00800           0
     17953 TIP3     2257     TIP3     OH2      OT      -0.834000       15.9994           0
     17954 TIP3     2257     TIP3     H1       HT       0.417000       1.00800           0
     17955 TIP3     2257     TIP3     H2       HT       0.417000       1.00800           0
     17956 TIP3     2258     TIP3     OH2      OT      -0.834000       15.9994           0
     17957 TIP3     2258     TIP3     H1       HT       0.417000       1.00800           0
     17958 TIP3     2258     TIP3     H2       HT       0.417000       1.00800           0
     17959 TIP3     2259     TIP3     OH2      OT      -0.834000       15.9994           0
     17960 TIP3     2259     TIP3     H1       HT       0.417000       1.00800           0
     17961 TIP3     2259     TIP3     H2       HT       0.417000       1.00800           0
     17962 TIP3     2260     TIP3     OH2      OT      -0.834000       15.9994           0
     17963 TIP3     2260     TIP3     H1       HT       0.417000       1.00800           0
     17964 TIP3     2260     TIP3     H2       HT       0.417000       1.00800           0
     17965 TIP3     2261     TIP3     OH2      OT      -0.834000       15.9994           0
     17966 TIP3     2261     TIP3     H1       HT       0.417000       1.00800           0
     17967 TIP3     2261     TIP3     H2       HT       0.417000       1.00800           0
     17968 TIP3     2262     TIP3     OH2      OT      -0.834000       15.9994           0
     17969 TIP3     2262     TIP3     H1       HT       0.417000       1.00800           0
     17970 TIP3     2262     TIP3     H2       HT       0.417000       1.00800           0
     17971 TIP3     2263     TIP3     OH2      OT      -0.834000       15.9994           0
     17972 TIP3     2263     TIP3     H1       HT       0.417000       1.00800           0
     17973 TIP3     2263     TIP3     H2       HT       0.417000       1.00800           0
     17974 TIP3     2264     TIP3     OH2      OT      -0.834000       15.9994           0
     17975 TIP3     2264     TIP3     H1       HT       0.417000       1.00800           0
     17976 TIP3     2264     TIP3     H2       HT       0.417000       1.00800           0
     17977 TIP3     2265     TIP3     OH2      OT      -0.834000       15.9994           0
     17978 TIP3     2265     TIP3     H1       HT       0.417000       1.00800           0
     17979 TIP3     2265     TIP3     H2       HT       0.417000       1.00800           0
     17980 TIP3     2266     TIP3     OH2      OT      -0.834000       15.9994           0
     17981 TIP3     2266     TIP3     H1       HT       0.417000       1.00800           0
     17982 TIP3     2266     TIP3     H2       HT       0.417000       1.00800           0
     17983 TIP3     2267     TIP3     OH2      OT      -0.834000       15.9994           0
     17984 TIP3     2267     TIP3     H1       HT       0.417000       1.00800           0
     17985 TIP3     2267     TIP3     H2       HT       0.417000       1.00800           0
     17986 TIP3     2268     TIP3     OH2      OT      -0.834000       15.9994           0
     17987 TIP3     2268     TIP3     H1       HT       0.417000       1.00800           0
     17988 TIP3     2268     TIP3     H2       HT       0.417000       1.00800           0
     17989 TIP3     2269     TIP3     OH2      OT      -0.834000       15.9994           0
     17990 TIP3     2269     TIP3     H1       HT       0.417000       1.00800           0
     17991 TIP3     2269     TIP3     H2       HT       0.417000       1.00800           0
     17992 TIP3     2270     TIP3     OH2      OT      -0.834000       15.9994           0
     17993 TIP3     2270     TIP3     H1       HT       0.417000       1.00800           0
     17994 TIP3     2270     TIP3     H2       HT       0.417000       1.00800           0
     17995 TIP3     2271     TIP3     OH2      OT      -0.834000       15.9994           0
     17996 TIP3     2271     TIP3     H1       HT       0.417000       1.00800           0
     17997 TIP3     2271     TIP3     H2       HT       0.417000       1.00800           0
     17998 TIP3     2272     TIP3     OH2      OT      -0.834000       15.9994           0
     17999 TIP3     2272     TIP3     H1       HT       0.417000       1.00800           0
     18000 TIP3     2272     TIP3     H2       HT       0.417000       1.00800           0
     18001 TIP3     2273     TIP3     OH2      OT      -0.834000       15.9994           0
     18002 TIP3     2273     TIP3     H1       HT       0.417000       1.00800           0
     18003 TIP3     2273     TIP3     H2       HT       0.417000       1.00800           0
     18004 TIP3     2274     TIP3     OH2      OT      -0.834000       15.9994           0
     18005 TIP3     2274     TIP3     H1       HT       0.417000       1.00800           0
     18006 TIP3     2274     TIP3     H2       HT       0.417000       1.00800           0
     18007 TIP3     2275     TIP3     OH2      OT      -0.834000       15.9994           0
     18008 TIP3     2275     TIP3     H1       HT       0.417000       1.00800           0
     18009 TIP3     2275     TIP3     H2       HT       0.417000       1.00800           0
     18010 TIP3     2276     TIP3     OH2      OT      -0.834000       15.9994           0
     18011 TIP3     2276     TIP3     H1       HT       0.417000       1.00800           0
     18012 TIP3     2276     TIP3     H2       HT       0.417000       1.00800           0
     18013 TIP3     2277     TIP3     OH2      OT      -0.834000       15.9994           0
     18014 TIP3     2277     TIP3     H1       HT       0.417000       1.00800           0
     18015 TIP3     2277     TIP3     H2       HT       0.417000       1.00800           0
     18016 TIP3     2278     TIP3     OH2      OT      -0.834000       15.9994           0
     18017 TIP3     2278     TIP3     H1       HT       0.417000       1.00800           0
     18018 TIP3     2278     TIP3     H2       HT       0.417000       1.00800           0
     18019 TIP3     2279     TIP3     OH2      OT      -0.834000       15.9994           0
     18020 TIP3     2279     TIP3     H1       HT       0.417000       1.00800           0
     18021 TIP3     2279     TIP3     H2       HT       0.417000       1.00800           0
     18022 TIP3     2280     TIP3     OH2      OT      -0.834000       15.9994           0
     18023 TIP3     2280     TIP3     H1       HT       0.417000       1.00800           0
     18024 TIP3     2280     TIP3     H2       HT       0.417000       1.00800           0
     18025 TIP3     2281     TIP3     OH2      OT      -0.834000       15.9994           0
     18026 TIP3     2281     TIP3     H1       HT       0.417000       1.00800           0
     18027 TIP3     2281     TIP3     H2       HT       0.417000       1.00800           0
     18028 TIP3     2282     TIP3     OH2      OT      -0.834000       15.9994           0
     18029 TIP3     2282     TIP3     H1       HT       0.417000       1.00800           0
     18030 TIP3     2282     TIP3     H2       HT       0.417000       1.00800           0
     18031 TIP3     2283     TIP3     OH2      OT      -0.834000       15.9994           0
     18032 TIP3     2283     TIP3     H1       HT       0.417000       1.00800           0
     18033 TIP3     2283     TIP3     H2       HT       0.417000       1.00800           0
     18034 TIP3     2284     TIP3     OH2      OT      -0.834000       15.9994           0
     18035 TIP3     2284     TIP3     H1       HT       0.417000       1.00800           0
     18036 TIP3     2284     TIP3     H2       HT       0.417000       1.00800           0
     18037 TIP3     2285     TIP3     OH2      OT      -0.834000       15.9994           0
     18038 TIP3     2285     TIP3     H1       HT       0.417000       1.00800           0
     18039 TIP3     2285     TIP3     H2       HT       0.417000       1.00800           0
     18040 TIP3     2286     TIP3     OH2      OT      -0.834000       15.9994           0
     18041 TIP3     2286     TIP3     H1       HT       0.417000       1.00800           0
     18042 TIP3     2286     TIP3     H2       HT       0.417000       1.00800           0
     18043 TIP3     2287     TIP3     OH2      OT      -0.834000       15.9994           0
     18044 TIP3     2287     TIP3     H1       HT       0.417000       1.00800           0
     18045 TIP3     2287     TIP3     H2       HT       0.417000       1.00800           0
     18046 TIP3     2288     TIP3     OH2      OT      -0.834000       15.9994           0
     18047 TIP3     2288     TIP3     H1       HT       0.417000       1.00800           0
     18048 TIP3     2288     TIP3     H2       HT       0.417000       1.00800           0
     18049 TIP3     2289     TIP3     OH2      OT      -0.834000       15.9994           0
     18050 TIP3     2289     TIP3     H1       HT       0.417000       1.00800           0
     18051 TIP3     2289     TIP3     H2       HT       0.417000       1.00800           0
     18052 TIP3     2290     TIP3     OH2      OT      -0.834000       15.9994           0
     18053 TIP3     2290     TIP3     H1       HT       0.417000       1.00800           0
     18054 TIP3     2290     TIP3     H2       HT       0.417000       1.00800           0
     18055 TIP3     2291     TIP3     OH2      OT      -0.834000       15.9994           0
     18056 TIP3     2291     TIP3     H1       HT       0.417000       1.00800           0
     18057 TIP3     2291     TIP3     H2       HT       0.417000       1.00800           0
     18058 TIP3     2292     TIP3     OH2      OT      -0.834000       15.9994           0
     18059 TIP3     2292     TIP3     H1       HT       0.417000       1.00800           0
     18060 TIP3     2292     TIP3     H2       HT       0.417000       1.00800           0
     18061 TIP3     2293     TIP3     OH2      OT      -0.834000       15.9994           0
     18062 TIP3     2293     TIP3     H1       HT       0.417000       1.00800           0
     18063 TIP3     2293     TIP3     H2       HT       0.417000       1.00800           0
     18064 TIP3     2294     TIP3     OH2      OT      -0.834000       15.9994           0
     18065 TIP3     2294     TIP3     H1       HT       0.417000       1.00800           0
     18066 TIP3     2294     TIP3     H2       HT       0.417000       1.00800           0
     18067 TIP3     2295     TIP3     OH2      OT      -0.834000       15.9994           0
     18068 TIP3     2295     TIP3     H1       HT       0.417000       1.00800           0
     18069 TIP3     2295     TIP3     H2       HT       0.417000       1.00800           0
     18070 TIP3     2296     TIP3     OH2      OT      -0.834000       15.9994           0
     18071 TIP3     2296     TIP3     H1       HT       0.417000       1.00800           0
     18072 TIP3     2296     TIP3     H2       HT       0.417000       1.00800           0
     18073 TIP3     2297     TIP3     OH2      OT      -0.834000       15.9994           0
     18074 TIP3     2297     TIP3     H1       HT       0.417000       1.00800           0
     18075 TIP3     2297     TIP3     H2       HT       0.417000       1.00800           0
     18076 TIP3     2298     TIP3     OH2      OT      -0.834000       15.9994           0
     18077 TIP3     2298     TIP3     H1       HT       0.417000       1.00800           0
     18078 TIP3     2298     TIP3     H2       HT       0.417000       1.00800           0
     18079 TIP3     2299     TIP3     OH2      OT      -0.834000       15.9994           0
     18080 TIP3     2299     TIP3     H1       HT       0.417000       1.00800           0
     18081 TIP3     2299     TIP3     H2       HT       0.417000       1.00800           0
     18082 TIP3     2300     TIP3     OH2      OT      -0.834000       15.9994           0
     18083 TIP3     2300     TIP3     H1       HT       0.417000       1.00800           0
     18084 TIP3     2300     TIP3     H2       HT       0.417000       1.00800           0
     18085 TIP3     2301     TIP3     OH2      OT      -0.834000       15.9994           0
     18086 TIP3     2301     TIP3     H1       HT       0.417000       1.00800           0
     18087 TIP3     2301     TIP3     H2       HT       0.417000       1.00800           0
     18088 TIP3     2302     TIP3     OH2      OT      -0.834000       15.9994           0
     18089 TIP3     2302     TIP3     H1       HT       0.417000       1.00800           0
     18090 TIP3     2302     TIP3     H2       HT       0.417000       1.00800           0
     18091 TIP3     2303     TIP3     OH2      OT      -0.834000       15.9994           0
     18092 TIP3     2303     TIP3     H1       HT       0.417000       1.00800           0
     18093 TIP3     2303     TIP3     H2       HT       0.417000       1.00800           0
     18094 TIP3     2304     TIP3     OH2      OT      -0.834000       15.9994           0
     18095 TIP3     2304     TIP3     H1       HT       0.417000       1.00800           0
     18096 TIP3     2304     TIP3     H2       HT       0.417000       1.00800           0
     18097 TIP3     2305     TIP3     OH2      OT      -0.834000       15.9994           0
     18098 TIP3     2305     TIP3     H1       HT       0.417000       1.00800           0
     18099 TIP3     2305     TIP3     H2       HT       0.417000       1.00800           0
     18100 TIP3     2306     TIP3     OH2      OT      -0.834000       15.9994           0
     18101 TIP3     2306     TIP3     H1       HT       0.417000       1.00800           0
     18102 TIP3     2306     TIP3     H2       HT       0.417000       1.00800           0
     18103 TIP3     2307     TIP3     OH2      OT      -0.834000       15.9994           0
     18104 TIP3     2307     TIP3     H1       HT       0.417000       1.00800           0
     18105 TIP3     2307     TIP3     H2       HT       0.417000       1.00800           0
     18106 TIP3     2308     TIP3     OH2      OT      -0.834000       15.9994           0
     18107 TIP3     2308     TIP3     H1       HT       0.417000       1.00800           0
     18108 TIP3     2308     TIP3     H2       HT       0.417000       1.00800           0
     18109 TIP3     2309     TIP3     OH2      OT      -0.834000       15.9994           0
     18110 TIP3     2309     TIP3     H1       HT       0.417000       1.00800           0
     18111 TIP3     2309     TIP3     H2       HT       0.417000       1.00800           0
     18112 TIP3     2310     TIP3     OH2      OT      -0.834000       15.9994           0
     18113 TIP3     2310     TIP3     H1       HT       0.417000       1.00800           0
     18114 TIP3     2310     TIP3     H2       HT       0.417000       1.00800           0
     18115 TIP3     2311     TIP3     OH2      OT      -0.834000       15.9994           0
     18116 TIP3     2311     TIP3     H1       HT       0.417000       1.00800           0
     18117 TIP3     2311     TIP3     H2       HT       0.417000       1.00800           0
     18118 TIP3     2312     TIP3     OH2      OT      -0.834000       15.9994           0
     18119 TIP3     2312     TIP3     H1       HT       0.417000       1.00800           0
     18120 TIP3     2312     TIP3     H2       HT       0.417000       1.00800           0
     18121 TIP3     2313     TIP3     OH2      OT      -0.834000       15.9994           0
     18122 TIP3     2313     TIP3     H1       HT       0.417000       1.00800           0
     18123 TIP3     2313     TIP3     H2       HT       0.417000       1.00800           0
     18124 TIP3     2314     TIP3     OH2      OT      -0.834000       15.9994           0
     18125 TIP3     2314     TIP3     H1       HT       0.417000       1.00800           0
     18126 TIP3     2314     TIP3     H2       HT       0.417000       1.00800           0
     18127 TIP3     2315     TIP3     OH2      OT      -0.834000       15.9994           0
     18128 TIP3     2315     TIP3     H1       HT       0.417000       1.00800           0
     18129 TIP3     2315     TIP3     H2       HT       0.417000       1.00800           0
     18130 TIP3     2316     TIP3     OH2      OT      -0.834000       15.9994           0
     18131 TIP3     2316     TIP3     H1       HT       0.417000       1.00800           0
     18132 TIP3     2316     TIP3     H2       HT       0.417000       1.00800           0
     18133 TIP3     2317     TIP3     OH2      OT      -0.834000       15.9994           0
     18134 TIP3     2317     TIP3     H1       HT       0.417000       1.00800           0
     18135 TIP3     2317     TIP3     H2       HT       0.417000       1.00800           0
     18136 TIP3     2318     TIP3     OH2      OT      -0.834000       15.9994           0
     18137 TIP3     2318     TIP3     H1       HT       0.417000       1.00800           0
     18138 TIP3     2318     TIP3     H2       HT       0.417000       1.00800           0
     18139 TIP3     2319     TIP3     OH2      OT      -0.834000       15.9994           0
     18140 TIP3     2319     TIP3     H1       HT       0.417000       1.00800           0
     18141 TIP3     2319     TIP3     H2       HT       0.417000       1.00800           0
     18142 TIP3     2320     TIP3     OH2      OT      -0.834000       15.9994           0
     18143 TIP3     2320     TIP3     H1       HT       0.417000       1.00800           0
     18144 TIP3     2320     TIP3     H2       HT       0.417000       1.00800           0
     18145 TIP3     2321     TIP3     OH2      OT      -0.834000       15.9994           0
     18146 TIP3     2321     TIP3     H1       HT       0.417000       1.00800           0
     18147 TIP3     2321     TIP3     H2       HT       0.417000       1.00800           0
     18148 TIP3     2322     TIP3     OH2      OT      -0.834000       15.9994           0
     18149 TIP3     2322     TIP3     H1       HT       0.417000       1.00800           0
     18150 TIP3     2322     TIP3     H2       HT       0.417000       1.00800           0
     18151 TIP3     2323     TIP3     OH2      OT      -0.834000       15.9994           0
     18152 TIP3     2323     TIP3     H1       HT       0.417000       1.00800           0
     18153 TIP3     2323     TIP3     H2       HT       0.417000       1.00800           0
     18154 TIP3     2324     TIP3     OH2      OT      -0.834000       15.9994           0
     18155 TIP3     2324     TIP3     H1       HT       0.417000       1.00800           0
     18156 TIP3     2324     TIP3     H2       HT       0.417000       1.00800           0
     18157 TIP3     2325     TIP3     OH2      OT      -0.834000       15.9994           0
     18158 TIP3     2325     TIP3     H1       HT       0.417000       1.00800           0
     18159 TIP3     2325     TIP3     H2       HT       0.417000       1.00800           0
     18160 TIP3     2326     TIP3     OH2      OT      -0.834000       15.9994           0
     18161 TIP3     2326     TIP3     H1       HT       0.417000       1.00800           0
     18162 TIP3     2326     TIP3     H2       HT       0.417000       1.00800           0
     18163 TIP3     2327     TIP3     OH2      OT      -0.834000       15.9994           0
     18164 TIP3     2327     TIP3     H1       HT       0.417000       1.00800           0
     18165 TIP3     2327     TIP3     H2       HT       0.417000       1.00800           0
     18166 TIP3     2328     TIP3     OH2      OT      -0.834000       15.9994           0
     18167 TIP3     2328     TIP3     H1       HT       0.417000       1.00800           0
     18168 TIP3     2328     TIP3     H2       HT       0.417000       1.00800           0
     18169 TIP3     2329     TIP3     OH2      OT      -0.834000       15.9994           0
     18170 TIP3     2329     TIP3     H1       HT       0.417000       1.00800           0
     18171 TIP3     2329     TIP3     H2       HT       0.417000       1.00800           0
     18172 TIP3     2330     TIP3     OH2      OT      -0.834000       15.9994           0
     18173 TIP3     2330     TIP3     H1       HT       0.417000       1.00800           0
     18174 TIP3     2330     TIP3     H2       HT       0.417000       1.00800           0
     18175 TIP3     2331     TIP3     OH2      OT      -0.834000       15.9994           0
     18176 TIP3     2331     TIP3     H1       HT       0.417000       1.00800           0
     18177 TIP3     2331     TIP3     H2       HT       0.417000       1.00800           0
     18178 TIP3     2332     TIP3     OH2      OT      -0.834000       15.9994           0
     18179 TIP3     2332     TIP3     H1       HT       0.417000       1.00800           0
     18180 TIP3     2332     TIP3     H2       HT       0.417000       1.00800           0
     18181 TIP3     2333     TIP3     OH2      OT      -0.834000       15.9994           0
     18182 TIP3     2333     TIP3     H1       HT       0.417000       1.00800           0
     18183 TIP3     2333     TIP3     H2       HT       0.417000       1.00800           0
     18184 TIP3     2334     TIP3     OH2      OT      -0.834000       15.9994           0
     18185 TIP3     2334     TIP3     H1       HT       0.417000       1.00800           0
     18186 TIP3     2334     TIP3     H2       HT       0.417000       1.00800           0
     18187 TIP3     2335     TIP3     OH2      OT      -0.834000       15.9994           0
     18188 TIP3     2335     TIP3     H1       HT       0.417000       1.00800           0
     18189 TIP3     2335     TIP3     H2       HT       0.417000       1.00800           0
     18190 TIP3     2336     TIP3     OH2      OT      -0.834000       15.9994           0
     18191 TIP3     2336     TIP3     H1       HT       0.417000       1.00800           0
     18192 TIP3     2336     TIP3     H2       HT       0.417000       1.00800           0
     18193 TIP3     2337     TIP3     OH2      OT      -0.834000       15.9994           0
     18194 TIP3     2337     TIP3     H1       HT       0.417000       1.00800           0
     18195 TIP3     2337     TIP3     H2       HT       0.417000       1.00800           0
     18196 TIP3     2338     TIP3     OH2      OT      -0.834000       15.9994           0
     18197 TIP3     2338     TIP3     H1       HT       0.417000       1.00800           0
     18198 TIP3     2338     TIP3     H2       HT       0.417000       1.00800           0
     18199 TIP3     2339     TIP3     OH2      OT      -0.834000       15.9994           0
     18200 TIP3     2339     TIP3     H1       HT       0.417000       1.00800           0
     18201 TIP3     2339     TIP3     H2       HT       0.417000       1.00800           0
     18202 TIP3     2340     TIP3     OH2      OT      -0.834000       15.9994           0
     18203 TIP3     2340     TIP3     H1       HT       0.417000       1.00800           0
     18204 TIP3     2340     TIP3     H2       HT       0.417000       1.00800           0
     18205 TIP3     2341     TIP3     OH2      OT      -0.834000       15.9994           0
     18206 TIP3     2341     TIP3     H1       HT       0.417000       1.00800           0
     18207 TIP3     2341     TIP3     H2       HT       0.417000       1.00800           0
     18208 TIP3     2342     TIP3     OH2      OT      -0.834000       15.9994           0
     18209 TIP3     2342     TIP3     H1       HT       0.417000       1.00800           0
     18210 TIP3     2342     TIP3     H2       HT       0.417000       1.00800           0
     18211 TIP3     2343     TIP3     OH2      OT      -0.834000       15.9994           0
     18212 TIP3     2343     TIP3     H1       HT       0.417000       1.00800           0
     18213 TIP3     2343     TIP3     H2       HT       0.417000       1.00800           0
     18214 TIP3     2344     TIP3     OH2      OT      -0.834000       15.9994           0
     18215 TIP3     2344     TIP3     H1       HT       0.417000       1.00800           0
     18216 TIP3     2344     TIP3     H2       HT       0.417000       1.00800           0
     18217 TIP3     2345     TIP3     OH2      OT      -0.834000       15.9994           0
     18218 TIP3     2345     TIP3     H1       HT       0.417000       1.00800           0
     18219 TIP3     2345     TIP3     H2       HT       0.417000       1.00800           0
     18220 TIP3     2346     TIP3     OH2      OT      -0.834000       15.9994           0
     18221 TIP3     2346     TIP3     H1       HT       0.417000       1.00800           0
     18222 TIP3     2346     TIP3     H2       HT       0.417000       1.00800           0
     18223 TIP3     2347     TIP3     OH2      OT      -0.834000       15.9994           0
     18224 TIP3     2347     TIP3     H1       HT       0.417000       1.00800           0
     18225 TIP3     2347     TIP3     H2       HT       0.417000       1.00800           0
     18226 TIP3     2348     TIP3     OH2      OT      -0.834000       15.9994           0
     18227 TIP3     2348     TIP3     H1       HT       0.417000       1.00800           0
     18228 TIP3     2348     TIP3     H2       HT       0.417000       1.00800           0
     18229 TIP3     2349     TIP3     OH2      OT      -0.834000       15.9994           0
     18230 TIP3     2349     TIP3     H1       HT       0.417000       1.00800           0
     18231 TIP3     2349     TIP3     H2       HT       0.417000       1.00800           0
     18232 TIP3     2350     TIP3     OH2      OT      -0.834000       15.9994           0
     18233 TIP3     2350     TIP3     H1       HT       0.417000       1.00800           0
     18234 TIP3     2350     TIP3     H2       HT       0.417000       1.00800           0
     18235 TIP3     2351     TIP3     OH2      OT      -0.834000       15.9994           0
     18236 TIP3     2351     TIP3     H1       HT       0.417000       1.00800           0
     18237 TIP3     2351     TIP3     H2       HT       0.417000       1.00800           0
     18238 TIP3     2352     TIP3     OH2      OT      -0.834000       15.9994           0
     18239 TIP3     2352     TIP3     H1       HT       0.417000       1.00800           0
     18240 TIP3     2352     TIP3     H2       HT       0.417000       1.00800           0
     18241 TIP3     2353     TIP3     OH2      OT      -0.834000       15.9994           0
     18242 TIP3     2353     TIP3     H1       HT       0.417000       1.00800           0
     18243 TIP3     2353     TIP3     H2       HT       0.417000       1.00800           0
     18244 TIP3     2354     TIP3     OH2      OT      -0.834000       15.9994           0
     18245 TIP3     2354     TIP3     H1       HT       0.417000       1.00800           0
     18246 TIP3     2354     TIP3     H2       HT       0.417000       1.00800           0
     18247 TIP3     2355     TIP3     OH2      OT      -0.834000       15.9994           0
     18248 TIP3     2355     TIP3     H1       HT       0.417000       1.00800           0
     18249 TIP3     2355     TIP3     H2       HT       0.417000       1.00800           0
     18250 TIP3     2356     TIP3     OH2      OT      -0.834000       15.9994           0
     18251 TIP3     2356     TIP3     H1       HT       0.417000       1.00800           0
     18252 TIP3     2356     TIP3     H2       HT       0.417000       1.00800           0
     18253 TIP3     2357     TIP3     OH2      OT      -0.834000       15.9994           0
     18254 TIP3     2357     TIP3     H1       HT       0.417000       1.00800           0
     18255 TIP3     2357     TIP3     H2       HT       0.417000       1.00800           0
     18256 TIP3     2358     TIP3     OH2      OT      -0.834000       15.9994           0
     18257 TIP3     2358     TIP3     H1       HT       0.417000       1.00800           0
     18258 TIP3     2358     TIP3     H2       HT       0.417000       1.00800           0
     18259 TIP3     2359     TIP3     OH2      OT      -0.834000       15.9994           0
     18260 TIP3     2359     TIP3     H1       HT       0.417000       1.00800           0
     18261 TIP3     2359     TIP3     H2       HT       0.417000       1.00800           0
     18262 TIP3     2360     TIP3     OH2      OT      -0.834000       15.9994           0
     18263 TIP3     2360     TIP3     H1       HT       0.417000       1.00800           0
     18264 TIP3     2360     TIP3     H2       HT       0.417000       1.00800           0
     18265 TIP3     2361     TIP3     OH2      OT      -0.834000       15.9994           0
     18266 TIP3     2361     TIP3     H1       HT       0.417000       1.00800           0
     18267 TIP3     2361     TIP3     H2       HT       0.417000       1.00800           0
     18268 TIP3     2362     TIP3     OH2      OT      -0.834000       15.9994           0
     18269 TIP3     2362     TIP3     H1       HT       0.417000       1.00800           0
     18270 TIP3     2362     TIP3     H2       HT       0.417000       1.00800           0
     18271 TIP3     2363     TIP3     OH2      OT      -0.834000       15.9994           0
     18272 TIP3     2363     TIP3     H1       HT       0.417000       1.00800           0
     18273 TIP3     2363     TIP3     H2       HT       0.417000       1.00800           0
     18274 TIP3     2364     TIP3     OH2      OT      -0.834000       15.9994           0
     18275 TIP3     2364     TIP3     H1       HT       0.417000       1.00800           0
     18276 TIP3     2364     TIP3     H2       HT       0.417000       1.00800           0
     18277 TIP3     2365     TIP3     OH2      OT      -0.834000       15.9994           0
     18278 TIP3     2365     TIP3     H1       HT       0.417000       1.00800           0
     18279 TIP3     2365     TIP3     H2       HT       0.417000       1.00800           0
     18280 TIP3     2366     TIP3     OH2      OT      -0.834000       15.9994           0
     18281 TIP3     2366     TIP3     H1       HT       0.417000       1.00800           0
     18282 TIP3     2366     TIP3     H2       HT       0.417000       1.00800           0
     18283 TIP3     2367     TIP3     OH2      OT      -0.834000       15.9994           0
     18284 TIP3     2367     TIP3     H1       HT       0.417000       1.00800           0
     18285 TIP3     2367     TIP3     H2       HT       0.417000       1.00800           0
     18286 TIP3     2368     TIP3     OH2      OT      -0.834000       15.9994           0
     18287 TIP3     2368     TIP3     H1       HT       0.417000       1.00800           0
     18288 TIP3     2368     TIP3     H2       HT       0.417000       1.00800           0
     18289 TIP3     2369     TIP3     OH2      OT      -0.834000       15.9994           0
     18290 TIP3     2369     TIP3     H1       HT       0.417000       1.00800           0
     18291 TIP3     2369     TIP3     H2       HT       0.417000       1.00800           0
     18292 TIP3     2370     TIP3     OH2      OT      -0.834000       15.9994           0
     18293 TIP3     2370     TIP3     H1       HT       0.417000       1.00800           0
     18294 TIP3     2370     TIP3     H2       HT       0.417000       1.00800           0
     18295 TIP3     2371     TIP3     OH2      OT      -0.834000       15.9994           0
     18296 TIP3     2371     TIP3     H1       HT       0.417000       1.00800           0
     18297 TIP3     2371     TIP3     H2       HT       0.417000       1.00800           0
     18298 TIP3     2372     TIP3     OH2      OT      -0.834000       15.9994           0
     18299 TIP3     2372     TIP3     H1       HT       0.417000       1.00800           0
     18300 TIP3     2372     TIP3     H2       HT       0.417000       1.00800           0
     18301 TIP3     2373     TIP3     OH2      OT      -0.834000       15.9994           0
     18302 TIP3     2373     TIP3     H1       HT       0.417000       1.00800           0
     18303 TIP3     2373     TIP3     H2       HT       0.417000       1.00800           0
     18304 TIP3     2374     TIP3     OH2      OT      -0.834000       15.9994           0
     18305 TIP3     2374     TIP3     H1       HT       0.417000       1.00800           0
     18306 TIP3     2374     TIP3     H2       HT       0.417000       1.00800           0
     18307 TIP3     2375     TIP3     OH2      OT      -0.834000       15.9994           0
     18308 TIP3     2375     TIP3     H1       HT       0.417000       1.00800           0
     18309 TIP3     2375     TIP3     H2       HT       0.417000       1.00800           0
     18310 TIP3     2376     TIP3     OH2      OT      -0.834000       15.9994           0
     18311 TIP3     2376     TIP3     H1       HT       0.417000       1.00800           0
     18312 TIP3     2376     TIP3     H2       HT       0.417000       1.00800           0
     18313 TIP3     2377     TIP3     OH2      OT      -0.834000       15.9994           0
     18314 TIP3     2377     TIP3     H1       HT       0.417000       1.00800           0
     18315 TIP3     2377     TIP3     H2       HT       0.417000       1.00800           0
     18316 TIP3     2378     TIP3     OH2      OT      -0.834000       15.9994           0
     18317 TIP3     2378     TIP3     H1       HT       0.417000       1.00800           0
     18318 TIP3     2378     TIP3     H2       HT       0.417000       1.00800           0
     18319 TIP3     2379     TIP3     OH2      OT      -0.834000       15.9994           0
     18320 TIP3     2379     TIP3     H1       HT       0.417000       1.00800           0
     18321 TIP3     2379     TIP3     H2       HT       0.417000       1.00800           0
     18322 TIP3     2380     TIP3     OH2      OT      -0.834000       15.9994           0
     18323 TIP3     2380     TIP3     H1       HT       0.417000       1.00800           0
     18324 TIP3     2380     TIP3     H2       HT       0.417000       1.00800           0
     18325 TIP3     2381     TIP3     OH2      OT      -0.834000       15.9994           0
     18326 TIP3     2381     TIP3     H1       HT       0.417000       1.00800           0
     18327 TIP3     2381     TIP3     H2       HT       0.417000       1.00800           0
     18328 TIP3     2382     TIP3     OH2      OT      -0.834000       15.9994           0
     18329 TIP3     2382     TIP3     H1       HT       0.417000       1.00800           0
     18330 TIP3     2382     TIP3     H2       HT       0.417000       1.00800           0
     18331 TIP3     2383     TIP3     OH2      OT      -0.834000       15.9994           0
     18332 TIP3     2383     TIP3     H1       HT       0.417000       1.00800           0
     18333 TIP3     2383     TIP3     H2       HT       0.417000       1.00800           0
     18334 TIP3     2384     TIP3     OH2      OT      -0.834000       15.9994           0
     18335 TIP3     2384     TIP3     H1       HT       0.417000       1.00800           0
     18336 TIP3     2384     TIP3     H2       HT       0.417000       1.00800           0
     18337 TIP3     2385     TIP3     OH2      OT      -0.834000       15.9994           0
     18338 TIP3     2385     TIP3     H1       HT       0.417000       1.00800           0
     18339 TIP3     2385     TIP3     H2       HT       0.417000       1.00800           0
     18340 TIP3     2386     TIP3     OH2      OT      -0.834000       15.9994           0
     18341 TIP3     2386     TIP3     H1       HT       0.417000       1.00800           0
     18342 TIP3     2386     TIP3     H2       HT       0.417000       1.00800           0
     18343 TIP3     2387     TIP3     OH2      OT      -0.834000       15.9994           0
     18344 TIP3     2387     TIP3     H1       HT       0.417000       1.00800           0
     18345 TIP3     2387     TIP3     H2       HT       0.417000       1.00800           0
     18346 TIP3     2388     TIP3     OH2      OT      -0.834000       15.9994           0
     18347 TIP3     2388     TIP3     H1       HT       0.417000       1.00800           0
     18348 TIP3     2388     TIP3     H2       HT       0.417000       1.00800           0
     18349 TIP3     2389     TIP3     OH2      OT      -0.834000       15.9994           0
     18350 TIP3     2389     TIP3     H1       HT       0.417000       1.00800           0
     18351 TIP3     2389     TIP3     H2       HT       0.417000       1.00800           0
     18352 TIP3     2390     TIP3     OH2      OT      -0.834000       15.9994           0
     18353 TIP3     2390     TIP3     H1       HT       0.417000       1.00800           0
     18354 TIP3     2390     TIP3     H2       HT       0.417000       1.00800           0
     18355 TIP3     2391     TIP3     OH2      OT      -0.834000       15.9994           0
     18356 TIP3     2391     TIP3     H1       HT       0.417000       1.00800           0
     18357 TIP3     2391     TIP3     H2       HT       0.417000       1.00800           0
     18358 TIP3     2392     TIP3     OH2      OT      -0.834000       15.9994           0
     18359 TIP3     2392     TIP3     H1       HT       0.417000       1.00800           0
     18360 TIP3     2392     TIP3     H2       HT       0.417000       1.00800           0
     18361 TIP3     2393     TIP3     OH2      OT      -0.834000       15.9994           0
     18362 TIP3     2393     TIP3     H1       HT       0.417000       1.00800           0
     18363 TIP3     2393     TIP3     H2       HT       0.417000       1.00800           0
     18364 TIP3     2394     TIP3     OH2      OT      -0.834000       15.9994           0
     18365 TIP3     2394     TIP3     H1       HT       0.417000       1.00800           0
     18366 TIP3     2394     TIP3     H2       HT       0.417000       1.00800           0
     18367 TIP3     2395     TIP3     OH2      OT      -0.834000       15.9994           0
     18368 TIP3     2395     TIP3     H1       HT       0.417000       1.00800           0
     18369 TIP3     2395     TIP3     H2       HT       0.417000       1.00800           0
     18370 TIP3     2396     TIP3     OH2      OT      -0.834000       15.9994           0
     18371 TIP3     2396     TIP3     H1       HT       0.417000       1.00800           0
     18372 TIP3     2396     TIP3     H2       HT       0.417000       1.00800           0
     18373 TIP3     2397     TIP3     OH2      OT      -0.834000       15.9994           0
     18374 TIP3     2397     TIP3     H1       HT       0.417000       1.00800           0
     18375 TIP3     2397     TIP3     H2       HT       0.417000       1.00800           0
     18376 TIP3     2398     TIP3     OH2      OT      -0.834000       15.9994           0
     18377 TIP3     2398     TIP3     H1       HT       0.417000       1.00800           0
     18378 TIP3     2398     TIP3     H2       HT       0.417000       1.00800           0
     18379 TIP3     2399     TIP3     OH2      OT      -0.834000       15.9994           0
     18380 TIP3     2399     TIP3     H1       HT       0.417000       1.00800           0
     18381 TIP3     2399     TIP3     H2       HT       0.417000       1.00800           0
     18382 TIP3     2400     TIP3     OH2      OT      -0.834000       15.9994           0
     18383 TIP3     2400     TIP3     H1       HT       0.417000       1.00800           0
     18384 TIP3     2400     TIP3     H2       HT       0.417000       1.00800           0
     18385 TIP3     2401     TIP3     OH2      OT      -0.834000       15.9994           0
     18386 TIP3     2401     TIP3     H1       HT       0.417000       1.00800           0
     18387 TIP3     2401     TIP3     H2       HT       0.417000       1.00800           0
     18388 TIP3     2402     TIP3     OH2      OT      -0.834000       15.9994           0
     18389 TIP3     2402     TIP3     H1       HT       0.417000       1.00800           0
     18390 TIP3     2402     TIP3     H2       HT       0.417000       1.00800           0
     18391 TIP3     2403     TIP3     OH2      OT      -0.834000       15.9994           0
     18392 TIP3     2403     TIP3     H1       HT       0.417000       1.00800           0
     18393 TIP3     2403     TIP3     H2       HT       0.417000       1.00800           0
     18394 TIP3     2404     TIP3     OH2      OT      -0.834000       15.9994           0
     18395 TIP3     2404     TIP3     H1       HT       0.417000       1.00800           0
     18396 TIP3     2404     TIP3     H2       HT       0.417000       1.00800           0
     18397 TIP3     2405     TIP3     OH2      OT      -0.834000       15.9994           0
     18398 TIP3     2405     TIP3     H1       HT       0.417000       1.00800           0
     18399 TIP3     2405     TIP3     H2       HT       0.417000       1.00800           0
     18400 TIP3     2406     TIP3     OH2      OT      -0.834000       15.9994           0
     18401 TIP3     2406     TIP3     H1       HT       0.417000       1.00800           0
     18402 TIP3     2406     TIP3     H2       HT       0.417000       1.00800           0
     18403 TIP3     2407     TIP3     OH2      OT      -0.834000       15.9994           0
     18404 TIP3     2407     TIP3     H1       HT       0.417000       1.00800           0
     18405 TIP3     2407     TIP3     H2       HT       0.417000       1.00800           0
     18406 TIP3     2408     TIP3     OH2      OT      -0.834000       15.9994           0
     18407 TIP3     2408     TIP3     H1       HT       0.417000       1.00800           0
     18408 TIP3     2408     TIP3     H2       HT       0.417000       1.00800           0
     18409 TIP3     2409     TIP3     OH2      OT      -0.834000       15.9994           0
     18410 TIP3     2409     TIP3     H1       HT       0.417000       1.00800           0
     18411 TIP3     2409     TIP3     H2       HT       0.417000       1.00800           0
     18412 TIP3     2410     TIP3     OH2      OT      -0.834000       15.9994           0
     18413 TIP3     2410     TIP3     H1       HT       0.417000       1.00800           0
     18414 TIP3     2410     TIP3     H2       HT       0.417000       1.00800           0
     18415 TIP3     2411     TIP3     OH2      OT      -0.834000       15.9994           0
     18416 TIP3     2411     TIP3     H1       HT       0.417000       1.00800           0
     18417 TIP3     2411     TIP3     H2       HT       0.417000       1.00800           0
     18418 TIP3     2412     TIP3     OH2      OT      -0.834000       15.9994           0
     18419 TIP3     2412     TIP3     H1       HT       0.417000       1.00800           0
     18420 TIP3     2412     TIP3     H2       HT       0.417000       1.00800           0
     18421 TIP3     2413     TIP3     OH2      OT      -0.834000       15.9994           0
     18422 TIP3     2413     TIP3     H1       HT       0.417000       1.00800           0
     18423 TIP3     2413     TIP3     H2       HT       0.417000       1.00800           0
     18424 TIP3     2414     TIP3     OH2      OT      -0.834000       15.9994           0
     18425 TIP3     2414     TIP3     H1       HT       0.417000       1.00800           0
     18426 TIP3     2414     TIP3     H2       HT       0.417000       1.00800           0
     18427 TIP3     2415     TIP3     OH2      OT      -0.834000       15.9994           0
     18428 TIP3     2415     TIP3     H1       HT       0.417000       1.00800           0
     18429 TIP3     2415     TIP3     H2       HT       0.417000       1.00800           0
     18430 TIP3     2416     TIP3     OH2      OT      -0.834000       15.9994           0
     18431 TIP3     2416     TIP3     H1       HT       0.417000       1.00800           0
     18432 TIP3     2416     TIP3     H2       HT       0.417000       1.00800           0
     18433 TIP3     2417     TIP3     OH2      OT      -0.834000       15.9994           0
     18434 TIP3     2417     TIP3     H1       HT       0.417000       1.00800           0
     18435 TIP3     2417     TIP3     H2       HT       0.417000       1.00800           0
     18436 TIP3     2418     TIP3     OH2      OT      -0.834000       15.9994           0
     18437 TIP3     2418     TIP3     H1       HT       0.417000       1.00800           0
     18438 TIP3     2418     TIP3     H2       HT       0.417000       1.00800           0
     18439 TIP3     2419     TIP3     OH2      OT      -0.834000       15.9994           0
     18440 TIP3     2419     TIP3     H1       HT       0.417000       1.00800           0
     18441 TIP3     2419     TIP3     H2       HT       0.417000       1.00800           0
     18442 TIP3     2420     TIP3     OH2      OT      -0.834000       15.9994           0
     18443 TIP3     2420     TIP3     H1       HT       0.417000       1.00800           0
     18444 TIP3     2420     TIP3     H2       HT       0.417000       1.00800           0
     18445 TIP3     2421     TIP3     OH2      OT      -0.834000       15.9994           0
     18446 TIP3     2421     TIP3     H1       HT       0.417000       1.00800           0
     18447 TIP3     2421     TIP3     H2       HT       0.417000       1.00800           0
     18448 TIP3     2422     TIP3     OH2      OT      -0.834000       15.9994           0
     18449 TIP3     2422     TIP3     H1       HT       0.417000       1.00800           0
     18450 TIP3     2422     TIP3     H2       HT       0.417000       1.00800           0
     18451 TIP3     2423     TIP3     OH2      OT      -0.834000       15.9994           0
     18452 TIP3     2423     TIP3     H1       HT       0.417000       1.00800           0
     18453 TIP3     2423     TIP3     H2       HT       0.417000       1.00800           0
     18454 TIP3     2424     TIP3     OH2      OT      -0.834000       15.9994           0
     18455 TIP3     2424     TIP3     H1       HT       0.417000       1.00800           0
     18456 TIP3     2424     TIP3     H2       HT       0.417000       1.00800           0
     18457 TIP3     2425     TIP3     OH2      OT      -0.834000       15.9994           0
     18458 TIP3     2425     TIP3     H1       HT       0.417000       1.00800           0
     18459 TIP3     2425     TIP3     H2       HT       0.417000       1.00800           0
     18460 TIP3     2426     TIP3     OH2      OT      -0.834000       15.9994           0
     18461 TIP3     2426     TIP3     H1       HT       0.417000       1.00800           0
     18462 TIP3     2426     TIP3     H2       HT       0.417000       1.00800           0
     18463 TIP3     2427     TIP3     OH2      OT      -0.834000       15.9994           0
     18464 TIP3     2427     TIP3     H1       HT       0.417000       1.00800           0
     18465 TIP3     2427     TIP3     H2       HT       0.417000       1.00800           0
     18466 TIP3     2428     TIP3     OH2      OT      -0.834000       15.9994           0
     18467 TIP3     2428     TIP3     H1       HT       0.417000       1.00800           0
     18468 TIP3     2428     TIP3     H2       HT       0.417000       1.00800           0
     18469 TIP3     2429     TIP3     OH2      OT      -0.834000       15.9994           0
     18470 TIP3     2429     TIP3     H1       HT       0.417000       1.00800           0
     18471 TIP3     2429     TIP3     H2       HT       0.417000       1.00800           0
     18472 TIP3     2430     TIP3     OH2      OT      -0.834000       15.9994           0
     18473 TIP3     2430     TIP3     H1       HT       0.417000       1.00800           0
     18474 TIP3     2430     TIP3     H2       HT       0.417000       1.00800           0
     18475 TIP3     2431     TIP3     OH2      OT      -0.834000       15.9994           0
     18476 TIP3     2431     TIP3     H1       HT       0.417000       1.00800           0
     18477 TIP3     2431     TIP3     H2       HT       0.417000       1.00800           0
     18478 TIP3     2432     TIP3     OH2      OT      -0.834000       15.9994           0
     18479 TIP3     2432     TIP3     H1       HT       0.417000       1.00800           0
     18480 TIP3     2432     TIP3     H2       HT       0.417000       1.00800           0
     18481 TIP3     2433     TIP3     OH2      OT      -0.834000       15.9994           0
     18482 TIP3     2433     TIP3     H1       HT       0.417000       1.00800           0
     18483 TIP3     2433     TIP3     H2       HT       0.417000       1.00800           0
     18484 TIP3     2434     TIP3     OH2      OT      -0.834000       15.9994           0
     18485 TIP3     2434     TIP3     H1       HT       0.417000       1.00800           0
     18486 TIP3     2434     TIP3     H2       HT       0.417000       1.00800           0
     18487 TIP3     2435     TIP3     OH2      OT      -0.834000       15.9994           0
     18488 TIP3     2435     TIP3     H1       HT       0.417000       1.00800           0
     18489 TIP3     2435     TIP3     H2       HT       0.417000       1.00800           0
     18490 TIP3     2436     TIP3     OH2      OT      -0.834000       15.9994           0
     18491 TIP3     2436     TIP3     H1       HT       0.417000       1.00800           0
     18492 TIP3     2436     TIP3     H2       HT       0.417000       1.00800           0
     18493 TIP3     2437     TIP3     OH2      OT      -0.834000       15.9994           0
     18494 TIP3     2437     TIP3     H1       HT       0.417000       1.00800           0
     18495 TIP3     2437     TIP3     H2       HT       0.417000       1.00800           0
     18496 TIP3     2438     TIP3     OH2      OT      -0.834000       15.9994           0
     18497 TIP3     2438     TIP3     H1       HT       0.417000       1.00800           0
     18498 TIP3     2438     TIP3     H2       HT       0.417000       1.00800           0
     18499 TIP3     2439     TIP3     OH2      OT      -0.834000       15.9994           0
     18500 TIP3     2439     TIP3     H1       HT       0.417000       1.00800           0
     18501 TIP3     2439     TIP3     H2       HT       0.417000       1.00800           0
     18502 TIP3     2440     TIP3     OH2      OT      -0.834000       15.9994           0
     18503 TIP3     2440     TIP3     H1       HT       0.417000       1.00800           0
     18504 TIP3     2440     TIP3     H2       HT       0.417000       1.00800           0
     18505 TIP3     2441     TIP3     OH2      OT      -0.834000       15.9994           0
     18506 TIP3     2441     TIP3     H1       HT       0.417000       1.00800           0
     18507 TIP3     2441     TIP3     H2       HT       0.417000       1.00800           0
     18508 TIP3     2442     TIP3     OH2      OT      -0.834000       15.9994           0
     18509 TIP3     2442     TIP3     H1       HT       0.417000       1.00800           0
     18510 TIP3     2442     TIP3     H2       HT       0.417000       1.00800           0
     18511 TIP3     2443     TIP3     OH2      OT      -0.834000       15.9994           0
     18512 TIP3     2443     TIP3     H1       HT       0.417000       1.00800           0
     18513 TIP3     2443     TIP3     H2       HT       0.417000       1.00800           0
     18514 TIP3     2444     TIP3     OH2      OT      -0.834000       15.9994           0
     18515 TIP3     2444     TIP3     H1       HT       0.417000       1.00800           0
     18516 TIP3     2444     TIP3     H2       HT       0.417000       1.00800           0
     18517 TIP3     2445     TIP3     OH2      OT      -0.834000       15.9994           0
     18518 TIP3     2445     TIP3     H1       HT       0.417000       1.00800           0
     18519 TIP3     2445     TIP3     H2       HT       0.417000       1.00800           0
     18520 TIP3     2446     TIP3     OH2      OT      -0.834000       15.9994           0
     18521 TIP3     2446     TIP3     H1       HT       0.417000       1.00800           0
     18522 TIP3     2446     TIP3     H2       HT       0.417000       1.00800           0
     18523 TIP3     2447     TIP3     OH2      OT      -0.834000       15.9994           0
     18524 TIP3     2447     TIP3     H1       HT       0.417000       1.00800           0
     18525 TIP3     2447     TIP3     H2       HT       0.417000       1.00800           0
     18526 TIP3     2448     TIP3     OH2      OT      -0.834000       15.9994           0
     18527 TIP3     2448     TIP3     H1       HT       0.417000       1.00800           0
     18528 TIP3     2448     TIP3     H2       HT       0.417000       1.00800           0
     18529 TIP3     2449     TIP3     OH2      OT      -0.834000       15.9994           0
     18530 TIP3     2449     TIP3     H1       HT       0.417000       1.00800           0
     18531 TIP3     2449     TIP3     H2       HT       0.417000       1.00800           0
     18532 TIP3     2450     TIP3     OH2      OT      -0.834000       15.9994           0
     18533 TIP3     2450     TIP3     H1       HT       0.417000       1.00800           0
     18534 TIP3     2450     TIP3     H2       HT       0.417000       1.00800           0
     18535 TIP3     2451     TIP3     OH2      OT      -0.834000       15.9994           0
     18536 TIP3     2451     TIP3     H1       HT       0.417000       1.00800           0
     18537 TIP3     2451     TIP3     H2       HT       0.417000       1.00800           0
     18538 TIP3     2452     TIP3     OH2      OT      -0.834000       15.9994           0
     18539 TIP3     2452     TIP3     H1       HT       0.417000       1.00800           0
     18540 TIP3     2452     TIP3     H2       HT       0.417000       1.00800           0
     18541 TIP3     2453     TIP3     OH2      OT      -0.834000       15.9994           0
     18542 TIP3     2453     TIP3     H1       HT       0.417000       1.00800           0
     18543 TIP3     2453     TIP3     H2       HT       0.417000       1.00800           0
     18544 TIP3     2454     TIP3     OH2      OT      -0.834000       15.9994           0
     18545 TIP3     2454     TIP3     H1       HT       0.417000       1.00800           0
     18546 TIP3     2454     TIP3     H2       HT       0.417000       1.00800           0
     18547 TIP3     2455     TIP3     OH2      OT      -0.834000       15.9994           0
     18548 TIP3     2455     TIP3     H1       HT       0.417000       1.00800           0
     18549 TIP3     2455     TIP3     H2       HT       0.417000       1.00800           0
     18550 TIP3     2456     TIP3     OH2      OT      -0.834000       15.9994           0
     18551 TIP3     2456     TIP3     H1       HT       0.417000       1.00800           0
     18552 TIP3     2456     TIP3     H2       HT       0.417000       1.00800           0
     18553 TIP3     2457     TIP3     OH2      OT      -0.834000       15.9994           0
     18554 TIP3     2457     TIP3     H1       HT       0.417000       1.00800           0
     18555 TIP3     2457     TIP3     H2       HT       0.417000       1.00800           0
     18556 TIP3     2458     TIP3     OH2      OT      -0.834000       15.9994           0
     18557 TIP3     2458     TIP3     H1       HT       0.417000       1.00800           0
     18558 TIP3     2458     TIP3     H2       HT       0.417000       1.00800           0
     18559 TIP3     2459     TIP3     OH2      OT      -0.834000       15.9994           0
     18560 TIP3     2459     TIP3     H1       HT       0.417000       1.00800           0
     18561 TIP3     2459     TIP3     H2       HT       0.417000       1.00800           0
     18562 TIP3     2460     TIP3     OH2      OT      -0.834000       15.9994           0
     18563 TIP3     2460     TIP3     H1       HT       0.417000       1.00800           0
     18564 TIP3     2460     TIP3     H2       HT       0.417000       1.00800           0
     18565 TIP3     2461     TIP3     OH2      OT      -0.834000       15.9994           0
     18566 TIP3     2461     TIP3     H1       HT       0.417000       1.00800           0
     18567 TIP3     2461     TIP3     H2       HT       0.417000       1.00800           0
     18568 TIP3     2462     TIP3     OH2      OT      -0.834000       15.9994           0
     18569 TIP3     2462     TIP3     H1       HT       0.417000       1.00800           0
     18570 TIP3     2462     TIP3     H2       HT       0.417000       1.00800           0
     18571 TIP3     2463     TIP3     OH2      OT      -0.834000       15.9994           0
     18572 TIP3     2463     TIP3     H1       HT       0.417000       1.00800           0
     18573 TIP3     2463     TIP3     H2       HT       0.417000       1.00800           0
     18574 TIP3     2464     TIP3     OH2      OT      -0.834000       15.9994           0
     18575 TIP3     2464     TIP3     H1       HT       0.417000       1.00800           0
     18576 TIP3     2464     TIP3     H2       HT       0.417000       1.00800           0
     18577 TIP3     2465     TIP3     OH2      OT      -0.834000       15.9994           0
     18578 TIP3     2465     TIP3     H1       HT       0.417000       1.00800           0
     18579 TIP3     2465     TIP3     H2       HT       0.417000       1.00800           0
     18580 TIP3     2466     TIP3     OH2      OT      -0.834000       15.9994           0
     18581 TIP3     2466     TIP3     H1       HT       0.417000       1.00800           0
     18582 TIP3     2466     TIP3     H2       HT       0.417000       1.00800           0
     18583 TIP3     2467     TIP3     OH2      OT      -0.834000       15.9994           0
     18584 TIP3     2467     TIP3     H1       HT       0.417000       1.00800           0
     18585 TIP3     2467     TIP3     H2       HT       0.417000       1.00800           0
     18586 TIP3     2468     TIP3     OH2      OT      -0.834000       15.9994           0
     18587 TIP3     2468     TIP3     H1       HT       0.417000       1.00800           0
     18588 TIP3     2468     TIP3     H2       HT       0.417000       1.00800           0
     18589 TIP3     2469     TIP3     OH2      OT      -0.834000       15.9994           0
     18590 TIP3     2469     TIP3     H1       HT       0.417000       1.00800           0
     18591 TIP3     2469     TIP3     H2       HT       0.417000       1.00800           0
     18592 TIP3     2470     TIP3     OH2      OT      -0.834000       15.9994           0
     18593 TIP3     2470     TIP3     H1       HT       0.417000       1.00800           0
     18594 TIP3     2470     TIP3     H2       HT       0.417000       1.00800           0
     18595 TIP3     2471     TIP3     OH2      OT      -0.834000       15.9994           0
     18596 TIP3     2471     TIP3     H1       HT       0.417000       1.00800           0
     18597 TIP3     2471     TIP3     H2       HT       0.417000       1.00800           0
     18598 TIP3     2472     TIP3     OH2      OT      -0.834000       15.9994           0
     18599 TIP3     2472     TIP3     H1       HT       0.417000       1.00800           0
     18600 TIP3     2472     TIP3     H2       HT       0.417000       1.00800           0
     18601 TIP3     2473     TIP3     OH2      OT      -0.834000       15.9994           0
     18602 TIP3     2473     TIP3     H1       HT       0.417000       1.00800           0
     18603 TIP3     2473     TIP3     H2       HT       0.417000       1.00800           0
     18604 TIP3     2474     TIP3     OH2      OT      -0.834000       15.9994           0
     18605 TIP3     2474     TIP3     H1       HT       0.417000       1.00800           0
     18606 TIP3     2474     TIP3     H2       HT       0.417000       1.00800           0
     18607 TIP3     2475     TIP3     OH2      OT      -0.834000       15.9994           0
     18608 TIP3     2475     TIP3     H1       HT       0.417000       1.00800           0
     18609 TIP3     2475     TIP3     H2       HT       0.417000       1.00800           0
     18610 TIP3     2476     TIP3     OH2      OT      -0.834000       15.9994           0
     18611 TIP3     2476     TIP3     H1       HT       0.417000       1.00800           0
     18612 TIP3     2476     TIP3     H2       HT       0.417000       1.00800           0
     18613 TIP3     2477     TIP3     OH2      OT      -0.834000       15.9994           0
     18614 TIP3     2477     TIP3     H1       HT       0.417000       1.00800           0
     18615 TIP3     2477     TIP3     H2       HT       0.417000       1.00800           0
     18616 TIP3     2478     TIP3     OH2      OT      -0.834000       15.9994           0
     18617 TIP3     2478     TIP3     H1       HT       0.417000       1.00800           0
     18618 TIP3     2478     TIP3     H2       HT       0.417000       1.00800           0
     18619 TIP3     2479     TIP3     OH2      OT      -0.834000       15.9994           0
     18620 TIP3     2479     TIP3     H1       HT       0.417000       1.00800           0
     18621 TIP3     2479     TIP3     H2       HT       0.417000       1.00800           0
     18622 TIP3     2480     TIP3     OH2      OT      -0.834000       15.9994           0
     18623 TIP3     2480     TIP3     H1       HT       0.417000       1.00800           0
     18624 TIP3     2480     TIP3     H2       HT       0.417000       1.00800           0
     18625 TIP3     2481     TIP3     OH2      OT      -0.834000       15.9994           0
     18626 TIP3     2481     TIP3     H1       HT       0.417000       1.00800           0
     18627 TIP3     2481     TIP3     H2       HT       0.417000       1.00800           0
     18628 TIP3     2482     TIP3     OH2      OT      -0.834000       15.9994           0
     18629 TIP3     2482     TIP3     H1       HT       0.417000       1.00800           0
     18630 TIP3     2482     TIP3     H2       HT       0.417000       1.00800           0
     18631 TIP3     2483     TIP3     OH2      OT      -0.834000       15.9994           0
     18632 TIP3     2483     TIP3     H1       HT       0.417000       1.00800           0
     18633 TIP3     2483     TIP3     H2       HT       0.417000       1.00800           0
     18634 TIP3     2484     TIP3     OH2      OT      -0.834000       15.9994           0
     18635 TIP3     2484     TIP3     H1       HT       0.417000       1.00800           0
     18636 TIP3     2484     TIP3     H2       HT       0.417000       1.00800           0
     18637 TIP3     2485     TIP3     OH2      OT      -0.834000       15.9994           0
     18638 TIP3     2485     TIP3     H1       HT       0.417000       1.00800           0
     18639 TIP3     2485     TIP3     H2       HT       0.417000       1.00800           0
     18640 TIP3     2486     TIP3     OH2      OT      -0.834000       15.9994           0
     18641 TIP3     2486     TIP3     H1       HT       0.417000       1.00800           0
     18642 TIP3     2486     TIP3     H2       HT       0.417000       1.00800           0
     18643 TIP3     2487     TIP3     OH2      OT      -0.834000       15.9994           0
     18644 TIP3     2487     TIP3     H1       HT       0.417000       1.00800           0
     18645 TIP3     2487     TIP3     H2       HT       0.417000       1.00800           0
     18646 TIP3     2488     TIP3     OH2      OT      -0.834000       15.9994           0
     18647 TIP3     2488     TIP3     H1       HT       0.417000       1.00800           0
     18648 TIP3     2488     TIP3     H2       HT       0.417000       1.00800           0
     18649 TIP3     2489     TIP3     OH2      OT      -0.834000       15.9994           0
     18650 TIP3     2489     TIP3     H1       HT       0.417000       1.00800           0
     18651 TIP3     2489     TIP3     H2       HT       0.417000       1.00800           0
     18652 TIP3     2490     TIP3     OH2      OT      -0.834000       15.9994           0
     18653 TIP3     2490     TIP3     H1       HT       0.417000       1.00800           0
     18654 TIP3     2490     TIP3     H2       HT       0.417000       1.00800           0
     18655 TIP3     2491     TIP3     OH2      OT      -0.834000       15.9994           0
     18656 TIP3     2491     TIP3     H1       HT       0.417000       1.00800           0
     18657 TIP3     2491     TIP3     H2       HT       0.417000       1.00800           0
     18658 TIP3     2492     TIP3     OH2      OT      -0.834000       15.9994           0
     18659 TIP3     2492     TIP3     H1       HT       0.417000       1.00800           0
     18660 TIP3     2492     TIP3     H2       HT       0.417000       1.00800           0
     18661 TIP3     2493     TIP3     OH2      OT      -0.834000       15.9994           0
     18662 TIP3     2493     TIP3     H1       HT       0.417000       1.00800           0
     18663 TIP3     2493     TIP3     H2       HT       0.417000       1.00800           0
     18664 TIP3     2494     TIP3     OH2      OT      -0.834000       15.9994           0
     18665 TIP3     2494     TIP3     H1       HT       0.417000       1.00800           0
     18666 TIP3     2494     TIP3     H2       HT       0.417000       1.00800           0
     18667 TIP3     2495     TIP3     OH2      OT      -0.834000       15.9994           0
     18668 TIP3     2495     TIP3     H1       HT       0.417000       1.00800           0
     18669 TIP3     2495     TIP3     H2       HT       0.417000       1.00800           0
     18670 TIP3     2496     TIP3     OH2      OT      -0.834000       15.9994           0
     18671 TIP3     2496     TIP3     H1       HT       0.417000       1.00800           0
     18672 TIP3     2496     TIP3     H2       HT       0.417000       1.00800           0
     18673 TIP3     2497     TIP3     OH2      OT      -0.834000       15.9994           0
     18674 TIP3     2497     TIP3     H1       HT       0.417000       1.00800           0
     18675 TIP3     2497     TIP3     H2       HT       0.417000       1.00800           0
     18676 TIP3     2498     TIP3     OH2      OT      -0.834000       15.9994           0
     18677 TIP3     2498     TIP3     H1       HT       0.417000       1.00800           0
     18678 TIP3     2498     TIP3     H2       HT       0.417000       1.00800           0
     18679 TIP3     2499     TIP3     OH2      OT      -0.834000       15.9994           0
     18680 TIP3     2499     TIP3     H1       HT       0.417000       1.00800           0
     18681 TIP3     2499     TIP3     H2       HT       0.417000       1.00800           0
     18682 TIP3     2500     TIP3     OH2      OT      -0.834000       15.9994           0
     18683 TIP3     2500     TIP3     H1       HT       0.417000       1.00800           0
     18684 TIP3     2500     TIP3     H2       HT       0.417000       1.00800           0
     18685 TIP3     2501     TIP3     OH2      OT      -0.834000       15.9994           0
     18686 TIP3     2501     TIP3     H1       HT       0.417000       1.00800           0
     18687 TIP3     2501     TIP3     H2       HT       0.417000       1.00800           0
     18688 TIP3     2502     TIP3     OH2      OT      -0.834000       15.9994           0
     18689 TIP3     2502     TIP3     H1       HT       0.417000       1.00800           0
     18690 TIP3     2502     TIP3     H2       HT       0.417000       1.00800           0
     18691 TIP3     2503     TIP3     OH2      OT      -0.834000       15.9994           0
     18692 TIP3     2503     TIP3     H1       HT       0.417000       1.00800           0
     18693 TIP3     2503     TIP3     H2       HT       0.417000       1.00800           0
     18694 TIP3     2504     TIP3     OH2      OT      -0.834000       15.9994           0
     18695 TIP3     2504     TIP3     H1       HT       0.417000       1.00800           0
     18696 TIP3     2504     TIP3     H2       HT       0.417000       1.00800           0
     18697 TIP3     2505     TIP3     OH2      OT      -0.834000       15.9994           0
     18698 TIP3     2505     TIP3     H1       HT       0.417000       1.00800           0
     18699 TIP3     2505     TIP3     H2       HT       0.417000       1.00800           0
     18700 TIP3     2506     TIP3     OH2      OT      -0.834000       15.9994           0
     18701 TIP3     2506     TIP3     H1       HT       0.417000       1.00800           0
     18702 TIP3     2506     TIP3     H2       HT       0.417000       1.00800           0
     18703 TIP3     2507     TIP3     OH2      OT      -0.834000       15.9994           0
     18704 TIP3     2507     TIP3     H1       HT       0.417000       1.00800           0
     18705 TIP3     2507     TIP3     H2       HT       0.417000       1.00800           0
     18706 TIP3     2508     TIP3     OH2      OT      -0.834000       15.9994           0
     18707 TIP3     2508     TIP3     H1       HT       0.417000       1.00800           0
     18708 TIP3     2508     TIP3     H2       HT       0.417000       1.00800           0
     18709 TIP3     2509     TIP3     OH2      OT      -0.834000       15.9994           0
     18710 TIP3     2509     TIP3     H1       HT       0.417000       1.00800           0
     18711 TIP3     2509     TIP3     H2       HT       0.417000       1.00800           0
     18712 TIP3     2510     TIP3     OH2      OT      -0.834000       15.9994           0
     18713 TIP3     2510     TIP3     H1       HT       0.417000       1.00800           0
     18714 TIP3     2510     TIP3     H2       HT       0.417000       1.00800           0
     18715 TIP3     2511     TIP3     OH2      OT      -0.834000       15.9994           0
     18716 TIP3     2511     TIP3     H1       HT       0.417000       1.00800           0
     18717 TIP3     2511     TIP3     H2       HT       0.417000       1.00800           0
     18718 TIP3     2512     TIP3     OH2      OT      -0.834000       15.9994           0
     18719 TIP3     2512     TIP3     H1       HT       0.417000       1.00800           0
     18720 TIP3     2512     TIP3     H2       HT       0.417000       1.00800           0
     18721 TIP3     2513     TIP3     OH2      OT      -0.834000       15.9994           0
     18722 TIP3     2513     TIP3     H1       HT       0.417000       1.00800           0
     18723 TIP3     2513     TIP3     H2       HT       0.417000       1.00800           0
     18724 TIP3     2514     TIP3     OH2      OT      -0.834000       15.9994           0
     18725 TIP3     2514     TIP3     H1       HT       0.417000       1.00800           0
     18726 TIP3     2514     TIP3     H2       HT       0.417000       1.00800           0
     18727 TIP3     2515     TIP3     OH2      OT      -0.834000       15.9994           0
     18728 TIP3     2515     TIP3     H1       HT       0.417000       1.00800           0
     18729 TIP3     2515     TIP3     H2       HT       0.417000       1.00800           0
     18730 TIP3     2516     TIP3     OH2      OT      -0.834000       15.9994           0
     18731 TIP3     2516     TIP3     H1       HT       0.417000       1.00800           0
     18732 TIP3     2516     TIP3     H2       HT       0.417000       1.00800           0
     18733 TIP3     2517     TIP3     OH2      OT      -0.834000       15.9994           0
     18734 TIP3     2517     TIP3     H1       HT       0.417000       1.00800           0
     18735 TIP3     2517     TIP3     H2       HT       0.417000       1.00800           0
     18736 TIP3     2518     TIP3     OH2      OT      -0.834000       15.9994           0
     18737 TIP3     2518     TIP3     H1       HT       0.417000       1.00800           0
     18738 TIP3     2518     TIP3     H2       HT       0.417000       1.00800           0
     18739 TIP3     2519     TIP3     OH2      OT      -0.834000       15.9994           0
     18740 TIP3     2519     TIP3     H1       HT       0.417000       1.00800           0
     18741 TIP3     2519     TIP3     H2       HT       0.417000       1.00800           0
     18742 TIP3     2520     TIP3     OH2      OT      -0.834000       15.9994           0
     18743 TIP3     2520     TIP3     H1       HT       0.417000       1.00800           0
     18744 TIP3     2520     TIP3     H2       HT       0.417000       1.00800           0
     18745 TIP3     2521     TIP3     OH2      OT      -0.834000       15.9994           0
     18746 TIP3     2521     TIP3     H1       HT       0.417000       1.00800           0
     18747 TIP3     2521     TIP3     H2       HT       0.417000       1.00800           0
     18748 TIP3     2522     TIP3     OH2      OT      -0.834000       15.9994           0
     18749 TIP3     2522     TIP3     H1       HT       0.417000       1.00800           0
     18750 TIP3     2522     TIP3     H2       HT       0.417000       1.00800           0
     18751 TIP3     2523     TIP3     OH2      OT      -0.834000       15.9994           0
     18752 TIP3     2523     TIP3     H1       HT       0.417000       1.00800           0
     18753 TIP3     2523     TIP3     H2       HT       0.417000       1.00800           0
     18754 TIP3     2524     TIP3     OH2      OT      -0.834000       15.9994           0
     18755 TIP3     2524     TIP3     H1       HT       0.417000       1.00800           0
     18756 TIP3     2524     TIP3     H2       HT       0.417000       1.00800           0
     18757 TIP3     2525     TIP3     OH2      OT      -0.834000       15.9994           0
     18758 TIP3     2525     TIP3     H1       HT       0.417000       1.00800           0
     18759 TIP3     2525     TIP3     H2       HT       0.417000       1.00800           0
     18760 TIP3     2526     TIP3     OH2      OT      -0.834000       15.9994           0
     18761 TIP3     2526     TIP3     H1       HT       0.417000       1.00800           0
     18762 TIP3     2526     TIP3     H2       HT       0.417000       1.00800           0
     18763 TIP3     2527     TIP3     OH2      OT      -0.834000       15.9994           0
     18764 TIP3     2527     TIP3     H1       HT       0.417000       1.00800           0
     18765 TIP3     2527     TIP3     H2       HT       0.417000       1.00800           0
     18766 TIP3     2528     TIP3     OH2      OT      -0.834000       15.9994           0
     18767 TIP3     2528     TIP3     H1       HT       0.417000       1.00800           0
     18768 TIP3     2528     TIP3     H2       HT       0.417000       1.00800           0
     18769 TIP3     2529     TIP3     OH2      OT      -0.834000       15.9994           0
     18770 TIP3     2529     TIP3     H1       HT       0.417000       1.00800           0
     18771 TIP3     2529     TIP3     H2       HT       0.417000       1.00800           0
     18772 TIP3     2530     TIP3     OH2      OT      -0.834000       15.9994           0
     18773 TIP3     2530     TIP3     H1       HT       0.417000       1.00800           0
     18774 TIP3     2530     TIP3     H2       HT       0.417000       1.00800           0
     18775 TIP3     2531     TIP3     OH2      OT      -0.834000       15.9994           0
     18776 TIP3     2531     TIP3     H1       HT       0.417000       1.00800           0
     18777 TIP3     2531     TIP3     H2       HT       0.417000       1.00800           0
     18778 TIP3     2532     TIP3     OH2      OT      -0.834000       15.9994           0
     18779 TIP3     2532     TIP3     H1       HT       0.417000       1.00800           0
     18780 TIP3     2532     TIP3     H2       HT       0.417000       1.00800           0
     18781 TIP3     2533     TIP3     OH2      OT      -0.834000       15.9994           0
     18782 TIP3     2533     TIP3     H1       HT       0.417000       1.00800           0
     18783 TIP3     2533     TIP3     H2       HT       0.417000       1.00800           0
     18784 TIP3     2534     TIP3     OH2      OT      -0.834000       15.9994           0
     18785 TIP3     2534     TIP3     H1       HT       0.417000       1.00800           0
     18786 TIP3     2534     TIP3     H2       HT       0.417000       1.00800           0
     18787 TIP3     2535     TIP3     OH2      OT      -0.834000       15.9994           0
     18788 TIP3     2535     TIP3     H1       HT       0.417000       1.00800           0
     18789 TIP3     2535     TIP3     H2       HT       0.417000       1.00800           0
     18790 TIP3     2536     TIP3     OH2      OT      -0.834000       15.9994           0
     18791 TIP3     2536     TIP3     H1       HT       0.417000       1.00800           0
     18792 TIP3     2536     TIP3     H2       HT       0.417000       1.00800           0
     18793 TIP3     2537     TIP3     OH2      OT      -0.834000       15.9994           0
     18794 TIP3     2537     TIP3     H1       HT       0.417000       1.00800           0
     18795 TIP3     2537     TIP3     H2       HT       0.417000       1.00800           0
     18796 TIP3     2538     TIP3     OH2      OT      -0.834000       15.9994           0
     18797 TIP3     2538     TIP3     H1       HT       0.417000       1.00800           0
     18798 TIP3     2538     TIP3     H2       HT       0.417000       1.00800           0
     18799 TIP3     2539     TIP3     OH2      OT      -0.834000       15.9994           0
     18800 TIP3     2539     TIP3     H1       HT       0.417000       1.00800           0
     18801 TIP3     2539     TIP3     H2       HT       0.417000       1.00800           0
     18802 TIP3     2540     TIP3     OH2      OT      -0.834000       15.9994           0
     18803 TIP3     2540     TIP3     H1       HT       0.417000       1.00800           0
     18804 TIP3     2540     TIP3     H2       HT       0.417000       1.00800           0
     18805 TIP3     2541     TIP3     OH2      OT      -0.834000       15.9994           0
     18806 TIP3     2541     TIP3     H1       HT       0.417000       1.00800           0
     18807 TIP3     2541     TIP3     H2       HT       0.417000       1.00800           0
     18808 TIP3     2542     TIP3     OH2      OT      -0.834000       15.9994           0
     18809 TIP3     2542     TIP3     H1       HT       0.417000       1.00800           0
     18810 TIP3     2542     TIP3     H2       HT       0.417000       1.00800           0
     18811 TIP3     2543     TIP3     OH2      OT      -0.834000       15.9994           0
     18812 TIP3     2543     TIP3     H1       HT       0.417000       1.00800           0
     18813 TIP3     2543     TIP3     H2       HT       0.417000       1.00800           0
     18814 TIP3     2544     TIP3     OH2      OT      -0.834000       15.9994           0
     18815 TIP3     2544     TIP3     H1       HT       0.417000       1.00800           0
     18816 TIP3     2544     TIP3     H2       HT       0.417000       1.00800           0
     18817 TIP3     2545     TIP3     OH2      OT      -0.834000       15.9994           0
     18818 TIP3     2545     TIP3     H1       HT       0.417000       1.00800           0
     18819 TIP3     2545     TIP3     H2       HT       0.417000       1.00800           0
     18820 TIP3     2546     TIP3     OH2      OT      -0.834000       15.9994           0
     18821 TIP3     2546     TIP3     H1       HT       0.417000       1.00800           0
     18822 TIP3     2546     TIP3     H2       HT       0.417000       1.00800           0
     18823 TIP3     2547     TIP3     OH2      OT      -0.834000       15.9994           0
     18824 TIP3     2547     TIP3     H1       HT       0.417000       1.00800           0
     18825 TIP3     2547     TIP3     H2       HT       0.417000       1.00800           0
     18826 TIP3     2548     TIP3     OH2      OT      -0.834000       15.9994           0
     18827 TIP3     2548     TIP3     H1       HT       0.417000       1.00800           0
     18828 TIP3     2548     TIP3     H2       HT       0.417000       1.00800           0
     18829 TIP3     2549     TIP3     OH2      OT      -0.834000       15.9994           0
     18830 TIP3     2549     TIP3     H1       HT       0.417000       1.00800           0
     18831 TIP3     2549     TIP3     H2       HT       0.417000       1.00800           0
     18832 TIP3     2550     TIP3     OH2      OT      -0.834000       15.9994           0
     18833 TIP3     2550     TIP3     H1       HT       0.417000       1.00800           0
     18834 TIP3     2550     TIP3     H2       HT       0.417000       1.00800           0
     18835 TIP3     2551     TIP3     OH2      OT      -0.834000       15.9994           0
     18836 TIP3     2551     TIP3     H1       HT       0.417000       1.00800           0
     18837 TIP3     2551     TIP3     H2       HT       0.417000       1.00800           0
     18838 TIP3     2552     TIP3     OH2      OT      -0.834000       15.9994           0
     18839 TIP3     2552     TIP3     H1       HT       0.417000       1.00800           0
     18840 TIP3     2552     TIP3     H2       HT       0.417000       1.00800           0
     18841 TIP3     2553     TIP3     OH2      OT      -0.834000       15.9994           0
     18842 TIP3     2553     TIP3     H1       HT       0.417000       1.00800           0
     18843 TIP3     2553     TIP3     H2       HT       0.417000       1.00800           0
     18844 TIP3     2554     TIP3     OH2      OT      -0.834000       15.9994           0
     18845 TIP3     2554     TIP3     H1       HT       0.417000       1.00800           0
     18846 TIP3     2554     TIP3     H2       HT       0.417000       1.00800           0
     18847 TIP3     2555     TIP3     OH2      OT      -0.834000       15.9994           0
     18848 TIP3     2555     TIP3     H1       HT       0.417000       1.00800           0
     18849 TIP3     2555     TIP3     H2       HT       0.417000       1.00800           0
     18850 TIP3     2556     TIP3     OH2      OT      -0.834000       15.9994           0
     18851 TIP3     2556     TIP3     H1       HT       0.417000       1.00800           0
     18852 TIP3     2556     TIP3     H2       HT       0.417000       1.00800           0
     18853 TIP3     2557     TIP3     OH2      OT      -0.834000       15.9994           0
     18854 TIP3     2557     TIP3     H1       HT       0.417000       1.00800           0
     18855 TIP3     2557     TIP3     H2       HT       0.417000       1.00800           0
     18856 TIP3     2558     TIP3     OH2      OT      -0.834000       15.9994           0
     18857 TIP3     2558     TIP3     H1       HT       0.417000       1.00800           0
     18858 TIP3     2558     TIP3     H2       HT       0.417000       1.00800           0
     18859 TIP3     2559     TIP3     OH2      OT      -0.834000       15.9994           0
     18860 TIP3     2559     TIP3     H1       HT       0.417000       1.00800           0
     18861 TIP3     2559     TIP3     H2       HT       0.417000       1.00800           0
     18862 TIP3     2560     TIP3     OH2      OT      -0.834000       15.9994           0
     18863 TIP3     2560     TIP3     H1       HT       0.417000       1.00800           0
     18864 TIP3     2560     TIP3     H2       HT       0.417000       1.00800           0
     18865 TIP3     2561     TIP3     OH2      OT      -0.834000       15.9994           0
     18866 TIP3     2561     TIP3     H1       HT       0.417000       1.00800           0
     18867 TIP3     2561     TIP3     H2       HT       0.417000       1.00800           0
     18868 TIP3     2562     TIP3     OH2      OT      -0.834000       15.9994           0
     18869 TIP3     2562     TIP3     H1       HT       0.417000       1.00800           0
     18870 TIP3     2562     TIP3     H2       HT       0.417000       1.00800           0
     18871 TIP3     2563     TIP3     OH2      OT      -0.834000       15.9994           0
     18872 TIP3     2563     TIP3     H1       HT       0.417000       1.00800           0
     18873 TIP3     2563     TIP3     H2       HT       0.417000       1.00800           0
     18874 TIP3     2564     TIP3     OH2      OT      -0.834000       15.9994           0
     18875 TIP3     2564     TIP3     H1       HT       0.417000       1.00800           0
     18876 TIP3     2564     TIP3     H2       HT       0.417000       1.00800           0
     18877 TIP3     2565     TIP3     OH2      OT      -0.834000       15.9994           0
     18878 TIP3     2565     TIP3     H1       HT       0.417000       1.00800           0
     18879 TIP3     2565     TIP3     H2       HT       0.417000       1.00800           0
     18880 TIP3     2566     TIP3     OH2      OT      -0.834000       15.9994           0
     18881 TIP3     2566     TIP3     H1       HT       0.417000       1.00800           0
     18882 TIP3     2566     TIP3     H2       HT       0.417000       1.00800           0
     18883 TIP3     2567     TIP3     OH2      OT      -0.834000       15.9994           0
     18884 TIP3     2567     TIP3     H1       HT       0.417000       1.00800           0
     18885 TIP3     2567     TIP3     H2       HT       0.417000       1.00800           0
     18886 TIP3     2568     TIP3     OH2      OT      -0.834000       15.9994           0
     18887 TIP3     2568     TIP3     H1       HT       0.417000       1.00800           0
     18888 TIP3     2568     TIP3     H2       HT       0.417000       1.00800           0
     18889 TIP3     2569     TIP3     OH2      OT      -0.834000       15.9994           0
     18890 TIP3     2569     TIP3     H1       HT       0.417000       1.00800           0
     18891 TIP3     2569     TIP3     H2       HT       0.417000       1.00800           0
     18892 TIP3     2570     TIP3     OH2      OT      -0.834000       15.9994           0
     18893 TIP3     2570     TIP3     H1       HT       0.417000       1.00800           0
     18894 TIP3     2570     TIP3     H2       HT       0.417000       1.00800           0
     18895 TIP3     2571     TIP3     OH2      OT      -0.834000       15.9994           0
     18896 TIP3     2571     TIP3     H1       HT       0.417000       1.00800           0
     18897 TIP3     2571     TIP3     H2       HT       0.417000       1.00800           0
     18898 TIP3     2572     TIP3     OH2      OT      -0.834000       15.9994           0
     18899 TIP3     2572     TIP3     H1       HT       0.417000       1.00800           0
     18900 TIP3     2572     TIP3     H2       HT       0.417000       1.00800           0
     18901 TIP3     2573     TIP3     OH2      OT      -0.834000       15.9994           0
     18902 TIP3     2573     TIP3     H1       HT       0.417000       1.00800           0
     18903 TIP3     2573     TIP3     H2       HT       0.417000       1.00800           0
     18904 TIP3     2574     TIP3     OH2      OT      -0.834000       15.9994           0
     18905 TIP3     2574     TIP3     H1       HT       0.417000       1.00800           0
     18906 TIP3     2574     TIP3     H2       HT       0.417000       1.00800           0
     18907 TIP3     2575     TIP3     OH2      OT      -0.834000       15.9994           0
     18908 TIP3     2575     TIP3     H1       HT       0.417000       1.00800           0
     18909 TIP3     2575     TIP3     H2       HT       0.417000       1.00800           0
     18910 TIP3     2576     TIP3     OH2      OT      -0.834000       15.9994           0
     18911 TIP3     2576     TIP3     H1       HT       0.417000       1.00800           0
     18912 TIP3     2576     TIP3     H2       HT       0.417000       1.00800           0
     18913 TIP3     2577     TIP3     OH2      OT      -0.834000       15.9994           0
     18914 TIP3     2577     TIP3     H1       HT       0.417000       1.00800           0
     18915 TIP3     2577     TIP3     H2       HT       0.417000       1.00800           0
     18916 TIP3     2578     TIP3     OH2      OT      -0.834000       15.9994           0
     18917 TIP3     2578     TIP3     H1       HT       0.417000       1.00800           0
     18918 TIP3     2578     TIP3     H2       HT       0.417000       1.00800           0
     18919 TIP3     2579     TIP3     OH2      OT      -0.834000       15.9994           0
     18920 TIP3     2579     TIP3     H1       HT       0.417000       1.00800           0
     18921 TIP3     2579     TIP3     H2       HT       0.417000       1.00800           0
     18922 TIP3     2580     TIP3     OH2      OT      -0.834000       15.9994           0
     18923 TIP3     2580     TIP3     H1       HT       0.417000       1.00800           0
     18924 TIP3     2580     TIP3     H2       HT       0.417000       1.00800           0
     18925 TIP3     2581     TIP3     OH2      OT      -0.834000       15.9994           0
     18926 TIP3     2581     TIP3     H1       HT       0.417000       1.00800           0
     18927 TIP3     2581     TIP3     H2       HT       0.417000       1.00800           0
     18928 TIP3     2582     TIP3     OH2      OT      -0.834000       15.9994           0
     18929 TIP3     2582     TIP3     H1       HT       0.417000       1.00800           0
     18930 TIP3     2582     TIP3     H2       HT       0.417000       1.00800           0
     18931 TIP3     2583     TIP3     OH2      OT      -0.834000       15.9994           0
     18932 TIP3     2583     TIP3     H1       HT       0.417000       1.00800           0
     18933 TIP3     2583     TIP3     H2       HT       0.417000       1.00800           0
     18934 TIP3     2584     TIP3     OH2      OT      -0.834000       15.9994           0
     18935 TIP3     2584     TIP3     H1       HT       0.417000       1.00800           0
     18936 TIP3     2584     TIP3     H2       HT       0.417000       1.00800           0
     18937 TIP3     2585     TIP3     OH2      OT      -0.834000       15.9994           0
     18938 TIP3     2585     TIP3     H1       HT       0.417000       1.00800           0
     18939 TIP3     2585     TIP3     H2       HT       0.417000       1.00800           0
     18940 TIP3     2586     TIP3     OH2      OT      -0.834000       15.9994           0
     18941 TIP3     2586     TIP3     H1       HT       0.417000       1.00800           0
     18942 TIP3     2586     TIP3     H2       HT       0.417000       1.00800           0
     18943 TIP3     2587     TIP3     OH2      OT      -0.834000       15.9994           0
     18944 TIP3     2587     TIP3     H1       HT       0.417000       1.00800           0
     18945 TIP3     2587     TIP3     H2       HT       0.417000       1.00800           0
     18946 TIP3     2588     TIP3     OH2      OT      -0.834000       15.9994           0
     18947 TIP3     2588     TIP3     H1       HT       0.417000       1.00800           0
     18948 TIP3     2588     TIP3     H2       HT       0.417000       1.00800           0
     18949 TIP3     2589     TIP3     OH2      OT      -0.834000       15.9994           0
     18950 TIP3     2589     TIP3     H1       HT       0.417000       1.00800           0
     18951 TIP3     2589     TIP3     H2       HT       0.417000       1.00800           0
     18952 TIP3     2590     TIP3     OH2      OT      -0.834000       15.9994           0
     18953 TIP3     2590     TIP3     H1       HT       0.417000       1.00800           0
     18954 TIP3     2590     TIP3     H2       HT       0.417000       1.00800           0
     18955 TIP3     2591     TIP3     OH2      OT      -0.834000       15.9994           0
     18956 TIP3     2591     TIP3     H1       HT       0.417000       1.00800           0
     18957 TIP3     2591     TIP3     H2       HT       0.417000       1.00800           0
     18958 TIP3     2592     TIP3     OH2      OT      -0.834000       15.9994           0
     18959 TIP3     2592     TIP3     H1       HT       0.417000       1.00800           0
     18960 TIP3     2592     TIP3     H2       HT       0.417000       1.00800           0
     18961 TIP3     2593     TIP3     OH2      OT      -0.834000       15.9994           0
     18962 TIP3     2593     TIP3     H1       HT       0.417000       1.00800           0
     18963 TIP3     2593     TIP3     H2       HT       0.417000       1.00800           0
     18964 TIP3     2594     TIP3     OH2      OT      -0.834000       15.9994           0
     18965 TIP3     2594     TIP3     H1       HT       0.417000       1.00800           0
     18966 TIP3     2594     TIP3     H2       HT       0.417000       1.00800           0
     18967 TIP3     2595     TIP3     OH2      OT      -0.834000       15.9994           0
     18968 TIP3     2595     TIP3     H1       HT       0.417000       1.00800           0
     18969 TIP3     2595     TIP3     H2       HT       0.417000       1.00800           0
     18970 TIP3     2596     TIP3     OH2      OT      -0.834000       15.9994           0
     18971 TIP3     2596     TIP3     H1       HT       0.417000       1.00800           0
     18972 TIP3     2596     TIP3     H2       HT       0.417000       1.00800           0
     18973 TIP3     2597     TIP3     OH2      OT      -0.834000       15.9994           0
     18974 TIP3     2597     TIP3     H1       HT       0.417000       1.00800           0
     18975 TIP3     2597     TIP3     H2       HT       0.417000       1.00800           0
     18976 TIP3     2598     TIP3     OH2      OT      -0.834000       15.9994           0
     18977 TIP3     2598     TIP3     H1       HT       0.417000       1.00800           0
     18978 TIP3     2598     TIP3     H2       HT       0.417000       1.00800           0
     18979 TIP3     2599     TIP3     OH2      OT      -0.834000       15.9994           0
     18980 TIP3     2599     TIP3     H1       HT       0.417000       1.00800           0
     18981 TIP3     2599     TIP3     H2       HT       0.417000       1.00800           0
     18982 TIP3     2600     TIP3     OH2      OT      -0.834000       15.9994           0
     18983 TIP3     2600     TIP3     H1       HT       0.417000       1.00800           0
     18984 TIP3     2600     TIP3     H2       HT       0.417000       1.00800           0
     18985 TIP3     2601     TIP3     OH2      OT      -0.834000       15.9994           0
     18986 TIP3     2601     TIP3     H1       HT       0.417000       1.00800           0
     18987 TIP3     2601     TIP3     H2       HT       0.417000       1.00800           0
     18988 TIP3     2602     TIP3     OH2      OT      -0.834000       15.9994           0
     18989 TIP3     2602     TIP3     H1       HT       0.417000       1.00800           0
     18990 TIP3     2602     TIP3     H2       HT       0.417000       1.00800           0
     18991 TIP3     2603     TIP3     OH2      OT      -0.834000       15.9994           0
     18992 TIP3     2603     TIP3     H1       HT       0.417000       1.00800           0
     18993 TIP3     2603     TIP3     H2       HT       0.417000       1.00800           0
     18994 TIP3     2604     TIP3     OH2      OT      -0.834000       15.9994           0
     18995 TIP3     2604     TIP3     H1       HT       0.417000       1.00800           0
     18996 TIP3     2604     TIP3     H2       HT       0.417000       1.00800           0
     18997 TIP3     2605     TIP3     OH2      OT      -0.834000       15.9994           0
     18998 TIP3     2605     TIP3     H1       HT       0.417000       1.00800           0
     18999 TIP3     2605     TIP3     H2       HT       0.417000       1.00800           0
     19000 TIP3     2606     TIP3     OH2      OT      -0.834000       15.9994           0
     19001 TIP3     2606     TIP3     H1       HT       0.417000       1.00800           0
     19002 TIP3     2606     TIP3     H2       HT       0.417000       1.00800           0
     19003 TIP3     2607     TIP3     OH2      OT      -0.834000       15.9994           0
     19004 TIP3     2607     TIP3     H1       HT       0.417000       1.00800           0
     19005 TIP3     2607     TIP3     H2       HT       0.417000       1.00800           0
     19006 TIP3     2608     TIP3     OH2      OT      -0.834000       15.9994           0
     19007 TIP3     2608     TIP3     H1       HT       0.417000       1.00800           0
     19008 TIP3     2608     TIP3     H2       HT       0.417000       1.00800           0
     19009 TIP3     2609     TIP3     OH2      OT      -0.834000       15.9994           0
     19010 TIP3     2609     TIP3     H1       HT       0.417000       1.00800           0
     19011 TIP3     2609     TIP3     H2       HT       0.417000       1.00800           0
     19012 TIP3     2610     TIP3     OH2      OT      -0.834000       15.9994           0
     19013 TIP3     2610     TIP3     H1       HT       0.417000       1.00800           0
     19014 TIP3     2610     TIP3     H2       HT       0.417000       1.00800           0
     19015 TIP3     2611     TIP3     OH2      OT      -0.834000       15.9994           0
     19016 TIP3     2611     TIP3     H1       HT       0.417000       1.00800           0
     19017 TIP3     2611     TIP3     H2       HT       0.417000       1.00800           0
     19018 TIP3     2612     TIP3     OH2      OT      -0.834000       15.9994           0
     19019 TIP3     2612     TIP3     H1       HT       0.417000       1.00800           0
     19020 TIP3     2612     TIP3     H2       HT       0.417000       1.00800           0
     19021 TIP3     2613     TIP3     OH2      OT      -0.834000       15.9994           0
     19022 TIP3     2613     TIP3     H1       HT       0.417000       1.00800           0
     19023 TIP3     2613     TIP3     H2       HT       0.417000       1.00800           0
     19024 TIP3     2614     TIP3     OH2      OT      -0.834000       15.9994           0
     19025 TIP3     2614     TIP3     H1       HT       0.417000       1.00800           0
     19026 TIP3     2614     TIP3     H2       HT       0.417000       1.00800           0
     19027 TIP3     2615     TIP3     OH2      OT      -0.834000       15.9994           0
     19028 TIP3     2615     TIP3     H1       HT       0.417000       1.00800           0
     19029 TIP3     2615     TIP3     H2       HT       0.417000       1.00800           0
     19030 TIP3     2616     TIP3     OH2      OT      -0.834000       15.9994           0
     19031 TIP3     2616     TIP3     H1       HT       0.417000       1.00800           0
     19032 TIP3     2616     TIP3     H2       HT       0.417000       1.00800           0
     19033 TIP3     2617     TIP3     OH2      OT      -0.834000       15.9994           0
     19034 TIP3     2617     TIP3     H1       HT       0.417000       1.00800           0
     19035 TIP3     2617     TIP3     H2       HT       0.417000       1.00800           0
     19036 TIP3     2618     TIP3     OH2      OT      -0.834000       15.9994           0
     19037 TIP3     2618     TIP3     H1       HT       0.417000       1.00800           0
     19038 TIP3     2618     TIP3     H2       HT       0.417000       1.00800           0
     19039 TIP3     2619     TIP3     OH2      OT      -0.834000       15.9994           0
     19040 TIP3     2619     TIP3     H1       HT       0.417000       1.00800           0
     19041 TIP3     2619     TIP3     H2       HT       0.417000       1.00800           0
     19042 TIP3     2620     TIP3     OH2      OT      -0.834000       15.9994           0
     19043 TIP3     2620     TIP3     H1       HT       0.417000       1.00800           0
     19044 TIP3     2620     TIP3     H2       HT       0.417000       1.00800           0
     19045 TIP3     2621     TIP3     OH2      OT      -0.834000       15.9994           0
     19046 TIP3     2621     TIP3     H1       HT       0.417000       1.00800           0
     19047 TIP3     2621     TIP3     H2       HT       0.417000       1.00800           0
     19048 TIP3     2622     TIP3     OH2      OT      -0.834000       15.9994           0
     19049 TIP3     2622     TIP3     H1       HT       0.417000       1.00800           0
     19050 TIP3     2622     TIP3     H2       HT       0.417000       1.00800           0
     19051 TIP3     2623     TIP3     OH2      OT      -0.834000       15.9994           0
     19052 TIP3     2623     TIP3     H1       HT       0.417000       1.00800           0
     19053 TIP3     2623     TIP3     H2       HT       0.417000       1.00800           0
     19054 TIP3     2624     TIP3     OH2      OT      -0.834000       15.9994           0
     19055 TIP3     2624     TIP3     H1       HT       0.417000       1.00800           0
     19056 TIP3     2624     TIP3     H2       HT       0.417000       1.00800           0
     19057 TIP3     2625     TIP3     OH2      OT      -0.834000       15.9994           0
     19058 TIP3     2625     TIP3     H1       HT       0.417000       1.00800           0
     19059 TIP3     2625     TIP3     H2       HT       0.417000       1.00800           0
     19060 TIP3     2626     TIP3     OH2      OT      -0.834000       15.9994           0
     19061 TIP3     2626     TIP3     H1       HT       0.417000       1.00800           0
     19062 TIP3     2626     TIP3     H2       HT       0.417000       1.00800           0
     19063 TIP3     2627     TIP3     OH2      OT      -0.834000       15.9994           0
     19064 TIP3     2627     TIP3     H1       HT       0.417000       1.00800           0
     19065 TIP3     2627     TIP3     H2       HT       0.417000       1.00800           0
     19066 TIP3     2628     TIP3     OH2      OT      -0.834000       15.9994           0
     19067 TIP3     2628     TIP3     H1       HT       0.417000       1.00800           0
     19068 TIP3     2628     TIP3     H2       HT       0.417000       1.00800           0
     19069 TIP3     2629     TIP3     OH2      OT      -0.834000       15.9994           0
     19070 TIP3     2629     TIP3     H1       HT       0.417000       1.00800           0
     19071 TIP3     2629     TIP3     H2       HT       0.417000       1.00800           0
     19072 TIP3     2630     TIP3     OH2      OT      -0.834000       15.9994           0
     19073 TIP3     2630     TIP3     H1       HT       0.417000       1.00800           0
     19074 TIP3     2630     TIP3     H2       HT       0.417000       1.00800           0
     19075 TIP3     2631     TIP3     OH2      OT      -0.834000       15.9994           0
     19076 TIP3     2631     TIP3     H1       HT       0.417000       1.00800           0
     19077 TIP3     2631     TIP3     H2       HT       0.417000       1.00800           0
     19078 TIP3     2632     TIP3     OH2      OT      -0.834000       15.9994           0
     19079 TIP3     2632     TIP3     H1       HT       0.417000       1.00800           0
     19080 TIP3     2632     TIP3     H2       HT       0.417000       1.00800           0
     19081 TIP3     2633     TIP3     OH2      OT      -0.834000       15.9994           0
     19082 TIP3     2633     TIP3     H1       HT       0.417000       1.00800           0
     19083 TIP3     2633     TIP3     H2       HT       0.417000       1.00800           0
     19084 TIP3     2634     TIP3     OH2      OT      -0.834000       15.9994           0
     19085 TIP3     2634     TIP3     H1       HT       0.417000       1.00800           0
     19086 TIP3     2634     TIP3     H2       HT       0.417000       1.00800           0
     19087 TIP3     2635     TIP3     OH2      OT      -0.834000       15.9994           0
     19088 TIP3     2635     TIP3     H1       HT       0.417000       1.00800           0
     19089 TIP3     2635     TIP3     H2       HT       0.417000       1.00800           0
     19090 TIP3     2636     TIP3     OH2      OT      -0.834000       15.9994           0
     19091 TIP3     2636     TIP3     H1       HT       0.417000       1.00800           0
     19092 TIP3     2636     TIP3     H2       HT       0.417000       1.00800           0
     19093 TIP3     2637     TIP3     OH2      OT      -0.834000       15.9994           0
     19094 TIP3     2637     TIP3     H1       HT       0.417000       1.00800           0
     19095 TIP3     2637     TIP3     H2       HT       0.417000       1.00800           0
     19096 TIP3     2638     TIP3     OH2      OT      -0.834000       15.9994           0
     19097 TIP3     2638     TIP3     H1       HT       0.417000       1.00800           0
     19098 TIP3     2638     TIP3     H2       HT       0.417000       1.00800           0
     19099 TIP3     2639     TIP3     OH2      OT      -0.834000       15.9994           0
     19100 TIP3     2639     TIP3     H1       HT       0.417000       1.00800           0
     19101 TIP3     2639     TIP3     H2       HT       0.417000       1.00800           0
     19102 TIP3     2640     TIP3     OH2      OT      -0.834000       15.9994           0
     19103 TIP3     2640     TIP3     H1       HT       0.417000       1.00800           0
     19104 TIP3     2640     TIP3     H2       HT       0.417000       1.00800           0
     19105 TIP3     2641     TIP3     OH2      OT      -0.834000       15.9994           0
     19106 TIP3     2641     TIP3     H1       HT       0.417000       1.00800           0
     19107 TIP3     2641     TIP3     H2       HT       0.417000       1.00800           0
     19108 TIP3     2642     TIP3     OH2      OT      -0.834000       15.9994           0
     19109 TIP3     2642     TIP3     H1       HT       0.417000       1.00800           0
     19110 TIP3     2642     TIP3     H2       HT       0.417000       1.00800           0
     19111 TIP3     2643     TIP3     OH2      OT      -0.834000       15.9994           0
     19112 TIP3     2643     TIP3     H1       HT       0.417000       1.00800           0
     19113 TIP3     2643     TIP3     H2       HT       0.417000       1.00800           0
     19114 TIP3     2644     TIP3     OH2      OT      -0.834000       15.9994           0
     19115 TIP3     2644     TIP3     H1       HT       0.417000       1.00800           0
     19116 TIP3     2644     TIP3     H2       HT       0.417000       1.00800           0
     19117 TIP3     2645     TIP3     OH2      OT      -0.834000       15.9994           0
     19118 TIP3     2645     TIP3     H1       HT       0.417000       1.00800           0
     19119 TIP3     2645     TIP3     H2       HT       0.417000       1.00800           0
     19120 TIP3     2646     TIP3     OH2      OT      -0.834000       15.9994           0
     19121 TIP3     2646     TIP3     H1       HT       0.417000       1.00800           0
     19122 TIP3     2646     TIP3     H2       HT       0.417000       1.00800           0
     19123 TIP3     2647     TIP3     OH2      OT      -0.834000       15.9994           0
     19124 TIP3     2647     TIP3     H1       HT       0.417000       1.00800           0
     19125 TIP3     2647     TIP3     H2       HT       0.417000       1.00800           0
     19126 TIP3     2648     TIP3     OH2      OT      -0.834000       15.9994           0
     19127 TIP3     2648     TIP3     H1       HT       0.417000       1.00800           0
     19128 TIP3     2648     TIP3     H2       HT       0.417000       1.00800           0
     19129 TIP3     2649     TIP3     OH2      OT      -0.834000       15.9994           0
     19130 TIP3     2649     TIP3     H1       HT       0.417000       1.00800           0
     19131 TIP3     2649     TIP3     H2       HT       0.417000       1.00800           0
     19132 TIP3     2650     TIP3     OH2      OT      -0.834000       15.9994           0
     19133 TIP3     2650     TIP3     H1       HT       0.417000       1.00800           0
     19134 TIP3     2650     TIP3     H2       HT       0.417000       1.00800           0
     19135 TIP3     2651     TIP3     OH2      OT      -0.834000       15.9994           0
     19136 TIP3     2651     TIP3     H1       HT       0.417000       1.00800           0
     19137 TIP3     2651     TIP3     H2       HT       0.417000       1.00800           0
     19138 TIP3     2652     TIP3     OH2      OT      -0.834000       15.9994           0
     19139 TIP3     2652     TIP3     H1       HT       0.417000       1.00800           0
     19140 TIP3     2652     TIP3     H2       HT       0.417000       1.00800           0
     19141 TIP3     2653     TIP3     OH2      OT      -0.834000       15.9994           0
     19142 TIP3     2653     TIP3     H1       HT       0.417000       1.00800           0
     19143 TIP3     2653     TIP3     H2       HT       0.417000       1.00800           0
     19144 TIP3     2654     TIP3     OH2      OT      -0.834000       15.9994           0
     19145 TIP3     2654     TIP3     H1       HT       0.417000       1.00800           0
     19146 TIP3     2654     TIP3     H2       HT       0.417000       1.00800           0
     19147 TIP3     2655     TIP3     OH2      OT      -0.834000       15.9994           0
     19148 TIP3     2655     TIP3     H1       HT       0.417000       1.00800           0
     19149 TIP3     2655     TIP3     H2       HT       0.417000       1.00800           0
     19150 TIP3     2656     TIP3     OH2      OT      -0.834000       15.9994           0
     19151 TIP3     2656     TIP3     H1       HT       0.417000       1.00800           0
     19152 TIP3     2656     TIP3     H2       HT       0.417000       1.00800           0
     19153 TIP3     2657     TIP3     OH2      OT      -0.834000       15.9994           0
     19154 TIP3     2657     TIP3     H1       HT       0.417000       1.00800           0
     19155 TIP3     2657     TIP3     H2       HT       0.417000       1.00800           0
     19156 TIP3     2658     TIP3     OH2      OT      -0.834000       15.9994           0
     19157 TIP3     2658     TIP3     H1       HT       0.417000       1.00800           0
     19158 TIP3     2658     TIP3     H2       HT       0.417000       1.00800           0
     19159 TIP3     2659     TIP3     OH2      OT      -0.834000       15.9994           0
     19160 TIP3     2659     TIP3     H1       HT       0.417000       1.00800           0
     19161 TIP3     2659     TIP3     H2       HT       0.417000       1.00800           0
     19162 TIP3     2660     TIP3     OH2      OT      -0.834000       15.9994           0
     19163 TIP3     2660     TIP3     H1       HT       0.417000       1.00800           0
     19164 TIP3     2660     TIP3     H2       HT       0.417000       1.00800           0
     19165 TIP3     2661     TIP3     OH2      OT      -0.834000       15.9994           0
     19166 TIP3     2661     TIP3     H1       HT       0.417000       1.00800           0
     19167 TIP3     2661     TIP3     H2       HT       0.417000       1.00800           0
     19168 TIP3     2662     TIP3     OH2      OT      -0.834000       15.9994           0
     19169 TIP3     2662     TIP3     H1       HT       0.417000       1.00800           0
     19170 TIP3     2662     TIP3     H2       HT       0.417000       1.00800           0
     19171 TIP3     2663     TIP3     OH2      OT      -0.834000       15.9994           0
     19172 TIP3     2663     TIP3     H1       HT       0.417000       1.00800           0
     19173 TIP3     2663     TIP3     H2       HT       0.417000       1.00800           0
     19174 TIP3     2664     TIP3     OH2      OT      -0.834000       15.9994           0
     19175 TIP3     2664     TIP3     H1       HT       0.417000       1.00800           0
     19176 TIP3     2664     TIP3     H2       HT       0.417000       1.00800           0
     19177 TIP3     2665     TIP3     OH2      OT      -0.834000       15.9994           0
     19178 TIP3     2665     TIP3     H1       HT       0.417000       1.00800           0
     19179 TIP3     2665     TIP3     H2       HT       0.417000       1.00800           0
     19180 TIP3     2666     TIP3     OH2      OT      -0.834000       15.9994           0
     19181 TIP3     2666     TIP3     H1       HT       0.417000       1.00800           0
     19182 TIP3     2666     TIP3     H2       HT       0.417000       1.00800           0
     19183 TIP3     2667     TIP3     OH2      OT      -0.834000       15.9994           0
     19184 TIP3     2667     TIP3     H1       HT       0.417000       1.00800           0
     19185 TIP3     2667     TIP3     H2       HT       0.417000       1.00800           0
     19186 TIP3     2668     TIP3     OH2      OT      -0.834000       15.9994           0
     19187 TIP3     2668     TIP3     H1       HT       0.417000       1.00800           0
     19188 TIP3     2668     TIP3     H2       HT       0.417000       1.00800           0
     19189 TIP3     2669     TIP3     OH2      OT      -0.834000       15.9994           0
     19190 TIP3     2669     TIP3     H1       HT       0.417000       1.00800           0
     19191 TIP3     2669     TIP3     H2       HT       0.417000       1.00800           0
     19192 TIP3     2670     TIP3     OH2      OT      -0.834000       15.9994           0
     19193 TIP3     2670     TIP3     H1       HT       0.417000       1.00800           0
     19194 TIP3     2670     TIP3     H2       HT       0.417000       1.00800           0
     19195 TIP3     2671     TIP3     OH2      OT      -0.834000       15.9994           0
     19196 TIP3     2671     TIP3     H1       HT       0.417000       1.00800           0
     19197 TIP3     2671     TIP3     H2       HT       0.417000       1.00800           0
     19198 TIP3     2672     TIP3     OH2      OT      -0.834000       15.9994           0
     19199 TIP3     2672     TIP3     H1       HT       0.417000       1.00800           0
     19200 TIP3     2672     TIP3     H2       HT       0.417000       1.00800           0
     19201 TIP3     2673     TIP3     OH2      OT      -0.834000       15.9994           0
     19202 TIP3     2673     TIP3     H1       HT       0.417000       1.00800           0
     19203 TIP3     2673     TIP3     H2       HT       0.417000       1.00800           0
     19204 TIP3     2674     TIP3     OH2      OT      -0.834000       15.9994           0
     19205 TIP3     2674     TIP3     H1       HT       0.417000       1.00800           0
     19206 TIP3     2674     TIP3     H2       HT       0.417000       1.00800           0
     19207 TIP3     2675     TIP3     OH2      OT      -0.834000       15.9994           0
     19208 TIP3     2675     TIP3     H1       HT       0.417000       1.00800           0
     19209 TIP3     2675     TIP3     H2       HT       0.417000       1.00800           0
     19210 TIP3     2676     TIP3     OH2      OT      -0.834000       15.9994           0
     19211 TIP3     2676     TIP3     H1       HT       0.417000       1.00800           0
     19212 TIP3     2676     TIP3     H2       HT       0.417000       1.00800           0
     19213 TIP3     2677     TIP3     OH2      OT      -0.834000       15.9994           0
     19214 TIP3     2677     TIP3     H1       HT       0.417000       1.00800           0
     19215 TIP3     2677     TIP3     H2       HT       0.417000       1.00800           0
     19216 TIP3     2678     TIP3     OH2      OT      -0.834000       15.9994           0
     19217 TIP3     2678     TIP3     H1       HT       0.417000       1.00800           0
     19218 TIP3     2678     TIP3     H2       HT       0.417000       1.00800           0
     19219 TIP3     2679     TIP3     OH2      OT      -0.834000       15.9994           0
     19220 TIP3     2679     TIP3     H1       HT       0.417000       1.00800           0
     19221 TIP3     2679     TIP3     H2       HT       0.417000       1.00800           0
     19222 TIP3     2680     TIP3     OH2      OT      -0.834000       15.9994           0
     19223 TIP3     2680     TIP3     H1       HT       0.417000       1.00800           0
     19224 TIP3     2680     TIP3     H2       HT       0.417000       1.00800           0
     19225 TIP3     2681     TIP3     OH2      OT      -0.834000       15.9994           0
     19226 TIP3     2681     TIP3     H1       HT       0.417000       1.00800           0
     19227 TIP3     2681     TIP3     H2       HT       0.417000       1.00800           0
     19228 TIP3     2682     TIP3     OH2      OT      -0.834000       15.9994           0
     19229 TIP3     2682     TIP3     H1       HT       0.417000       1.00800           0
     19230 TIP3     2682     TIP3     H2       HT       0.417000       1.00800           0
     19231 TIP3     2683     TIP3     OH2      OT      -0.834000       15.9994           0
     19232 TIP3     2683     TIP3     H1       HT       0.417000       1.00800           0
     19233 TIP3     2683     TIP3     H2       HT       0.417000       1.00800           0
     19234 TIP3     2684     TIP3     OH2      OT      -0.834000       15.9994           0
     19235 TIP3     2684     TIP3     H1       HT       0.417000       1.00800           0
     19236 TIP3     2684     TIP3     H2       HT       0.417000       1.00800           0
     19237 TIP3     2685     TIP3     OH2      OT      -0.834000       15.9994           0
     19238 TIP3     2685     TIP3     H1       HT       0.417000       1.00800           0
     19239 TIP3     2685     TIP3     H2       HT       0.417000       1.00800           0
     19240 TIP3     2686     TIP3     OH2      OT      -0.834000       15.9994           0
     19241 TIP3     2686     TIP3     H1       HT       0.417000       1.00800           0
     19242 TIP3     2686     TIP3     H2       HT       0.417000       1.00800           0
     19243 TIP3     2687     TIP3     OH2      OT      -0.834000       15.9994           0
     19244 TIP3     2687     TIP3     H1       HT       0.417000       1.00800           0
     19245 TIP3     2687     TIP3     H2       HT       0.417000       1.00800           0
     19246 TIP3     2688     TIP3     OH2      OT      -0.834000       15.9994           0
     19247 TIP3     2688     TIP3     H1       HT       0.417000       1.00800           0
     19248 TIP3     2688     TIP3     H2       HT       0.417000       1.00800           0
     19249 TIP3     2689     TIP3     OH2      OT      -0.834000       15.9994           0
     19250 TIP3     2689     TIP3     H1       HT       0.417000       1.00800           0
     19251 TIP3     2689     TIP3     H2       HT       0.417000       1.00800           0
     19252 TIP3     2690     TIP3     OH2      OT      -0.834000       15.9994           0
     19253 TIP3     2690     TIP3     H1       HT       0.417000       1.00800           0
     19254 TIP3     2690     TIP3     H2       HT       0.417000       1.00800           0
     19255 TIP3     2691     TIP3     OH2      OT      -0.834000       15.9994           0
     19256 TIP3     2691     TIP3     H1       HT       0.417000       1.00800           0
     19257 TIP3     2691     TIP3     H2       HT       0.417000       1.00800           0
     19258 TIP3     2692     TIP3     OH2      OT      -0.834000       15.9994           0
     19259 TIP3     2692     TIP3     H1       HT       0.417000       1.00800           0
     19260 TIP3     2692     TIP3     H2       HT       0.417000       1.00800           0
     19261 TIP3     2693     TIP3     OH2      OT      -0.834000       15.9994           0
     19262 TIP3     2693     TIP3     H1       HT       0.417000       1.00800           0
     19263 TIP3     2693     TIP3     H2       HT       0.417000       1.00800           0
     19264 TIP3     2694     TIP3     OH2      OT      -0.834000       15.9994           0
     19265 TIP3     2694     TIP3     H1       HT       0.417000       1.00800           0
     19266 TIP3     2694     TIP3     H2       HT       0.417000       1.00800           0
     19267 TIP3     2695     TIP3     OH2      OT      -0.834000       15.9994           0
     19268 TIP3     2695     TIP3     H1       HT       0.417000       1.00800           0
     19269 TIP3     2695     TIP3     H2       HT       0.417000       1.00800           0
     19270 TIP3     2696     TIP3     OH2      OT      -0.834000       15.9994           0
     19271 TIP3     2696     TIP3     H1       HT       0.417000       1.00800           0
     19272 TIP3     2696     TIP3     H2       HT       0.417000       1.00800           0
     19273 TIP3     2697     TIP3     OH2      OT      -0.834000       15.9994           0
     19274 TIP3     2697     TIP3     H1       HT       0.417000       1.00800           0
     19275 TIP3     2697     TIP3     H2       HT       0.417000       1.00800           0
     19276 TIP3     2698     TIP3     OH2      OT      -0.834000       15.9994           0
     19277 TIP3     2698     TIP3     H1       HT       0.417000       1.00800           0
     19278 TIP3     2698     TIP3     H2       HT       0.417000       1.00800           0
     19279 TIP3     2699     TIP3     OH2      OT      -0.834000       15.9994           0
     19280 TIP3     2699     TIP3     H1       HT       0.417000       1.00800           0
     19281 TIP3     2699     TIP3     H2       HT       0.417000       1.00800           0
     19282 TIP3     2700     TIP3     OH2      OT      -0.834000       15.9994           0
     19283 TIP3     2700     TIP3     H1       HT       0.417000       1.00800           0
     19284 TIP3     2700     TIP3     H2       HT       0.417000       1.00800           0
     19285 TIP3     2701     TIP3     OH2      OT      -0.834000       15.9994           0
     19286 TIP3     2701     TIP3     H1       HT       0.417000       1.00800           0
     19287 TIP3     2701     TIP3     H2       HT       0.417000       1.00800           0
     19288 TIP3     2702     TIP3     OH2      OT      -0.834000       15.9994           0
     19289 TIP3     2702     TIP3     H1       HT       0.417000       1.00800           0
     19290 TIP3     2702     TIP3     H2       HT       0.417000       1.00800           0
     19291 TIP3     2703     TIP3     OH2      OT      -0.834000       15.9994           0
     19292 TIP3     2703     TIP3     H1       HT       0.417000       1.00800           0
     19293 TIP3     2703     TIP3     H2       HT       0.417000       1.00800           0
     19294 TIP3     2704     TIP3     OH2      OT      -0.834000       15.9994           0
     19295 TIP3     2704     TIP3     H1       HT       0.417000       1.00800           0
     19296 TIP3     2704     TIP3     H2       HT       0.417000       1.00800           0
     19297 TIP3     2705     TIP3     OH2      OT      -0.834000       15.9994           0
     19298 TIP3     2705     TIP3     H1       HT       0.417000       1.00800           0
     19299 TIP3     2705     TIP3     H2       HT       0.417000       1.00800           0
     19300 TIP3     2706     TIP3     OH2      OT      -0.834000       15.9994           0
     19301 TIP3     2706     TIP3     H1       HT       0.417000       1.00800           0
     19302 TIP3     2706     TIP3     H2       HT       0.417000       1.00800           0
     19303 TIP3     2707     TIP3     OH2      OT      -0.834000       15.9994           0
     19304 TIP3     2707     TIP3     H1       HT       0.417000       1.00800           0
     19305 TIP3     2707     TIP3     H2       HT       0.417000       1.00800           0
     19306 TIP3     2708     TIP3     OH2      OT      -0.834000       15.9994           0
     19307 TIP3     2708     TIP3     H1       HT       0.417000       1.00800           0
     19308 TIP3     2708     TIP3     H2       HT       0.417000       1.00800           0
     19309 TIP3     2709     TIP3     OH2      OT      -0.834000       15.9994           0
     19310 TIP3     2709     TIP3     H1       HT       0.417000       1.00800           0
     19311 TIP3     2709     TIP3     H2       HT       0.417000       1.00800           0
     19312 TIP3     2710     TIP3     OH2      OT      -0.834000       15.9994           0
     19313 TIP3     2710     TIP3     H1       HT       0.417000       1.00800           0
     19314 TIP3     2710     TIP3     H2       HT       0.417000       1.00800           0
     19315 TIP3     2711     TIP3     OH2      OT      -0.834000       15.9994           0
     19316 TIP3     2711     TIP3     H1       HT       0.417000       1.00800           0
     19317 TIP3     2711     TIP3     H2       HT       0.417000       1.00800           0
     19318 TIP3     2712     TIP3     OH2      OT      -0.834000       15.9994           0
     19319 TIP3     2712     TIP3     H1       HT       0.417000       1.00800           0
     19320 TIP3     2712     TIP3     H2       HT       0.417000       1.00800           0
     19321 TIP3     2713     TIP3     OH2      OT      -0.834000       15.9994           0
     19322 TIP3     2713     TIP3     H1       HT       0.417000       1.00800           0
     19323 TIP3     2713     TIP3     H2       HT       0.417000       1.00800           0
     19324 TIP3     2714     TIP3     OH2      OT      -0.834000       15.9994           0
     19325 TIP3     2714     TIP3     H1       HT       0.417000       1.00800           0
     19326 TIP3     2714     TIP3     H2       HT       0.417000       1.00800           0
     19327 TIP3     2715     TIP3     OH2      OT      -0.834000       15.9994           0
     19328 TIP3     2715     TIP3     H1       HT       0.417000       1.00800           0
     19329 TIP3     2715     TIP3     H2       HT       0.417000       1.00800           0
     19330 TIP3     2716     TIP3     OH2      OT      -0.834000       15.9994           0
     19331 TIP3     2716     TIP3     H1       HT       0.417000       1.00800           0
     19332 TIP3     2716     TIP3     H2       HT       0.417000       1.00800           0
     19333 TIP3     2717     TIP3     OH2      OT      -0.834000       15.9994           0
     19334 TIP3     2717     TIP3     H1       HT       0.417000       1.00800           0
     19335 TIP3     2717     TIP3     H2       HT       0.417000       1.00800           0
     19336 TIP3     2718     TIP3     OH2      OT      -0.834000       15.9994           0
     19337 TIP3     2718     TIP3     H1       HT       0.417000       1.00800           0
     19338 TIP3     2718     TIP3     H2       HT       0.417000       1.00800           0
     19339 TIP3     2719     TIP3     OH2      OT      -0.834000       15.9994           0
     19340 TIP3     2719     TIP3     H1       HT       0.417000       1.00800           0
     19341 TIP3     2719     TIP3     H2       HT       0.417000       1.00800           0
     19342 TIP3     2720     TIP3     OH2      OT      -0.834000       15.9994           0
     19343 TIP3     2720     TIP3     H1       HT       0.417000       1.00800           0
     19344 TIP3     2720     TIP3     H2       HT       0.417000       1.00800           0
     19345 TIP3     2721     TIP3     OH2      OT      -0.834000       15.9994           0
     19346 TIP3     2721     TIP3     H1       HT       0.417000       1.00800           0
     19347 TIP3     2721     TIP3     H2       HT       0.417000       1.00800           0
     19348 TIP3     2722     TIP3     OH2      OT      -0.834000       15.9994           0
     19349 TIP3     2722     TIP3     H1       HT       0.417000       1.00800           0
     19350 TIP3     2722     TIP3     H2       HT       0.417000       1.00800           0
     19351 TIP3     2723     TIP3     OH2      OT      -0.834000       15.9994           0
     19352 TIP3     2723     TIP3     H1       HT       0.417000       1.00800           0
     19353 TIP3     2723     TIP3     H2       HT       0.417000       1.00800           0
     19354 TIP3     2724     TIP3     OH2      OT      -0.834000       15.9994           0
     19355 TIP3     2724     TIP3     H1       HT       0.417000       1.00800           0
     19356 TIP3     2724     TIP3     H2       HT       0.417000       1.00800           0
     19357 TIP3     2725     TIP3     OH2      OT      -0.834000       15.9994           0
     19358 TIP3     2725     TIP3     H1       HT       0.417000       1.00800           0
     19359 TIP3     2725     TIP3     H2       HT       0.417000       1.00800           0
     19360 TIP3     2726     TIP3     OH2      OT      -0.834000       15.9994           0
     19361 TIP3     2726     TIP3     H1       HT       0.417000       1.00800           0
     19362 TIP3     2726     TIP3     H2       HT       0.417000       1.00800           0
     19363 TIP3     2727     TIP3     OH2      OT      -0.834000       15.9994           0
     19364 TIP3     2727     TIP3     H1       HT       0.417000       1.00800           0
     19365 TIP3     2727     TIP3     H2       HT       0.417000       1.00800           0
     19366 TIP3     2728     TIP3     OH2      OT      -0.834000       15.9994           0
     19367 TIP3     2728     TIP3     H1       HT       0.417000       1.00800           0
     19368 TIP3     2728     TIP3     H2       HT       0.417000       1.00800           0
     19369 TIP3     2729     TIP3     OH2      OT      -0.834000       15.9994           0
     19370 TIP3     2729     TIP3     H1       HT       0.417000       1.00800           0
     19371 TIP3     2729     TIP3     H2       HT       0.417000       1.00800           0
     19372 TIP3     2730     TIP3     OH2      OT      -0.834000       15.9994           0
     19373 TIP3     2730     TIP3     H1       HT       0.417000       1.00800           0
     19374 TIP3     2730     TIP3     H2       HT       0.417000       1.00800           0
     19375 TIP3     2731     TIP3     OH2      OT      -0.834000       15.9994           0
     19376 TIP3     2731     TIP3     H1       HT       0.417000       1.00800           0
     19377 TIP3     2731     TIP3     H2       HT       0.417000       1.00800           0
     19378 TIP3     2732     TIP3     OH2      OT      -0.834000       15.9994           0
     19379 TIP3     2732     TIP3     H1       HT       0.417000       1.00800           0
     19380 TIP3     2732     TIP3     H2       HT       0.417000       1.00800           0
     19381 TIP3     2733     TIP3     OH2      OT      -0.834000       15.9994           0
     19382 TIP3     2733     TIP3     H1       HT       0.417000       1.00800           0
     19383 TIP3     2733     TIP3     H2       HT       0.417000       1.00800           0
     19384 TIP3     2734     TIP3     OH2      OT      -0.834000       15.9994           0
     19385 TIP3     2734     TIP3     H1       HT       0.417000       1.00800           0
     19386 TIP3     2734     TIP3     H2       HT       0.417000       1.00800           0
     19387 TIP3     2735     TIP3     OH2      OT      -0.834000       15.9994           0
     19388 TIP3     2735     TIP3     H1       HT       0.417000       1.00800           0
     19389 TIP3     2735     TIP3     H2       HT       0.417000       1.00800           0
     19390 TIP3     2736     TIP3     OH2      OT      -0.834000       15.9994           0
     19391 TIP3     2736     TIP3     H1       HT       0.417000       1.00800           0
     19392 TIP3     2736     TIP3     H2       HT       0.417000       1.00800           0
     19393 TIP3     2737     TIP3     OH2      OT      -0.834000       15.9994           0
     19394 TIP3     2737     TIP3     H1       HT       0.417000       1.00800           0
     19395 TIP3     2737     TIP3     H2       HT       0.417000       1.00800           0
     19396 TIP3     2738     TIP3     OH2      OT      -0.834000       15.9994           0
     19397 TIP3     2738     TIP3     H1       HT       0.417000       1.00800           0
     19398 TIP3     2738     TIP3     H2       HT       0.417000       1.00800           0
     19399 TIP3     2739     TIP3     OH2      OT      -0.834000       15.9994           0
     19400 TIP3     2739     TIP3     H1       HT       0.417000       1.00800           0
     19401 TIP3     2739     TIP3     H2       HT       0.417000       1.00800           0
     19402 TIP3     2740     TIP3     OH2      OT      -0.834000       15.9994           0
     19403 TIP3     2740     TIP3     H1       HT       0.417000       1.00800           0
     19404 TIP3     2740     TIP3     H2       HT       0.417000       1.00800           0
     19405 TIP3     2741     TIP3     OH2      OT      -0.834000       15.9994           0
     19406 TIP3     2741     TIP3     H1       HT       0.417000       1.00800           0
     19407 TIP3     2741     TIP3     H2       HT       0.417000       1.00800           0
     19408 TIP3     2742     TIP3     OH2      OT      -0.834000       15.9994           0
     19409 TIP3     2742     TIP3     H1       HT       0.417000       1.00800           0
     19410 TIP3     2742     TIP3     H2       HT       0.417000       1.00800           0
     19411 TIP3     2743     TIP3     OH2      OT      -0.834000       15.9994           0
     19412 TIP3     2743     TIP3     H1       HT       0.417000       1.00800           0
     19413 TIP3     2743     TIP3     H2       HT       0.417000       1.00800           0
     19414 TIP3     2744     TIP3     OH2      OT      -0.834000       15.9994           0
     19415 TIP3     2744     TIP3     H1       HT       0.417000       1.00800           0
     19416 TIP3     2744     TIP3     H2       HT       0.417000       1.00800           0
     19417 TIP3     2745     TIP3     OH2      OT      -0.834000       15.9994           0
     19418 TIP3     2745     TIP3     H1       HT       0.417000       1.00800           0
     19419 TIP3     2745     TIP3     H2       HT       0.417000       1.00800           0
     19420 TIP3     2746     TIP3     OH2      OT      -0.834000       15.9994           0
     19421 TIP3     2746     TIP3     H1       HT       0.417000       1.00800           0
     19422 TIP3     2746     TIP3     H2       HT       0.417000       1.00800           0
     19423 TIP3     2747     TIP3     OH2      OT      -0.834000       15.9994           0
     19424 TIP3     2747     TIP3     H1       HT       0.417000       1.00800           0
     19425 TIP3     2747     TIP3     H2       HT       0.417000       1.00800           0
     19426 TIP3     2748     TIP3     OH2      OT      -0.834000       15.9994           0
     19427 TIP3     2748     TIP3     H1       HT       0.417000       1.00800           0
     19428 TIP3     2748     TIP3     H2       HT       0.417000       1.00800           0
     19429 TIP3     2749     TIP3     OH2      OT      -0.834000       15.9994           0
     19430 TIP3     2749     TIP3     H1       HT       0.417000       1.00800           0
     19431 TIP3     2749     TIP3     H2       HT       0.417000       1.00800           0
     19432 TIP3     2750     TIP3     OH2      OT      -0.834000       15.9994           0
     19433 TIP3     2750     TIP3     H1       HT       0.417000       1.00800           0
     19434 TIP3     2750     TIP3     H2       HT       0.417000       1.00800           0
     19435 TIP3     2751     TIP3     OH2      OT      -0.834000       15.9994           0
     19436 TIP3     2751     TIP3     H1       HT       0.417000       1.00800           0
     19437 TIP3     2751     TIP3     H2       HT       0.417000       1.00800           0
     19438 TIP3     2752     TIP3     OH2      OT      -0.834000       15.9994           0
     19439 TIP3     2752     TIP3     H1       HT       0.417000       1.00800           0
     19440 TIP3     2752     TIP3     H2       HT       0.417000       1.00800           0
     19441 TIP3     2753     TIP3     OH2      OT      -0.834000       15.9994           0
     19442 TIP3     2753     TIP3     H1       HT       0.417000       1.00800           0
     19443 TIP3     2753     TIP3     H2       HT       0.417000       1.00800           0
     19444 TIP3     2754     TIP3     OH2      OT      -0.834000       15.9994           0
     19445 TIP3     2754     TIP3     H1       HT       0.417000       1.00800           0
     19446 TIP3     2754     TIP3     H2       HT       0.417000       1.00800           0
     19447 TIP3     2755     TIP3     OH2      OT      -0.834000       15.9994           0
     19448 TIP3     2755     TIP3     H1       HT       0.417000       1.00800           0
     19449 TIP3     2755     TIP3     H2       HT       0.417000       1.00800           0
     19450 TIP3     2756     TIP3     OH2      OT      -0.834000       15.9994           0
     19451 TIP3     2756     TIP3     H1       HT       0.417000       1.00800           0
     19452 TIP3     2756     TIP3     H2       HT       0.417000       1.00800           0
     19453 TIP3     2757     TIP3     OH2      OT      -0.834000       15.9994           0
     19454 TIP3     2757     TIP3     H1       HT       0.417000       1.00800           0
     19455 TIP3     2757     TIP3     H2       HT       0.417000       1.00800           0
     19456 TIP3     2758     TIP3     OH2      OT      -0.834000       15.9994           0
     19457 TIP3     2758     TIP3     H1       HT       0.417000       1.00800           0
     19458 TIP3     2758     TIP3     H2       HT       0.417000       1.00800           0
     19459 TIP3     2759     TIP3     OH2      OT      -0.834000       15.9994           0
     19460 TIP3     2759     TIP3     H1       HT       0.417000       1.00800           0
     19461 TIP3     2759     TIP3     H2       HT       0.417000       1.00800           0
     19462 TIP3     2760     TIP3     OH2      OT      -0.834000       15.9994           0
     19463 TIP3     2760     TIP3     H1       HT       0.417000       1.00800           0
     19464 TIP3     2760     TIP3     H2       HT       0.417000       1.00800           0
     19465 TIP3     2761     TIP3     OH2      OT      -0.834000       15.9994           0
     19466 TIP3     2761     TIP3     H1       HT       0.417000       1.00800           0
     19467 TIP3     2761     TIP3     H2       HT       0.417000       1.00800           0
     19468 TIP3     2762     TIP3     OH2      OT      -0.834000       15.9994           0
     19469 TIP3     2762     TIP3     H1       HT       0.417000       1.00800           0
     19470 TIP3     2762     TIP3     H2       HT       0.417000       1.00800           0
     19471 TIP3     2763     TIP3     OH2      OT      -0.834000       15.9994           0
     19472 TIP3     2763     TIP3     H1       HT       0.417000       1.00800           0
     19473 TIP3     2763     TIP3     H2       HT       0.417000       1.00800           0
     19474 TIP3     2764     TIP3     OH2      OT      -0.834000       15.9994           0
     19475 TIP3     2764     TIP3     H1       HT       0.417000       1.00800           0
     19476 TIP3     2764     TIP3     H2       HT       0.417000       1.00800           0
     19477 TIP3     2765     TIP3     OH2      OT      -0.834000       15.9994           0
     19478 TIP3     2765     TIP3     H1       HT       0.417000       1.00800           0
     19479 TIP3     2765     TIP3     H2       HT       0.417000       1.00800           0
     19480 TIP3     2766     TIP3     OH2      OT      -0.834000       15.9994           0
     19481 TIP3     2766     TIP3     H1       HT       0.417000       1.00800           0
     19482 TIP3     2766     TIP3     H2       HT       0.417000       1.00800           0
     19483 TIP3     2767     TIP3     OH2      OT      -0.834000       15.9994           0
     19484 TIP3     2767     TIP3     H1       HT       0.417000       1.00800           0
     19485 TIP3     2767     TIP3     H2       HT       0.417000       1.00800           0
     19486 TIP3     2768     TIP3     OH2      OT      -0.834000       15.9994           0
     19487 TIP3     2768     TIP3     H1       HT       0.417000       1.00800           0
     19488 TIP3     2768     TIP3     H2       HT       0.417000       1.00800           0
     19489 TIP3     2769     TIP3     OH2      OT      -0.834000       15.9994           0
     19490 TIP3     2769     TIP3     H1       HT       0.417000       1.00800           0
     19491 TIP3     2769     TIP3     H2       HT       0.417000       1.00800           0
     19492 TIP3     2770     TIP3     OH2      OT      -0.834000       15.9994           0
     19493 TIP3     2770     TIP3     H1       HT       0.417000       1.00800           0
     19494 TIP3     2770     TIP3     H2       HT       0.417000       1.00800           0
     19495 TIP3     2771     TIP3     OH2      OT      -0.834000       15.9994           0
     19496 TIP3     2771     TIP3     H1       HT       0.417000       1.00800           0
     19497 TIP3     2771     TIP3     H2       HT       0.417000       1.00800           0
     19498 TIP3     2772     TIP3     OH2      OT      -0.834000       15.9994           0
     19499 TIP3     2772     TIP3     H1       HT       0.417000       1.00800           0
     19500 TIP3     2772     TIP3     H2       HT       0.417000       1.00800           0
     19501 TIP3     2773     TIP3     OH2      OT      -0.834000       15.9994           0
     19502 TIP3     2773     TIP3     H1       HT       0.417000       1.00800           0
     19503 TIP3     2773     TIP3     H2       HT       0.417000       1.00800           0
     19504 TIP3     2774     TIP3     OH2      OT      -0.834000       15.9994           0
     19505 TIP3     2774     TIP3     H1       HT       0.417000       1.00800           0
     19506 TIP3     2774     TIP3     H2       HT       0.417000       1.00800           0
     19507 TIP3     2775     TIP3     OH2      OT      -0.834000       15.9994           0
     19508 TIP3     2775     TIP3     H1       HT       0.417000       1.00800           0
     19509 TIP3     2775     TIP3     H2       HT       0.417000       1.00800           0
     19510 TIP3     2776     TIP3     OH2      OT      -0.834000       15.9994           0
     19511 TIP3     2776     TIP3     H1       HT       0.417000       1.00800           0
     19512 TIP3     2776     TIP3     H2       HT       0.417000       1.00800           0
     19513 TIP3     2777     TIP3     OH2      OT      -0.834000       15.9994           0
     19514 TIP3     2777     TIP3     H1       HT       0.417000       1.00800           0
     19515 TIP3     2777     TIP3     H2       HT       0.417000       1.00800           0
     19516 TIP3     2778     TIP3     OH2      OT      -0.834000       15.9994           0
     19517 TIP3     2778     TIP3     H1       HT       0.417000       1.00800           0
     19518 TIP3     2778     TIP3     H2       HT       0.417000       1.00800           0
     19519 TIP3     2779     TIP3     OH2      OT      -0.834000       15.9994           0
     19520 TIP3     2779     TIP3     H1       HT       0.417000       1.00800           0
     19521 TIP3     2779     TIP3     H2       HT       0.417000       1.00800           0
     19522 TIP3     2780     TIP3     OH2      OT      -0.834000       15.9994           0
     19523 TIP3     2780     TIP3     H1       HT       0.417000       1.00800           0
     19524 TIP3     2780     TIP3     H2       HT       0.417000       1.00800           0
     19525 TIP3     2781     TIP3     OH2      OT      -0.834000       15.9994           0
     19526 TIP3     2781     TIP3     H1       HT       0.417000       1.00800           0
     19527 TIP3     2781     TIP3     H2       HT       0.417000       1.00800           0
     19528 TIP3     2782     TIP3     OH2      OT      -0.834000       15.9994           0
     19529 TIP3     2782     TIP3     H1       HT       0.417000       1.00800           0
     19530 TIP3     2782     TIP3     H2       HT       0.417000       1.00800           0
     19531 TIP3     2783     TIP3     OH2      OT      -0.834000       15.9994           0
     19532 TIP3     2783     TIP3     H1       HT       0.417000       1.00800           0
     19533 TIP3     2783     TIP3     H2       HT       0.417000       1.00800           0
     19534 TIP3     2784     TIP3     OH2      OT      -0.834000       15.9994           0
     19535 TIP3     2784     TIP3     H1       HT       0.417000       1.00800           0
     19536 TIP3     2784     TIP3     H2       HT       0.417000       1.00800           0
     19537 TIP3     2785     TIP3     OH2      OT      -0.834000       15.9994           0
     19538 TIP3     2785     TIP3     H1       HT       0.417000       1.00800           0
     19539 TIP3     2785     TIP3     H2       HT       0.417000       1.00800           0
     19540 TIP3     2786     TIP3     OH2      OT      -0.834000       15.9994           0
     19541 TIP3     2786     TIP3     H1       HT       0.417000       1.00800           0
     19542 TIP3     2786     TIP3     H2       HT       0.417000       1.00800           0
     19543 TIP3     2787     TIP3     OH2      OT      -0.834000       15.9994           0
     19544 TIP3     2787     TIP3     H1       HT       0.417000       1.00800           0
     19545 TIP3     2787     TIP3     H2       HT       0.417000       1.00800           0
     19546 TIP3     2788     TIP3     OH2      OT      -0.834000       15.9994           0
     19547 TIP3     2788     TIP3     H1       HT       0.417000       1.00800           0
     19548 TIP3     2788     TIP3     H2       HT       0.417000       1.00800           0
     19549 TIP3     2789     TIP3     OH2      OT      -0.834000       15.9994           0
     19550 TIP3     2789     TIP3     H1       HT       0.417000       1.00800           0
     19551 TIP3     2789     TIP3     H2       HT       0.417000       1.00800           0
     19552 TIP3     2790     TIP3     OH2      OT      -0.834000       15.9994           0
     19553 TIP3     2790     TIP3     H1       HT       0.417000       1.00800           0
     19554 TIP3     2790     TIP3     H2       HT       0.417000       1.00800           0
     19555 TIP3     2791     TIP3     OH2      OT      -0.834000       15.9994           0
     19556 TIP3     2791     TIP3     H1       HT       0.417000       1.00800           0
     19557 TIP3     2791     TIP3     H2       HT       0.417000       1.00800           0
     19558 TIP3     2792     TIP3     OH2      OT      -0.834000       15.9994           0
     19559 TIP3     2792     TIP3     H1       HT       0.417000       1.00800           0
     19560 TIP3     2792     TIP3     H2       HT       0.417000       1.00800           0
     19561 TIP3     2793     TIP3     OH2      OT      -0.834000       15.9994           0
     19562 TIP3     2793     TIP3     H1       HT       0.417000       1.00800           0
     19563 TIP3     2793     TIP3     H2       HT       0.417000       1.00800           0
     19564 TIP3     2794     TIP3     OH2      OT      -0.834000       15.9994           0
     19565 TIP3     2794     TIP3     H1       HT       0.417000       1.00800           0
     19566 TIP3     2794     TIP3     H2       HT       0.417000       1.00800           0
     19567 TIP3     2795     TIP3     OH2      OT      -0.834000       15.9994           0
     19568 TIP3     2795     TIP3     H1       HT       0.417000       1.00800           0
     19569 TIP3     2795     TIP3     H2       HT       0.417000       1.00800           0
     19570 TIP3     2796     TIP3     OH2      OT      -0.834000       15.9994           0
     19571 TIP3     2796     TIP3     H1       HT       0.417000       1.00800           0
     19572 TIP3     2796     TIP3     H2       HT       0.417000       1.00800           0
     19573 TIP3     2797     TIP3     OH2      OT      -0.834000       15.9994           0
     19574 TIP3     2797     TIP3     H1       HT       0.417000       1.00800           0
     19575 TIP3     2797     TIP3     H2       HT       0.417000       1.00800           0
     19576 TIP3     2798     TIP3     OH2      OT      -0.834000       15.9994           0
     19577 TIP3     2798     TIP3     H1       HT       0.417000       1.00800           0
     19578 TIP3     2798     TIP3     H2       HT       0.417000       1.00800           0
     19579 TIP3     2799     TIP3     OH2      OT      -0.834000       15.9994           0
     19580 TIP3     2799     TIP3     H1       HT       0.417000       1.00800           0
     19581 TIP3     2799     TIP3     H2       HT       0.417000       1.00800           0
     19582 TIP3     2800     TIP3     OH2      OT      -0.834000       15.9994           0
     19583 TIP3     2800     TIP3     H1       HT       0.417000       1.00800           0
     19584 TIP3     2800     TIP3     H2       HT       0.417000       1.00800           0
     19585 TIP3     2801     TIP3     OH2      OT      -0.834000       15.9994           0
     19586 TIP3     2801     TIP3     H1       HT       0.417000       1.00800           0
     19587 TIP3     2801     TIP3     H2       HT       0.417000       1.00800           0
     19588 TIP3     2802     TIP3     OH2      OT      -0.834000       15.9994           0
     19589 TIP3     2802     TIP3     H1       HT       0.417000       1.00800           0
     19590 TIP3     2802     TIP3     H2       HT       0.417000       1.00800           0
     19591 TIP3     2803     TIP3     OH2      OT      -0.834000       15.9994           0
     19592 TIP3     2803     TIP3     H1       HT       0.417000       1.00800           0
     19593 TIP3     2803     TIP3     H2       HT       0.417000       1.00800           0
     19594 TIP3     2804     TIP3     OH2      OT      -0.834000       15.9994           0
     19595 TIP3     2804     TIP3     H1       HT       0.417000       1.00800           0
     19596 TIP3     2804     TIP3     H2       HT       0.417000       1.00800           0
     19597 TIP3     2805     TIP3     OH2      OT      -0.834000       15.9994           0
     19598 TIP3     2805     TIP3     H1       HT       0.417000       1.00800           0
     19599 TIP3     2805     TIP3     H2       HT       0.417000       1.00800           0
     19600 TIP3     2806     TIP3     OH2      OT      -0.834000       15.9994           0
     19601 TIP3     2806     TIP3     H1       HT       0.417000       1.00800           0
     19602 TIP3     2806     TIP3     H2       HT       0.417000       1.00800           0
     19603 TIP3     2807     TIP3     OH2      OT      -0.834000       15.9994           0
     19604 TIP3     2807     TIP3     H1       HT       0.417000       1.00800           0
     19605 TIP3     2807     TIP3     H2       HT       0.417000       1.00800           0
     19606 TIP3     2808     TIP3     OH2      OT      -0.834000       15.9994           0
     19607 TIP3     2808     TIP3     H1       HT       0.417000       1.00800           0
     19608 TIP3     2808     TIP3     H2       HT       0.417000       1.00800           0
     19609 TIP3     2809     TIP3     OH2      OT      -0.834000       15.9994           0
     19610 TIP3     2809     TIP3     H1       HT       0.417000       1.00800           0
     19611 TIP3     2809     TIP3     H2       HT       0.417000       1.00800           0
     19612 TIP3     2810     TIP3     OH2      OT      -0.834000       15.9994           0
     19613 TIP3     2810     TIP3     H1       HT       0.417000       1.00800           0
     19614 TIP3     2810     TIP3     H2       HT       0.417000       1.00800           0
     19615 TIP3     2811     TIP3     OH2      OT      -0.834000       15.9994           0
     19616 TIP3     2811     TIP3     H1       HT       0.417000       1.00800           0
     19617 TIP3     2811     TIP3     H2       HT       0.417000       1.00800           0
     19618 TIP3     2812     TIP3     OH2      OT      -0.834000       15.9994           0
     19619 TIP3     2812     TIP3     H1       HT       0.417000       1.00800           0
     19620 TIP3     2812     TIP3     H2       HT       0.417000       1.00800           0
     19621 TIP3     2813     TIP3     OH2      OT      -0.834000       15.9994           0
     19622 TIP3     2813     TIP3     H1       HT       0.417000       1.00800           0
     19623 TIP3     2813     TIP3     H2       HT       0.417000       1.00800           0
     19624 TIP3     2814     TIP3     OH2      OT      -0.834000       15.9994           0
     19625 TIP3     2814     TIP3     H1       HT       0.417000       1.00800           0
     19626 TIP3     2814     TIP3     H2       HT       0.417000       1.00800           0
     19627 TIP3     2815     TIP3     OH2      OT      -0.834000       15.9994           0
     19628 TIP3     2815     TIP3     H1       HT       0.417000       1.00800           0
     19629 TIP3     2815     TIP3     H2       HT       0.417000       1.00800           0
     19630 TIP3     2816     TIP3     OH2      OT      -0.834000       15.9994           0
     19631 TIP3     2816     TIP3     H1       HT       0.417000       1.00800           0
     19632 TIP3     2816     TIP3     H2       HT       0.417000       1.00800           0
     19633 TIP3     2817     TIP3     OH2      OT      -0.834000       15.9994           0
     19634 TIP3     2817     TIP3     H1       HT       0.417000       1.00800           0
     19635 TIP3     2817     TIP3     H2       HT       0.417000       1.00800           0
     19636 TIP3     2818     TIP3     OH2      OT      -0.834000       15.9994           0
     19637 TIP3     2818     TIP3     H1       HT       0.417000       1.00800           0
     19638 TIP3     2818     TIP3     H2       HT       0.417000       1.00800           0
     19639 TIP3     2819     TIP3     OH2      OT      -0.834000       15.9994           0
     19640 TIP3     2819     TIP3     H1       HT       0.417000       1.00800           0
     19641 TIP3     2819     TIP3     H2       HT       0.417000       1.00800           0
     19642 TIP3     2820     TIP3     OH2      OT      -0.834000       15.9994           0
     19643 TIP3     2820     TIP3     H1       HT       0.417000       1.00800           0
     19644 TIP3     2820     TIP3     H2       HT       0.417000       1.00800           0
     19645 TIP3     2821     TIP3     OH2      OT      -0.834000       15.9994           0
     19646 TIP3     2821     TIP3     H1       HT       0.417000       1.00800           0
     19647 TIP3     2821     TIP3     H2       HT       0.417000       1.00800           0
     19648 TIP3     2822     TIP3     OH2      OT      -0.834000       15.9994           0
     19649 TIP3     2822     TIP3     H1       HT       0.417000       1.00800           0
     19650 TIP3     2822     TIP3     H2       HT       0.417000       1.00800           0
     19651 TIP3     2823     TIP3     OH2      OT      -0.834000       15.9994           0
     19652 TIP3     2823     TIP3     H1       HT       0.417000       1.00800           0
     19653 TIP3     2823     TIP3     H2       HT       0.417000       1.00800           0
     19654 TIP3     2824     TIP3     OH2      OT      -0.834000       15.9994           0
     19655 TIP3     2824     TIP3     H1       HT       0.417000       1.00800           0
     19656 TIP3     2824     TIP3     H2       HT       0.417000       1.00800           0
     19657 TIP3     2825     TIP3     OH2      OT      -0.834000       15.9994           0
     19658 TIP3     2825     TIP3     H1       HT       0.417000       1.00800           0
     19659 TIP3     2825     TIP3     H2       HT       0.417000       1.00800           0
     19660 TIP3     2826     TIP3     OH2      OT      -0.834000       15.9994           0
     19661 TIP3     2826     TIP3     H1       HT       0.417000       1.00800           0
     19662 TIP3     2826     TIP3     H2       HT       0.417000       1.00800           0
     19663 TIP3     2827     TIP3     OH2      OT      -0.834000       15.9994           0
     19664 TIP3     2827     TIP3     H1       HT       0.417000       1.00800           0
     19665 TIP3     2827     TIP3     H2       HT       0.417000       1.00800           0
     19666 TIP3     2828     TIP3     OH2      OT      -0.834000       15.9994           0
     19667 TIP3     2828     TIP3     H1       HT       0.417000       1.00800           0
     19668 TIP3     2828     TIP3     H2       HT       0.417000       1.00800           0
     19669 TIP3     2829     TIP3     OH2      OT      -0.834000       15.9994           0
     19670 TIP3     2829     TIP3     H1       HT       0.417000       1.00800           0
     19671 TIP3     2829     TIP3     H2       HT       0.417000       1.00800           0
     19672 TIP3     2830     TIP3     OH2      OT      -0.834000       15.9994           0
     19673 TIP3     2830     TIP3     H1       HT       0.417000       1.00800           0
     19674 TIP3     2830     TIP3     H2       HT       0.417000       1.00800           0
     19675 TIP3     2831     TIP3     OH2      OT      -0.834000       15.9994           0
     19676 TIP3     2831     TIP3     H1       HT       0.417000       1.00800           0
     19677 TIP3     2831     TIP3     H2       HT       0.417000       1.00800           0
     19678 TIP3     2832     TIP3     OH2      OT      -0.834000       15.9994           0
     19679 TIP3     2832     TIP3     H1       HT       0.417000       1.00800           0
     19680 TIP3     2832     TIP3     H2       HT       0.417000       1.00800           0
     19681 TIP3     2833     TIP3     OH2      OT      -0.834000       15.9994           0
     19682 TIP3     2833     TIP3     H1       HT       0.417000       1.00800           0
     19683 TIP3     2833     TIP3     H2       HT       0.417000       1.00800           0
     19684 TIP3     2834     TIP3     OH2      OT      -0.834000       15.9994           0
     19685 TIP3     2834     TIP3     H1       HT       0.417000       1.00800           0
     19686 TIP3     2834     TIP3     H2       HT       0.417000       1.00800           0
     19687 TIP3     2835     TIP3     OH2      OT      -0.834000       15.9994           0
     19688 TIP3     2835     TIP3     H1       HT       0.417000       1.00800           0
     19689 TIP3     2835     TIP3     H2       HT       0.417000       1.00800           0
     19690 TIP3     2836     TIP3     OH2      OT      -0.834000       15.9994           0
     19691 TIP3     2836     TIP3     H1       HT       0.417000       1.00800           0
     19692 TIP3     2836     TIP3     H2       HT       0.417000       1.00800           0
     19693 TIP3     2837     TIP3     OH2      OT      -0.834000       15.9994           0
     19694 TIP3     2837     TIP3     H1       HT       0.417000       1.00800           0
     19695 TIP3     2837     TIP3     H2       HT       0.417000       1.00800           0
     19696 TIP3     2838     TIP3     OH2      OT      -0.834000       15.9994           0
     19697 TIP3     2838     TIP3     H1       HT       0.417000       1.00800           0
     19698 TIP3     2838     TIP3     H2       HT       0.417000       1.00800           0
     19699 TIP3     2839     TIP3     OH2      OT      -0.834000       15.9994           0
     19700 TIP3     2839     TIP3     H1       HT       0.417000       1.00800           0
     19701 TIP3     2839     TIP3     H2       HT       0.417000       1.00800           0
     19702 TIP3     2840     TIP3     OH2      OT      -0.834000       15.9994           0
     19703 TIP3     2840     TIP3     H1       HT       0.417000       1.00800           0
     19704 TIP3     2840     TIP3     H2       HT       0.417000       1.00800           0
     19705 TIP3     2841     TIP3     OH2      OT      -0.834000       15.9994           0
     19706 TIP3     2841     TIP3     H1       HT       0.417000       1.00800           0
     19707 TIP3     2841     TIP3     H2       HT       0.417000       1.00800           0
     19708 TIP3     2842     TIP3     OH2      OT      -0.834000       15.9994           0
     19709 TIP3     2842     TIP3     H1       HT       0.417000       1.00800           0
     19710 TIP3     2842     TIP3     H2       HT       0.417000       1.00800           0
     19711 TIP3     2843     TIP3     OH2      OT      -0.834000       15.9994           0
     19712 TIP3     2843     TIP3     H1       HT       0.417000       1.00800           0
     19713 TIP3     2843     TIP3     H2       HT       0.417000       1.00800           0
     19714 TIP3     2844     TIP3     OH2      OT      -0.834000       15.9994           0
     19715 TIP3     2844     TIP3     H1       HT       0.417000       1.00800           0
     19716 TIP3     2844     TIP3     H2       HT       0.417000       1.00800           0
     19717 TIP3     2845     TIP3     OH2      OT      -0.834000       15.9994           0
     19718 TIP3     2845     TIP3     H1       HT       0.417000       1.00800           0
     19719 TIP3     2845     TIP3     H2       HT       0.417000       1.00800           0
     19720 TIP3     2846     TIP3     OH2      OT      -0.834000       15.9994           0
     19721 TIP3     2846     TIP3     H1       HT       0.417000       1.00800           0
     19722 TIP3     2846     TIP3     H2       HT       0.417000       1.00800           0
     19723 TIP3     2847     TIP3     OH2      OT      -0.834000       15.9994           0
     19724 TIP3     2847     TIP3     H1       HT       0.417000       1.00800           0
     19725 TIP3     2847     TIP3     H2       HT       0.417000       1.00800           0
     19726 TIP3     2848     TIP3     OH2      OT      -0.834000       15.9994           0
     19727 TIP3     2848     TIP3     H1       HT       0.417000       1.00800           0
     19728 TIP3     2848     TIP3     H2       HT       0.417000       1.00800           0
     19729 TIP3     2849     TIP3     OH2      OT      -0.834000       15.9994           0
     19730 TIP3     2849     TIP3     H1       HT       0.417000       1.00800           0
     19731 TIP3     2849     TIP3     H2       HT       0.417000       1.00800           0
     19732 TIP3     2850     TIP3     OH2      OT      -0.834000       15.9994           0
     19733 TIP3     2850     TIP3     H1       HT       0.417000       1.00800           0
     19734 TIP3     2850     TIP3     H2       HT       0.417000       1.00800           0
     19735 TIP3     2851     TIP3     OH2      OT      -0.834000       15.9994           0
     19736 TIP3     2851     TIP3     H1       HT       0.417000       1.00800           0
     19737 TIP3     2851     TIP3     H2       HT       0.417000       1.00800           0
     19738 TIP3     2852     TIP3     OH2      OT      -0.834000       15.9994           0
     19739 TIP3     2852     TIP3     H1       HT       0.417000       1.00800           0
     19740 TIP3     2852     TIP3     H2       HT       0.417000       1.00800           0
     19741 TIP3     2853     TIP3     OH2      OT      -0.834000       15.9994           0
     19742 TIP3     2853     TIP3     H1       HT       0.417000       1.00800           0
     19743 TIP3     2853     TIP3     H2       HT       0.417000       1.00800           0
     19744 TIP3     2854     TIP3     OH2      OT      -0.834000       15.9994           0
     19745 TIP3     2854     TIP3     H1       HT       0.417000       1.00800           0
     19746 TIP3     2854     TIP3     H2       HT       0.417000       1.00800           0
     19747 TIP3     2855     TIP3     OH2      OT      -0.834000       15.9994           0
     19748 TIP3     2855     TIP3     H1       HT       0.417000       1.00800           0
     19749 TIP3     2855     TIP3     H2       HT       0.417000       1.00800           0
     19750 TIP3     2856     TIP3     OH2      OT      -0.834000       15.9994           0
     19751 TIP3     2856     TIP3     H1       HT       0.417000       1.00800           0
     19752 TIP3     2856     TIP3     H2       HT       0.417000       1.00800           0
     19753 TIP3     2857     TIP3     OH2      OT      -0.834000       15.9994           0
     19754 TIP3     2857     TIP3     H1       HT       0.417000       1.00800           0
     19755 TIP3     2857     TIP3     H2       HT       0.417000       1.00800           0
     19756 TIP3     2858     TIP3     OH2      OT      -0.834000       15.9994           0
     19757 TIP3     2858     TIP3     H1       HT       0.417000       1.00800           0
     19758 TIP3     2858     TIP3     H2       HT       0.417000       1.00800           0
     19759 TIP3     2859     TIP3     OH2      OT      -0.834000       15.9994           0
     19760 TIP3     2859     TIP3     H1       HT       0.417000       1.00800           0
     19761 TIP3     2859     TIP3     H2       HT       0.417000       1.00800           0
     19762 TIP3     2860     TIP3     OH2      OT      -0.834000       15.9994           0
     19763 TIP3     2860     TIP3     H1       HT       0.417000       1.00800           0
     19764 TIP3     2860     TIP3     H2       HT       0.417000       1.00800           0
     19765 TIP3     2861     TIP3     OH2      OT      -0.834000       15.9994           0
     19766 TIP3     2861     TIP3     H1       HT       0.417000       1.00800           0
     19767 TIP3     2861     TIP3     H2       HT       0.417000       1.00800           0
     19768 TIP3     2862     TIP3     OH2      OT      -0.834000       15.9994           0
     19769 TIP3     2862     TIP3     H1       HT       0.417000       1.00800           0
     19770 TIP3     2862     TIP3     H2       HT       0.417000       1.00800           0
     19771 TIP3     2863     TIP3     OH2      OT      -0.834000       15.9994           0
     19772 TIP3     2863     TIP3     H1       HT       0.417000       1.00800           0
     19773 TIP3     2863     TIP3     H2       HT       0.417000       1.00800           0
     19774 TIP3     2864     TIP3     OH2      OT      -0.834000       15.9994           0
     19775 TIP3     2864     TIP3     H1       HT       0.417000       1.00800           0
     19776 TIP3     2864     TIP3     H2       HT       0.417000       1.00800           0
     19777 TIP3     2865     TIP3     OH2      OT      -0.834000       15.9994           0
     19778 TIP3     2865     TIP3     H1       HT       0.417000       1.00800           0
     19779 TIP3     2865     TIP3     H2       HT       0.417000       1.00800           0
     19780 TIP3     2866     TIP3     OH2      OT      -0.834000       15.9994           0
     19781 TIP3     2866     TIP3     H1       HT       0.417000       1.00800           0
     19782 TIP3     2866     TIP3     H2       HT       0.417000       1.00800           0
     19783 TIP3     2867     TIP3     OH2      OT      -0.834000       15.9994           0
     19784 TIP3     2867     TIP3     H1       HT       0.417000       1.00800           0
     19785 TIP3     2867     TIP3     H2       HT       0.417000       1.00800           0
     19786 TIP3     2868     TIP3     OH2      OT      -0.834000       15.9994           0
     19787 TIP3     2868     TIP3     H1       HT       0.417000       1.00800           0
     19788 TIP3     2868     TIP3     H2       HT       0.417000       1.00800           0
     19789 TIP3     2869     TIP3     OH2      OT      -0.834000       15.9994           0
     19790 TIP3     2869     TIP3     H1       HT       0.417000       1.00800           0
     19791 TIP3     2869     TIP3     H2       HT       0.417000       1.00800           0
     19792 TIP3     2870     TIP3     OH2      OT      -0.834000       15.9994           0
     19793 TIP3     2870     TIP3     H1       HT       0.417000       1.00800           0
     19794 TIP3     2870     TIP3     H2       HT       0.417000       1.00800           0
     19795 TIP3     2871     TIP3     OH2      OT      -0.834000       15.9994           0
     19796 TIP3     2871     TIP3     H1       HT       0.417000       1.00800           0
     19797 TIP3     2871     TIP3     H2       HT       0.417000       1.00800           0
     19798 TIP3     2872     TIP3     OH2      OT      -0.834000       15.9994           0
     19799 TIP3     2872     TIP3     H1       HT       0.417000       1.00800           0
     19800 TIP3     2872     TIP3     H2       HT       0.417000       1.00800           0
     19801 TIP3     2873     TIP3     OH2      OT      -0.834000       15.9994           0
     19802 TIP3     2873     TIP3     H1       HT       0.417000       1.00800           0
     19803 TIP3     2873     TIP3     H2       HT       0.417000       1.00800           0
     19804 TIP3     2874     TIP3     OH2      OT      -0.834000       15.9994           0
     19805 TIP3     2874     TIP3     H1       HT       0.417000       1.00800           0
     19806 TIP3     2874     TIP3     H2       HT       0.417000       1.00800           0
     19807 TIP3     2875     TIP3     OH2      OT      -0.834000       15.9994           0
     19808 TIP3     2875     TIP3     H1       HT       0.417000       1.00800           0
     19809 TIP3     2875     TIP3     H2       HT       0.417000       1.00800           0
     19810 TIP3     2876     TIP3     OH2      OT      -0.834000       15.9994           0
     19811 TIP3     2876     TIP3     H1       HT       0.417000       1.00800           0
     19812 TIP3     2876     TIP3     H2       HT       0.417000       1.00800           0
     19813 TIP3     2877     TIP3     OH2      OT      -0.834000       15.9994           0
     19814 TIP3     2877     TIP3     H1       HT       0.417000       1.00800           0
     19815 TIP3     2877     TIP3     H2       HT       0.417000       1.00800           0
     19816 TIP3     2878     TIP3     OH2      OT      -0.834000       15.9994           0
     19817 TIP3     2878     TIP3     H1       HT       0.417000       1.00800           0
     19818 TIP3     2878     TIP3     H2       HT       0.417000       1.00800           0
     19819 TIP3     2879     TIP3     OH2      OT      -0.834000       15.9994           0
     19820 TIP3     2879     TIP3     H1       HT       0.417000       1.00800           0
     19821 TIP3     2879     TIP3     H2       HT       0.417000       1.00800           0
     19822 TIP3     2880     TIP3     OH2      OT      -0.834000       15.9994           0
     19823 TIP3     2880     TIP3     H1       HT       0.417000       1.00800           0
     19824 TIP3     2880     TIP3     H2       HT       0.417000       1.00800           0
     19825 TIP3     2881     TIP3     OH2      OT      -0.834000       15.9994           0
     19826 TIP3     2881     TIP3     H1       HT       0.417000       1.00800           0
     19827 TIP3     2881     TIP3     H2       HT       0.417000       1.00800           0
     19828 TIP3     2882     TIP3     OH2      OT      -0.834000       15.9994           0
     19829 TIP3     2882     TIP3     H1       HT       0.417000       1.00800           0
     19830 TIP3     2882     TIP3     H2       HT       0.417000       1.00800           0
     19831 TIP3     2883     TIP3     OH2      OT      -0.834000       15.9994           0
     19832 TIP3     2883     TIP3     H1       HT       0.417000       1.00800           0
     19833 TIP3     2883     TIP3     H2       HT       0.417000       1.00800           0
     19834 TIP3     2884     TIP3     OH2      OT      -0.834000       15.9994           0
     19835 TIP3     2884     TIP3     H1       HT       0.417000       1.00800           0
     19836 TIP3     2884     TIP3     H2       HT       0.417000       1.00800           0
     19837 TIP3     2885     TIP3     OH2      OT      -0.834000       15.9994           0
     19838 TIP3     2885     TIP3     H1       HT       0.417000       1.00800           0
     19839 TIP3     2885     TIP3     H2       HT       0.417000       1.00800           0
     19840 TIP3     2886     TIP3     OH2      OT      -0.834000       15.9994           0
     19841 TIP3     2886     TIP3     H1       HT       0.417000       1.00800           0
     19842 TIP3     2886     TIP3     H2       HT       0.417000       1.00800           0
     19843 TIP3     2887     TIP3     OH2      OT      -0.834000       15.9994           0
     19844 TIP3     2887     TIP3     H1       HT       0.417000       1.00800           0
     19845 TIP3     2887     TIP3     H2       HT       0.417000       1.00800           0
     19846 TIP3     2888     TIP3     OH2      OT      -0.834000       15.9994           0
     19847 TIP3     2888     TIP3     H1       HT       0.417000       1.00800           0
     19848 TIP3     2888     TIP3     H2       HT       0.417000       1.00800           0
     19849 TIP3     2889     TIP3     OH2      OT      -0.834000       15.9994           0
     19850 TIP3     2889     TIP3     H1       HT       0.417000       1.00800           0
     19851 TIP3     2889     TIP3     H2       HT       0.417000       1.00800           0
     19852 TIP3     2890     TIP3     OH2      OT      -0.834000       15.9994           0
     19853 TIP3     2890     TIP3     H1       HT       0.417000       1.00800           0
     19854 TIP3     2890     TIP3     H2       HT       0.417000       1.00800           0
     19855 TIP3     2891     TIP3     OH2      OT      -0.834000       15.9994           0
     19856 TIP3     2891     TIP3     H1       HT       0.417000       1.00800           0
     19857 TIP3     2891     TIP3     H2       HT       0.417000       1.00800           0
     19858 TIP3     2892     TIP3     OH2      OT      -0.834000       15.9994           0
     19859 TIP3     2892     TIP3     H1       HT       0.417000       1.00800           0
     19860 TIP3     2892     TIP3     H2       HT       0.417000       1.00800           0
     19861 TIP3     2893     TIP3     OH2      OT      -0.834000       15.9994           0
     19862 TIP3     2893     TIP3     H1       HT       0.417000       1.00800           0
     19863 TIP3     2893     TIP3     H2       HT       0.417000       1.00800           0
     19864 TIP3     2894     TIP3     OH2      OT      -0.834000       15.9994           0
     19865 TIP3     2894     TIP3     H1       HT       0.417000       1.00800           0
     19866 TIP3     2894     TIP3     H2       HT       0.417000       1.00800           0
     19867 TIP3     2895     TIP3     OH2      OT      -0.834000       15.9994           0
     19868 TIP3     2895     TIP3     H1       HT       0.417000       1.00800           0
     19869 TIP3     2895     TIP3     H2       HT       0.417000       1.00800           0
     19870 TIP3     2896     TIP3     OH2      OT      -0.834000       15.9994           0
     19871 TIP3     2896     TIP3     H1       HT       0.417000       1.00800           0
     19872 TIP3     2896     TIP3     H2       HT       0.417000       1.00800           0
     19873 TIP3     2897     TIP3     OH2      OT      -0.834000       15.9994           0
     19874 TIP3     2897     TIP3     H1       HT       0.417000       1.00800           0
     19875 TIP3     2897     TIP3     H2       HT       0.417000       1.00800           0
     19876 TIP3     2898     TIP3     OH2      OT      -0.834000       15.9994           0
     19877 TIP3     2898     TIP3     H1       HT       0.417000       1.00800           0
     19878 TIP3     2898     TIP3     H2       HT       0.417000       1.00800           0
     19879 TIP3     2899     TIP3     OH2      OT      -0.834000       15.9994           0
     19880 TIP3     2899     TIP3     H1       HT       0.417000       1.00800           0
     19881 TIP3     2899     TIP3     H2       HT       0.417000       1.00800           0
     19882 TIP3     2900     TIP3     OH2      OT      -0.834000       15.9994           0
     19883 TIP3     2900     TIP3     H1       HT       0.417000       1.00800           0
     19884 TIP3     2900     TIP3     H2       HT       0.417000       1.00800           0
     19885 TIP3     2901     TIP3     OH2      OT      -0.834000       15.9994           0
     19886 TIP3     2901     TIP3     H1       HT       0.417000       1.00800           0
     19887 TIP3     2901     TIP3     H2       HT       0.417000       1.00800           0
     19888 TIP3     2902     TIP3     OH2      OT      -0.834000       15.9994           0
     19889 TIP3     2902     TIP3     H1       HT       0.417000       1.00800           0
     19890 TIP3     2902     TIP3     H2       HT       0.417000       1.00800           0
     19891 TIP3     2903     TIP3     OH2      OT      -0.834000       15.9994           0
     19892 TIP3     2903     TIP3     H1       HT       0.417000       1.00800           0
     19893 TIP3     2903     TIP3     H2       HT       0.417000       1.00800           0
     19894 TIP3     2904     TIP3     OH2      OT      -0.834000       15.9994           0
     19895 TIP3     2904     TIP3     H1       HT       0.417000       1.00800           0
     19896 TIP3     2904     TIP3     H2       HT       0.417000       1.00800           0
     19897 TIP3     2905     TIP3     OH2      OT      -0.834000       15.9994           0
     19898 TIP3     2905     TIP3     H1       HT       0.417000       1.00800           0
     19899 TIP3     2905     TIP3     H2       HT       0.417000       1.00800           0
     19900 TIP3     2906     TIP3     OH2      OT      -0.834000       15.9994           0
     19901 TIP3     2906     TIP3     H1       HT       0.417000       1.00800           0
     19902 TIP3     2906     TIP3     H2       HT       0.417000       1.00800           0
     19903 TIP3     2907     TIP3     OH2      OT      -0.834000       15.9994           0
     19904 TIP3     2907     TIP3     H1       HT       0.417000       1.00800           0
     19905 TIP3     2907     TIP3     H2       HT       0.417000       1.00800           0
     19906 TIP3     2908     TIP3     OH2      OT      -0.834000       15.9994           0
     19907 TIP3     2908     TIP3     H1       HT       0.417000       1.00800           0
     19908 TIP3     2908     TIP3     H2       HT       0.417000       1.00800           0
     19909 TIP3     2909     TIP3     OH2      OT      -0.834000       15.9994           0
     19910 TIP3     2909     TIP3     H1       HT       0.417000       1.00800           0
     19911 TIP3     2909     TIP3     H2       HT       0.417000       1.00800           0
     19912 TIP3     2910     TIP3     OH2      OT      -0.834000       15.9994           0
     19913 TIP3     2910     TIP3     H1       HT       0.417000       1.00800           0
     19914 TIP3     2910     TIP3     H2       HT       0.417000       1.00800           0
     19915 TIP3     2911     TIP3     OH2      OT      -0.834000       15.9994           0
     19916 TIP3     2911     TIP3     H1       HT       0.417000       1.00800           0
     19917 TIP3     2911     TIP3     H2       HT       0.417000       1.00800           0
     19918 TIP3     2912     TIP3     OH2      OT      -0.834000       15.9994           0
     19919 TIP3     2912     TIP3     H1       HT       0.417000       1.00800           0
     19920 TIP3     2912     TIP3     H2       HT       0.417000       1.00800           0
     19921 TIP3     2913     TIP3     OH2      OT      -0.834000       15.9994           0
     19922 TIP3     2913     TIP3     H1       HT       0.417000       1.00800           0
     19923 TIP3     2913     TIP3     H2       HT       0.417000       1.00800           0
     19924 TIP3     2914     TIP3     OH2      OT      -0.834000       15.9994           0
     19925 TIP3     2914     TIP3     H1       HT       0.417000       1.00800           0
     19926 TIP3     2914     TIP3     H2       HT       0.417000       1.00800           0
     19927 TIP3     2915     TIP3     OH2      OT      -0.834000       15.9994           0
     19928 TIP3     2915     TIP3     H1       HT       0.417000       1.00800           0
     19929 TIP3     2915     TIP3     H2       HT       0.417000       1.00800           0
     19930 TIP3     2916     TIP3     OH2      OT      -0.834000       15.9994           0
     19931 TIP3     2916     TIP3     H1       HT       0.417000       1.00800           0
     19932 TIP3     2916     TIP3     H2       HT       0.417000       1.00800           0
     19933 TIP3     2917     TIP3     OH2      OT      -0.834000       15.9994           0
     19934 TIP3     2917     TIP3     H1       HT       0.417000       1.00800           0
     19935 TIP3     2917     TIP3     H2       HT       0.417000       1.00800           0
     19936 TIP3     2918     TIP3     OH2      OT      -0.834000       15.9994           0
     19937 TIP3     2918     TIP3     H1       HT       0.417000       1.00800           0
     19938 TIP3     2918     TIP3     H2       HT       0.417000       1.00800           0
     19939 TIP3     2919     TIP3     OH2      OT      -0.834000       15.9994           0
     19940 TIP3     2919     TIP3     H1       HT       0.417000       1.00800           0
     19941 TIP3     2919     TIP3     H2       HT       0.417000       1.00800           0
     19942 TIP3     2920     TIP3     OH2      OT      -0.834000       15.9994           0
     19943 TIP3     2920     TIP3     H1       HT       0.417000       1.00800           0
     19944 TIP3     2920     TIP3     H2       HT       0.417000       1.00800           0
     19945 TIP3     2921     TIP3     OH2      OT      -0.834000       15.9994           0
     19946 TIP3     2921     TIP3     H1       HT       0.417000       1.00800           0
     19947 TIP3     2921     TIP3     H2       HT       0.417000       1.00800           0
     19948 TIP3     2922     TIP3     OH2      OT      -0.834000       15.9994           0
     19949 TIP3     2922     TIP3     H1       HT       0.417000       1.00800           0
     19950 TIP3     2922     TIP3     H2       HT       0.417000       1.00800           0
     19951 TIP3     2923     TIP3     OH2      OT      -0.834000       15.9994           0
     19952 TIP3     2923     TIP3     H1       HT       0.417000       1.00800           0
     19953 TIP3     2923     TIP3     H2       HT       0.417000       1.00800           0
     19954 TIP3     2924     TIP3     OH2      OT      -0.834000       15.9994           0
     19955 TIP3     2924     TIP3     H1       HT       0.417000       1.00800           0
     19956 TIP3     2924     TIP3     H2       HT       0.417000       1.00800           0
     19957 TIP3     2925     TIP3     OH2      OT      -0.834000       15.9994           0
     19958 TIP3     2925     TIP3     H1       HT       0.417000       1.00800           0
     19959 TIP3     2925     TIP3     H2       HT       0.417000       1.00800           0
     19960 TIP3     2926     TIP3     OH2      OT      -0.834000       15.9994           0
     19961 TIP3     2926     TIP3     H1       HT       0.417000       1.00800           0
     19962 TIP3     2926     TIP3     H2       HT       0.417000       1.00800           0
     19963 TIP3     2927     TIP3     OH2      OT      -0.834000       15.9994           0
     19964 TIP3     2927     TIP3     H1       HT       0.417000       1.00800           0
     19965 TIP3     2927     TIP3     H2       HT       0.417000       1.00800           0
     19966 TIP3     2928     TIP3     OH2      OT      -0.834000       15.9994           0
     19967 TIP3     2928     TIP3     H1       HT       0.417000       1.00800           0
     19968 TIP3     2928     TIP3     H2       HT       0.417000       1.00800           0
     19969 TIP3     2929     TIP3     OH2      OT      -0.834000       15.9994           0
     19970 TIP3     2929     TIP3     H1       HT       0.417000       1.00800           0
     19971 TIP3     2929     TIP3     H2       HT       0.417000       1.00800           0
     19972 TIP3     2930     TIP3     OH2      OT      -0.834000       15.9994           0
     19973 TIP3     2930     TIP3     H1       HT       0.417000       1.00800           0
     19974 TIP3     2930     TIP3     H2       HT       0.417000       1.00800           0
     19975 TIP3     2931     TIP3     OH2      OT      -0.834000       15.9994           0
     19976 TIP3     2931     TIP3     H1       HT       0.417000       1.00800           0
     19977 TIP3     2931     TIP3     H2       HT       0.417000       1.00800           0
     19978 TIP3     2932     TIP3     OH2      OT      -0.834000       15.9994           0
     19979 TIP3     2932     TIP3     H1       HT       0.417000       1.00800           0
     19980 TIP3     2932     TIP3     H2       HT       0.417000       1.00800           0
     19981 TIP3     2933     TIP3     OH2      OT      -0.834000       15.9994           0
     19982 TIP3     2933     TIP3     H1       HT       0.417000       1.00800           0
     19983 TIP3     2933     TIP3     H2       HT       0.417000       1.00800           0
     19984 TIP3     2934     TIP3     OH2      OT      -0.834000       15.9994           0
     19985 TIP3     2934     TIP3     H1       HT       0.417000       1.00800           0
     19986 TIP3     2934     TIP3     H2       HT       0.417000       1.00800           0
     19987 TIP3     2935     TIP3     OH2      OT      -0.834000       15.9994           0
     19988 TIP3     2935     TIP3     H1       HT       0.417000       1.00800           0
     19989 TIP3     2935     TIP3     H2       HT       0.417000       1.00800           0
     19990 TIP3     2936     TIP3     OH2      OT      -0.834000       15.9994           0
     19991 TIP3     2936     TIP3     H1       HT       0.417000       1.00800           0
     19992 TIP3     2936     TIP3     H2       HT       0.417000       1.00800           0
     19993 TIP3     2937     TIP3     OH2      OT      -0.834000       15.9994           0
     19994 TIP3     2937     TIP3     H1       HT       0.417000       1.00800           0
     19995 TIP3     2937     TIP3     H2       HT       0.417000       1.00800           0
     19996 TIP3     2938     TIP3     OH2      OT      -0.834000       15.9994           0
     19997 TIP3     2938     TIP3     H1       HT       0.417000       1.00800           0
     19998 TIP3     2938     TIP3     H2       HT       0.417000       1.00800           0
     19999 TIP3     2939     TIP3     OH2      OT      -0.834000       15.9994           0
     20000 TIP3     2939     TIP3     H1       HT       0.417000       1.00800           0
     20001 TIP3     2939     TIP3     H2       HT       0.417000       1.00800           0
     20002 TIP3     2940     TIP3     OH2      OT      -0.834000       15.9994           0
     20003 TIP3     2940     TIP3     H1       HT       0.417000       1.00800           0
     20004 TIP3     2940     TIP3     H2       HT       0.417000       1.00800           0
     20005 TIP3     2941     TIP3     OH2      OT      -0.834000       15.9994           0
     20006 TIP3     2941     TIP3     H1       HT       0.417000       1.00800           0
     20007 TIP3     2941     TIP3     H2       HT       0.417000       1.00800           0
     20008 TIP3     2942     TIP3     OH2      OT      -0.834000       15.9994           0
     20009 TIP3     2942     TIP3     H1       HT       0.417000       1.00800           0
     20010 TIP3     2942     TIP3     H2       HT       0.417000       1.00800           0
     20011 TIP3     2943     TIP3     OH2      OT      -0.834000       15.9994           0
     20012 TIP3     2943     TIP3     H1       HT       0.417000       1.00800           0
     20013 TIP3     2943     TIP3     H2       HT       0.417000       1.00800           0
     20014 TIP3     2944     TIP3     OH2      OT      -0.834000       15.9994           0
     20015 TIP3     2944     TIP3     H1       HT       0.417000       1.00800           0
     20016 TIP3     2944     TIP3     H2       HT       0.417000       1.00800           0
     20017 TIP3     2945     TIP3     OH2      OT      -0.834000       15.9994           0
     20018 TIP3     2945     TIP3     H1       HT       0.417000       1.00800           0
     20019 TIP3     2945     TIP3     H2       HT       0.417000       1.00800           0
     20020 TIP3     2946     TIP3     OH2      OT      -0.834000       15.9994           0
     20021 TIP3     2946     TIP3     H1       HT       0.417000       1.00800           0
     20022 TIP3     2946     TIP3     H2       HT       0.417000       1.00800           0
     20023 TIP3     2947     TIP3     OH2      OT      -0.834000       15.9994           0
     20024 TIP3     2947     TIP3     H1       HT       0.417000       1.00800           0
     20025 TIP3     2947     TIP3     H2       HT       0.417000       1.00800           0
     20026 TIP3     2948     TIP3     OH2      OT      -0.834000       15.9994           0
     20027 TIP3     2948     TIP3     H1       HT       0.417000       1.00800           0
     20028 TIP3     2948     TIP3     H2       HT       0.417000       1.00800           0
     20029 TIP3     2949     TIP3     OH2      OT      -0.834000       15.9994           0
     20030 TIP3     2949     TIP3     H1       HT       0.417000       1.00800           0
     20031 TIP3     2949     TIP3     H2       HT       0.417000       1.00800           0
     20032 TIP3     2950     TIP3     OH2      OT      -0.834000       15.9994           0
     20033 TIP3     2950     TIP3     H1       HT       0.417000       1.00800           0
     20034 TIP3     2950     TIP3     H2       HT       0.417000       1.00800           0
     20035 TIP3     2951     TIP3     OH2      OT      -0.834000       15.9994           0
     20036 TIP3     2951     TIP3     H1       HT       0.417000       1.00800           0
     20037 TIP3     2951     TIP3     H2       HT       0.417000       1.00800           0
     20038 TIP3     2952     TIP3     OH2      OT      -0.834000       15.9994           0
     20039 TIP3     2952     TIP3     H1       HT       0.417000       1.00800           0
     20040 TIP3     2952     TIP3     H2       HT       0.417000       1.00800           0
     20041 TIP3     2953     TIP3     OH2      OT      -0.834000       15.9994           0
     20042 TIP3     2953     TIP3     H1       HT       0.417000       1.00800           0
     20043 TIP3     2953     TIP3     H2       HT       0.417000       1.00800           0
     20044 TIP3     2954     TIP3     OH2      OT      -0.834000       15.9994           0
     20045 TIP3     2954     TIP3     H1       HT       0.417000       1.00800           0
     20046 TIP3     2954     TIP3     H2       HT       0.417000       1.00800           0
     20047 TIP3     2955     TIP3     OH2      OT      -0.834000       15.9994           0
     20048 TIP3     2955     TIP3     H1       HT       0.417000       1.00800           0
     20049 TIP3     2955     TIP3     H2       HT       0.417000       1.00800           0
     20050 TIP3     2956     TIP3     OH2      OT      -0.834000       15.9994           0
     20051 TIP3     2956     TIP3     H1       HT       0.417000       1.00800           0
     20052 TIP3     2956     TIP3     H2       HT       0.417000       1.00800           0
     20053 TIP3     2957     TIP3     OH2      OT      -0.834000       15.9994           0
     20054 TIP3     2957     TIP3     H1       HT       0.417000       1.00800           0
     20055 TIP3     2957     TIP3     H2       HT       0.417000       1.00800           0
     20056 TIP3     2958     TIP3     OH2      OT      -0.834000       15.9994           0
     20057 TIP3     2958     TIP3     H1       HT       0.417000       1.00800           0
     20058 TIP3     2958     TIP3     H2       HT       0.417000       1.00800           0
     20059 TIP3     2959     TIP3     OH2      OT      -0.834000       15.9994           0
     20060 TIP3     2959     TIP3     H1       HT       0.417000       1.00800           0
     20061 TIP3     2959     TIP3     H2       HT       0.417000       1.00800           0
     20062 TIP3     2960     TIP3     OH2      OT      -0.834000       15.9994           0
     20063 TIP3     2960     TIP3     H1       HT       0.417000       1.00800           0
     20064 TIP3     2960     TIP3     H2       HT       0.417000       1.00800           0
     20065 TIP3     2961     TIP3     OH2      OT      -0.834000       15.9994           0
     20066 TIP3     2961     TIP3     H1       HT       0.417000       1.00800           0
     20067 TIP3     2961     TIP3     H2       HT       0.417000       1.00800           0
     20068 TIP3     2962     TIP3     OH2      OT      -0.834000       15.9994           0
     20069 TIP3     2962     TIP3     H1       HT       0.417000       1.00800           0
     20070 TIP3     2962     TIP3     H2       HT       0.417000       1.00800           0
     20071 TIP3     2963     TIP3     OH2      OT      -0.834000       15.9994           0
     20072 TIP3     2963     TIP3     H1       HT       0.417000       1.00800           0
     20073 TIP3     2963     TIP3     H2       HT       0.417000       1.00800           0
     20074 TIP3     2964     TIP3     OH2      OT      -0.834000       15.9994           0
     20075 TIP3     2964     TIP3     H1       HT       0.417000       1.00800           0
     20076 TIP3     2964     TIP3     H2       HT       0.417000       1.00800           0
     20077 TIP3     2965     TIP3     OH2      OT      -0.834000       15.9994           0
     20078 TIP3     2965     TIP3     H1       HT       0.417000       1.00800           0
     20079 TIP3     2965     TIP3     H2       HT       0.417000       1.00800           0
     20080 TIP3     2966     TIP3     OH2      OT      -0.834000       15.9994           0
     20081 TIP3     2966     TIP3     H1       HT       0.417000       1.00800           0
     20082 TIP3     2966     TIP3     H2       HT       0.417000       1.00800           0
     20083 TIP3     2967     TIP3     OH2      OT      -0.834000       15.9994           0
     20084 TIP3     2967     TIP3     H1       HT       0.417000       1.00800           0
     20085 TIP3     2967     TIP3     H2       HT       0.417000       1.00800           0
     20086 TIP3     2968     TIP3     OH2      OT      -0.834000       15.9994           0
     20087 TIP3     2968     TIP3     H1       HT       0.417000       1.00800           0
     20088 TIP3     2968     TIP3     H2       HT       0.417000       1.00800           0
     20089 TIP3     2969     TIP3     OH2      OT      -0.834000       15.9994           0
     20090 TIP3     2969     TIP3     H1       HT       0.417000       1.00800           0
     20091 TIP3     2969     TIP3     H2       HT       0.417000       1.00800           0
     20092 TIP3     2970     TIP3     OH2      OT      -0.834000       15.9994           0
     20093 TIP3     2970     TIP3     H1       HT       0.417000       1.00800           0
     20094 TIP3     2970     TIP3     H2       HT       0.417000       1.00800           0
     20095 TIP3     2971     TIP3     OH2      OT      -0.834000       15.9994           0
     20096 TIP3     2971     TIP3     H1       HT       0.417000       1.00800           0
     20097 TIP3     2971     TIP3     H2       HT       0.417000       1.00800           0
     20098 TIP3     2972     TIP3     OH2      OT      -0.834000       15.9994           0
     20099 TIP3     2972     TIP3     H1       HT       0.417000       1.00800           0
     20100 TIP3     2972     TIP3     H2       HT       0.417000       1.00800           0
     20101 TIP3     2973     TIP3     OH2      OT      -0.834000       15.9994           0
     20102 TIP3     2973     TIP3     H1       HT       0.417000       1.00800           0
     20103 TIP3     2973     TIP3     H2       HT       0.417000       1.00800           0
     20104 TIP3     2974     TIP3     OH2      OT      -0.834000       15.9994           0
     20105 TIP3     2974     TIP3     H1       HT       0.417000       1.00800           0
     20106 TIP3     2974     TIP3     H2       HT       0.417000       1.00800           0
     20107 TIP3     2975     TIP3     OH2      OT      -0.834000       15.9994           0
     20108 TIP3     2975     TIP3     H1       HT       0.417000       1.00800           0
     20109 TIP3     2975     TIP3     H2       HT       0.417000       1.00800           0
     20110 TIP3     2976     TIP3     OH2      OT      -0.834000       15.9994           0
     20111 TIP3     2976     TIP3     H1       HT       0.417000       1.00800           0
     20112 TIP3     2976     TIP3     H2       HT       0.417000       1.00800           0
     20113 TIP3     2977     TIP3     OH2      OT      -0.834000       15.9994           0
     20114 TIP3     2977     TIP3     H1       HT       0.417000       1.00800           0
     20115 TIP3     2977     TIP3     H2       HT       0.417000       1.00800           0
     20116 TIP3     2978     TIP3     OH2      OT      -0.834000       15.9994           0
     20117 TIP3     2978     TIP3     H1       HT       0.417000       1.00800           0
     20118 TIP3     2978     TIP3     H2       HT       0.417000       1.00800           0
     20119 TIP3     2979     TIP3     OH2      OT      -0.834000       15.9994           0
     20120 TIP3     2979     TIP3     H1       HT       0.417000       1.00800           0
     20121 TIP3     2979     TIP3     H2       HT       0.417000       1.00800           0
     20122 TIP3     2980     TIP3     OH2      OT      -0.834000       15.9994           0
     20123 TIP3     2980     TIP3     H1       HT       0.417000       1.00800           0
     20124 TIP3     2980     TIP3     H2       HT       0.417000       1.00800           0
     20125 TIP3     2981     TIP3     OH2      OT      -0.834000       15.9994           0
     20126 TIP3     2981     TIP3     H1       HT       0.417000       1.00800           0
     20127 TIP3     2981     TIP3     H2       HT       0.417000       1.00800           0
     20128 TIP3     2982     TIP3     OH2      OT      -0.834000       15.9994           0
     20129 TIP3     2982     TIP3     H1       HT       0.417000       1.00800           0
     20130 TIP3     2982     TIP3     H2       HT       0.417000       1.00800           0
     20131 TIP3     2983     TIP3     OH2      OT      -0.834000       15.9994           0
     20132 TIP3     2983     TIP3     H1       HT       0.417000       1.00800           0
     20133 TIP3     2983     TIP3     H2       HT       0.417000       1.00800           0
     20134 TIP3     2984     TIP3     OH2      OT      -0.834000       15.9994           0
     20135 TIP3     2984     TIP3     H1       HT       0.417000       1.00800           0
     20136 TIP3     2984     TIP3     H2       HT       0.417000       1.00800           0
     20137 TIP3     2985     TIP3     OH2      OT      -0.834000       15.9994           0
     20138 TIP3     2985     TIP3     H1       HT       0.417000       1.00800           0
     20139 TIP3     2985     TIP3     H2       HT       0.417000       1.00800           0
     20140 TIP3     2986     TIP3     OH2      OT      -0.834000       15.9994           0
     20141 TIP3     2986     TIP3     H1       HT       0.417000       1.00800           0
     20142 TIP3     2986     TIP3     H2       HT       0.417000       1.00800           0
     20143 TIP3     2987     TIP3     OH2      OT      -0.834000       15.9994           0
     20144 TIP3     2987     TIP3     H1       HT       0.417000       1.00800           0
     20145 TIP3     2987     TIP3     H2       HT       0.417000       1.00800           0
     20146 TIP3     2988     TIP3     OH2      OT      -0.834000       15.9994           0
     20147 TIP3     2988     TIP3     H1       HT       0.417000       1.00800           0
     20148 TIP3     2988     TIP3     H2       HT       0.417000       1.00800           0
     20149 TIP3     2989     TIP3     OH2      OT      -0.834000       15.9994           0
     20150 TIP3     2989     TIP3     H1       HT       0.417000       1.00800           0
     20151 TIP3     2989     TIP3     H2       HT       0.417000       1.00800           0
     20152 TIP3     2990     TIP3     OH2      OT      -0.834000       15.9994           0
     20153 TIP3     2990     TIP3     H1       HT       0.417000       1.00800           0
     20154 TIP3     2990     TIP3     H2       HT       0.417000       1.00800           0
     20155 TIP3     2991     TIP3     OH2      OT      -0.834000       15.9994           0
     20156 TIP3     2991     TIP3     H1       HT       0.417000       1.00800           0
     20157 TIP3     2991     TIP3     H2       HT       0.417000       1.00800           0
     20158 TIP3     2992     TIP3     OH2      OT      -0.834000       15.9994           0
     20159 TIP3     2992     TIP3     H1       HT       0.417000       1.00800           0
     20160 TIP3     2992     TIP3     H2       HT       0.417000       1.00800           0
     20161 TIP3     2993     TIP3     OH2      OT      -0.834000       15.9994           0
     20162 TIP3     2993     TIP3     H1       HT       0.417000       1.00800           0
     20163 TIP3     2993     TIP3     H2       HT       0.417000       1.00800           0
     20164 TIP3     2994     TIP3     OH2      OT      -0.834000       15.9994           0
     20165 TIP3     2994     TIP3     H1       HT       0.417000       1.00800           0
     20166 TIP3     2994     TIP3     H2       HT       0.417000       1.00800           0
     20167 TIP3     2995     TIP3     OH2      OT      -0.834000       15.9994           0
     20168 TIP3     2995     TIP3     H1       HT       0.417000       1.00800           0
     20169 TIP3     2995     TIP3     H2       HT       0.417000       1.00800           0
     20170 TIP3     2996     TIP3     OH2      OT      -0.834000       15.9994           0
     20171 TIP3     2996     TIP3     H1       HT       0.417000       1.00800           0
     20172 TIP3     2996     TIP3     H2       HT       0.417000       1.00800           0
     20173 TIP3     2997     TIP3     OH2      OT      -0.834000       15.9994           0
     20174 TIP3     2997     TIP3     H1       HT       0.417000       1.00800           0
     20175 TIP3     2997     TIP3     H2       HT       0.417000       1.00800           0
     20176 TIP3     2998     TIP3     OH2      OT      -0.834000       15.9994           0
     20177 TIP3     2998     TIP3     H1       HT       0.417000       1.00800           0
     20178 TIP3     2998     TIP3     H2       HT       0.417000       1.00800           0
     20179 TIP3     2999     TIP3     OH2      OT      -0.834000       15.9994           0
     20180 TIP3     2999     TIP3     H1       HT       0.417000       1.00800           0
     20181 TIP3     2999     TIP3     H2       HT       0.417000       1.00800           0
     20182 TIP3     3000     TIP3     OH2      OT      -0.834000       15.9994           0
     20183 TIP3     3000     TIP3     H1       HT       0.417000       1.00800           0
     20184 TIP3     3000     TIP3     H2       HT       0.417000       1.00800           0
     20185 TIP3     3001     TIP3     OH2      OT      -0.834000       15.9994           0
     20186 TIP3     3001     TIP3     H1       HT       0.417000       1.00800           0
     20187 TIP3     3001     TIP3     H2       HT       0.417000       1.00800           0
     20188 TIP3     3002     TIP3     OH2      OT      -0.834000       15.9994           0
     20189 TIP3     3002     TIP3     H1       HT       0.417000       1.00800           0
     20190 TIP3     3002     TIP3     H2       HT       0.417000       1.00800           0
     20191 TIP3     3003     TIP3     OH2      OT      -0.834000       15.9994           0
     20192 TIP3     3003     TIP3     H1       HT       0.417000       1.00800           0
     20193 TIP3     3003     TIP3     H2       HT       0.417000       1.00800           0
     20194 TIP3     3004     TIP3     OH2      OT      -0.834000       15.9994           0
     20195 TIP3     3004     TIP3     H1       HT       0.417000       1.00800           0
     20196 TIP3     3004     TIP3     H2       HT       0.417000       1.00800           0
     20197 TIP3     3005     TIP3     OH2      OT      -0.834000       15.9994           0
     20198 TIP3     3005     TIP3     H1       HT       0.417000       1.00800           0
     20199 TIP3     3005     TIP3     H2       HT       0.417000       1.00800           0
     20200 TIP3     3006     TIP3     OH2      OT      -0.834000       15.9994           0
     20201 TIP3     3006     TIP3     H1       HT       0.417000       1.00800           0
     20202 TIP3     3006     TIP3     H2       HT       0.417000       1.00800           0
     20203 TIP3     3007     TIP3     OH2      OT      -0.834000       15.9994           0
     20204 TIP3     3007     TIP3     H1       HT       0.417000       1.00800           0
     20205 TIP3     3007     TIP3     H2       HT       0.417000       1.00800           0
     20206 TIP3     3008     TIP3     OH2      OT      -0.834000       15.9994           0
     20207 TIP3     3008     TIP3     H1       HT       0.417000       1.00800           0
     20208 TIP3     3008     TIP3     H2       HT       0.417000       1.00800           0
     20209 TIP3     3009     TIP3     OH2      OT      -0.834000       15.9994           0
     20210 TIP3     3009     TIP3     H1       HT       0.417000       1.00800           0
     20211 TIP3     3009     TIP3     H2       HT       0.417000       1.00800           0
     20212 TIP3     3010     TIP3     OH2      OT      -0.834000       15.9994           0
     20213 TIP3     3010     TIP3     H1       HT       0.417000       1.00800           0
     20214 TIP3     3010     TIP3     H2       HT       0.417000       1.00800           0
     20215 TIP3     3011     TIP3     OH2      OT      -0.834000       15.9994           0
     20216 TIP3     3011     TIP3     H1       HT       0.417000       1.00800           0
     20217 TIP3     3011     TIP3     H2       HT       0.417000       1.00800           0
     20218 TIP3     3012     TIP3     OH2      OT      -0.834000       15.9994           0
     20219 TIP3     3012     TIP3     H1       HT       0.417000       1.00800           0
     20220 TIP3     3012     TIP3     H2       HT       0.417000       1.00800           0
     20221 TIP3     3013     TIP3     OH2      OT      -0.834000       15.9994           0
     20222 TIP3     3013     TIP3     H1       HT       0.417000       1.00800           0
     20223 TIP3     3013     TIP3     H2       HT       0.417000       1.00800           0
     20224 TIP3     3014     TIP3     OH2      OT      -0.834000       15.9994           0
     20225 TIP3     3014     TIP3     H1       HT       0.417000       1.00800           0
     20226 TIP3     3014     TIP3     H2       HT       0.417000       1.00800           0
     20227 TIP3     3015     TIP3     OH2      OT      -0.834000       15.9994           0
     20228 TIP3     3015     TIP3     H1       HT       0.417000       1.00800           0
     20229 TIP3     3015     TIP3     H2       HT       0.417000       1.00800           0
     20230 TIP3     3016     TIP3     OH2      OT      -0.834000       15.9994           0
     20231 TIP3     3016     TIP3     H1       HT       0.417000       1.00800           0
     20232 TIP3     3016     TIP3     H2       HT       0.417000       1.00800           0
     20233 TIP3     3017     TIP3     OH2      OT      -0.834000       15.9994           0
     20234 TIP3     3017     TIP3     H1       HT       0.417000       1.00800           0
     20235 TIP3     3017     TIP3     H2       HT       0.417000       1.00800           0
     20236 TIP3     3018     TIP3     OH2      OT      -0.834000       15.9994           0
     20237 TIP3     3018     TIP3     H1       HT       0.417000       1.00800           0
     20238 TIP3     3018     TIP3     H2       HT       0.417000       1.00800           0

     20232 !NBOND: bonds
        76        77        76        78        76        79        76        73
        73        74        73        75        73        70        70        71
        70        72        70        67        67        68        67        69
        67        64        64        65        64        66        64        61
        61        62        61        63        61        58        58        59
        58        60        58        55        55        56        55        57
        55        52        52        53        52        54        52        49
        49        50        49        51        49        46        46        47
        46        48        46        43        43        44        43        45
        43        40        40        41        40        42        40        38
        38        39        36        37        36        32        32        33
        32        34        34        35        32        30        30        31
        30        25        25        26        25        27        25        23
        23        20        24        20        21        20        22        20
        24        17        17        18        17        19        17        14
        14        15        14        16        14         1         1        10
         1         6         1         2        10        11        10        12
        10        13         6         7         6         8         6         9
         2         3         2         4         2         5        30        28
        28        29        28        80        80        82        82        83
        82        84        82        85        85        86        85        87
        85        88        88        89        88        90        88        91
        91        92        91        93        91        94        94        95
        94        96        94        97        97        98        97        99
        97       100       100       101       100       102       100       103
       103       104       105       106       105       107       107       108
       107       109       107       110       110       111       110       112
       110       113       113       114       113       115       113       116
       116       117       116       118       116       119       119       120
       119       121       119       122       122       123       122       124
       122       125       125       126       125       127       125       128
       128       129       128       130       128       131        36        38
       103       105        80        81      2359      2360      2359      2361
      2359      2362      2359      2363      2367      2365      2365      2363
      2365      2366      2363      2364      2363      2368      2376      2375
      2368      2369      2368      2370      2368      2374      2374      2371
      2371      2375      2371      2372      2371      2373      2376      2377
      2376      2378      2376      2379      2379      2380      2379      2387
      2379      2381      2387      2388      2387      2389      2387      2390
      2381      2382      2382      2384      2382      2383      2384      2385
      2384      2386      2384      2396      2396      2397      2396      2398
      2396      2399      2399      2400      2399      2401      2399      2402
      2402      2403      2402      2404      2404      2405      2404      2406
      2406      2407      2406      2408      2406      2409      2409      2410
      2409      2411      2411      2412      2411      2413      2413      2414
      2413      2415      2413      2416      2416      2417      2416      2418
      2418      2419      2418      2420      2420      2421      2420      2422
      2420      2423      2423      2424      2423      2425      2425      2426
      2425      2427      2427      2428      2427      2429      2427      2430
      2430      2431      2430      2432      2430      2433      2433      2434
      2433      2435      2433      2436      2436      2437      2436      2438
      2436      2439      2439      2440      2439      2441      2439      2442
      2390      2391      2391      2393      2391      2392      2393      2394
      2393      2395      2393      2443      2443      2444      2443      2445
      2443      2446      2446      2447      2446      2448      2446      2449
      2449      2450      2449      2451      2449      2452      2452      2453
      2452      2454      2452      2455      2455      2456      2455      2457
      2455      2458      2458      2459      2458      2460      2458      2461
      2461      2462      2461      2463      2461      2464      2464      2465
      2464      2466      2464      2467      2467      2468      2467      2469
      2467      2470      2470      2471      2470      2472      2470      2473
      2473      2474      2473      2475      2473      2476      2476      2477
      2476      2478      2476      2479      2479      2480      2479      2481
      2479      2482      2482      2483      2482      2484      2482      2485
      2485      2486      2485      2487      2485      2488      2488      2489
      2488      2490      2488      2491      3423      3424      3423      3425
      3423      3426      3423      3427      3427      3428      3427      3429
      3427      3430      3430      3431      3430      3432      3430      3436
      3438      3437      3436      3433      3433      3437      3433      3434
      3433      3435      3438      3439      3438      3440      3438      3441
      3441      3442      3441      3449      3441      3443      3449      3450
      3449      3451      3449      3452      3443      3444      3444      3446
      3444      3445      3446      3447      3446      3448      3446      3458
      3458      3459      3458      3460      3458      3461      3461      3462
      3461      3463      3461      3464      3464      3465      3464      3466
      3466      3467      3466      3468      3468      3469      3468      3470
      3468      3471      3471      3472      3471      3473      3473      3474
      3473      3475      3475      3476      3475      3477      3475      3478
      3478      3479      3478      3480      3480      3481      3480      3482
      3482      3483      3482      3484      3482      3485      3485      3486
      3485      3487      3487      3488      3487      3489      3489      3490
      3489      3491      3489      3492      3492      3493      3492      3494
      3492      3495      3495      3496      3495      3497      3495      3498
      3498      3499      3498      3500      3498      3501      3501      3502
      3501      3503      3501      3504      3452      3453      3453      3455
      3453      3454      3455      3456      3455      3457      3455      3505
      3505      3506      3505      3507      3505      3508      3508      3509
      3508      3510      3508      3511      3511      3512      3511      3513
      3511      3514      3514      3515      3514      3516      3514      3517
      3517      3518      3517      3519      3517      3520      3520      3521
      3520      3522      3520      3523      3523      3524      3523      3525
      3523      3526      3526      3527      3526      3528      3526      3529
      3529      3530      3529      3531      3529      3532      3532      3533
      3532      3534      3532      3535      3535      3536      3535      3537
      3535      3538      3538      3539      3538      3540      3538      3541
      3541      3542      3541      3543      3541      3544      3544      3545
      3544      3546      3544      3547      3547      3548      3547      3549
      3547      3550      3550      3551      3550      3552      3550      3553
      5257      5259      5257      5258      5259      5260      5257      5303
      5303      5304      5303      5305      5303      5300      5300      5301
      5300      5302      5257      5261      5261      5262      5261      5263
      5261      5264      5264      5295      5295      5300      5295      5296
      5296      5297      5296      5298      5296      5299      5264      5265
      5265      5266      5265      5267      5267      5268      5267      5269
      5267      5270      5270      5271      5270      5293      5293      5294
      5293      5295      5270      5272      5272      5273      5272      5282
      5282      5287      5287      5288      5287      5289      5287      5290
      5290      5291      5290      5292      5290      5293      5282      5283
      5283      5284      5283      5285      5283      5286      5272      5274
      5274      5275      5274      5276      5274      5277      5277      5278
      5277      5279      5277      5280      5280      5281      5280      5282
      5280      5306      5306      5307      5306      5308      5308      5309
      5308      5310      5308      5311      5306      5312      5312      5313
      5312      5314      5312      5315      5315      5316      5315      5317
      5315      5318      5318      5319      5318      5320      5318      5321
      5321      5322      5321      5323      5323      5324      5323      5325
      5323      5326      5321      5327      5327      5328      5327      5329
      5327      5330      3554      3555      3554      3556      3554      3557
      3554      3558      3558      3559      3558      3560      3558      3561
      3561      3562      3561      3563      3561      3567      3569      3568
      3567      3564      3564      3568      3564      3565      3564      3566
      3569      3570      3569      3571      3569      3572      3572      3573
      3572      3580      3572      3574      3580      3581      3580      3582
      3580      3583      3574      3575      3575      3577      3575      3576
      3577      3578      3577      3579      3577      3589      3589      3590
      3589      3591      3589      3592      3592      3593      3592      3594
      3592      3595      3595      3596      3595      3597      3597      3598
      3597      3599      3599      3600      3599      3601      3599      3602
      3602      3603      3602      3604      3604      3605      3604      3606
      3606      3607      3606      3608      3606      3609      3609      3610
      3609      3611      3611      3612      3611      3613      3613      3614
      3613      3615      3613      3616      3616      3617      3616      3618
      3618      3619      3618      3620      3620      3621      3620      3622
      3620      3623      3623      3624      3623      3625      3623      3626
      3626      3627      3626      3628      3626      3629      3629      3630
      3629      3631      3629      3632      3632      3633      3632      3634
      3632      3635      3583      3584      3584      3586      3584      3585
      3586      3587      3586      3588      3586      3636      3636      3637
      3636      3638      3636      3639      3639      3640      3639      3641
      3639      3642      3642      3643      3642      3644      3642      3645
      3645      3646      3645      3647      3645      3648      3648      3649
      3648      3650      3648      3651      3651      3652      3651      3653
      3651      3654      3654      3655      3654      3656      3654      3657
      3657      3658      3657      3659      3657      3660      3660      3661
      3660      3662      3660      3663      3663      3664      3663      3665
      3663      3666      3666      3667      3666      3668      3666      3669
      3669      3670      3669      3671      3669      3672      3672      3673
      3672      3674      3672      3675      3675      3676      3675      3677
      3675      3678      3678      3679      3678      3680      3678      3681
      3681      3682      3681      3683      3681      3684      5331      5333
      5331      5332      5333      5334      5331      5377      5377      5378
      5377      5379      5377      5374      5374      5375      5374      5376
      5331      5335      5335      5336      5335      5337      5335      5338
      5338      5369      5369      5374      5369      5370      5370      5371
      5370      5372      5370      5373      5338      5339      5339      5340
      5339      5341      5341      5342      5341      5343      5341      5344
      5344      5345      5344      5367      5367      5368      5367      5369
      5344      5346      5346      5347      5346      5356      5356      5361
      5361      5362      5361      5363      5361      5364      5364      5365
      5364      5366      5364      5367      5356      5357      5357      5358
      5357      5359      5357      5360      5346      5348      5348      5349
      5348      5350      5348      5351      5351      5352      5351      5353
      5351      5354      5354      5355      5354      5356      5354      5380
      5380      5381      5380      5382      5382      5383      5382      5384
      5382      5385      5380      5386      5386      5387      5386      5388
      5386      5389      5389      5390      5389      5391      5389      5392
      5392      5393      5392      5394      5392      5395      5395      5396
      5395      5397      5397      5398      5397      5399      5397      5400
      5395      5401      5401      5402      5401      5403      5401      5404
       207       208       207       209       207       210       207       204
       204       205       204       206       204       201       201       202
       201       203       201       198       198       199       198       200
       198       195       195       196       195       197       195       192
       192       193       192       194       192       189       189       190
       189       191       189       186       186       187       186       188
       186       183       183       184       183       185       183       180
       180       181       180       182       180       177       177       178
       177       179       177       174       174       175       174       176
       174       171       171       172       171       173       171       169
       169       170       167       168       167       163       163       164
       163       165       165       166       163       161       161       162
       161       156       156       157       156       158       156       154
       154       151       155       151       152       151       153       151
       155       148       148       149       148       150       148       145
       145       146       145       147       145       132       132       141
       132       137       132       133       141       142       141       143
       141       144       137       138       137       139       137       140
       133       134       133       135       133       136       161       159
       159       160       159       211       211       213       213       214
       213       215       213       216       216       217       216       218
       216       219       219       220       219       221       219       222
       222       223       222       224       222       225       225       226
       225       227       225       228       228       229       228       230
       228       231       231       232       231       233       231       234
       234       235       236       237       236       238       238       239
       238       240       238       241       241       242       241       243
       241       244       244       245       244       246       244       247
       247       248       247       249       247       250       250       251
       250       252       250       253       253       254       253       255
       253       256       256       257       256       258       256       259
       259       260       259       261       259       262       167       169
       234       236       211       212      5405      5407      5405      5406
      5407      5408      5405      5451      5451      5452      5451      5453
      5451      5448      5448      5449      5448      5450      5405      5409
      5409      5410      5409      5411      5409      5412      5412      5443
      5443      5448      5443      5444      5444      5445      5444      5446
      5444      5447      5412      5413      5413      5414      5413      5415
      5415      5416      5415      5417      5415      5418      5418      5419
      5418      5441      5441      5442      5441      5443      5418      5420
      5420      5421      5420      5430      5430      5435      5435      5436
      5435      5437      5435      5438      5438      5439      5438      5440
      5438      5441      5430      5431      5431      5432      5431      5433
      5431      5434      5420      5422      5422      5423      5422      5424
      5422      5425      5425      5426      5425      5427      5425      5428
      5428      5429      5428      5430      5428      5454      5454      5455
      5454      5456      5456      5457      5456      5458      5456      5459
      5454      5460      5460      5461      5460      5462      5460      5463
      5463      5464      5463      5465      5463      5466      5466      5467
      5466      5468      5466      5469      5469      5470      5469      5471
      5471      5472      5471      5473      5471      5474      5469      5475
      5475      5476      5475      5477      5475      5478       338       339
       338       340       338       341       338       335       335       336
       335       337       335       332       332       333       332       334
       332       329       329       330       329       331       329       326
       326       327       326       328       326       323       323       324
       323       325       323       320       320       321       320       322
       320       317       317       318       317       319       317       314
       314       315       314       316       314       311       311       312
       311       313       311       308       308       309       308       310
       308       305       305       306       305       307       305       302
       302       303       302       304       302       300       300       301
       298       299       298       294       294       295       294       296
       296       297       294       292       292       293       292       287
       287       288       287       289       287       285       285       282
       286       282       283       282       284       282       286       279
       279       280       279       281       279       276       276       277
       276       278       276       263       263       272       263       268
       263       264       272       273       272       274       272       275
       268       269       268       270       268       271       264       265
       264       266       264       267       292       290       290       291
       290       342       342       344       344       345       344       346
       344       347       347       348       347       349       347       350
       350       351       350       352       350       353       353       354
       353       355       353       356       356       357       356       358
       356       359       359       360       359       361       359       362
       362       363       362       364       362       365       365       366
       367       368       367       369       369       370       369       371
       369       372       372       373       372       374       372       375
       375       376       375       377       375       378       378       379
       378       380       378       381       381       382       381       383
       381       384       384       385       384       386       384       387
       387       388       387       389       387       390       390       391
       390       392       390       393       298       300       365       367
       342       343      5479      5481      5479      5480      5481      5482
      5479      5525      5525      5526      5525      5527      5525      5522
      5522      5523      5522      5524      5479      5483      5483      5484
      5483      5485      5483      5486      5486      5517      5517      5522
      5517      5518      5518      5519      5518      5520      5518      5521
      5486      5487      5487      5488      5487      5489      5489      5490
      5489      5491      5489      5492      5492      5493      5492      5515
      5515      5516      5515      5517      5492      5494      5494      5495
      5494      5504      5504      5509      5509      5510      5509      5511
      5509      5512      5512      5513      5512      5514      5512      5515
      5504      5505      5505      5506      5505      5507      5505      5508
      5494      5496      5496      5497      5496      5498      5496      5499
      5499      5500      5499      5501      5499      5502      5502      5503
      5502      5504      5502      5528      5528      5529      5528      5530
      5530      5531      5530      5532      5530      5533      5528      5534
      5534      5535      5534      5536      5534      5537      5537      5538
      5537      5539      5537      5540      5540      5541      5540      5542
      5540      5543      5543      5544      5543      5545      5545      5546
      5545      5547      5545      5548      5543      5549      5549      5550
      5549      5551      5549      5552      5553      5555      5553      5554
      5555      5556      5553      5599      5599      5600      5599      5601
      5599      5596      5596      5597      5596      5598      5553      5557
      5557      5558      5557      5559      5557      5560      5560      5591
      5591      5596      5591      5592      5592      5593      5592      5594
      5592      5595      5560      5561      5561      5562      5561      5563
      5563      5564      5563      5565      5563      5566      5566      5567
      5566      5589      5589      5590      5589      5591      5566      5568
      5568      5569      5568      5578      5578      5583      5583      5584
      5583      5585      5583      5586      5586      5587      5586      5588
      5586      5589      5578      5579      5579      5580      5579      5581
      5579      5582      5568      5570      5570      5571      5570      5572
      5570      5573      5573      5574      5573      5575      5573      5576
      5576      5577      5576      5578      5576      5602      5602      5603
      5602      5604      5604      5605      5604      5606      5604      5607
      5602      5608      5608      5609      5608      5610      5608      5611
      5611      5612      5611      5613      5611      5614      5614      5615
      5614      5616      5614      5617      5617      5618      5617      5619
      5619      5620      5619      5621      5619      5622      5617      5623
      5623      5624      5623      5625      5623      5626      3685      3686
      3685      3687      3685      3688      3685      3689      3689      3690
      3689      3691      3689      3692      3692      3693      3692      3694
      3692      3698      3700      3699      3698      3695      3695      3699
      3695      3696      3695      3697      3700      3701      3700      3702
      3700      3703      3703      3704      3703      3711      3703      3705
      3711      3712      3711      3713      3711      3714      3705      3706
      3706      3708      3706      3707      3708      3709      3708      3710
      3708      3720      3720      3721      3720      3722      3720      3723
      3723      3724      3723      3725      3723      3726      3726      3727
      3726      3728      3728      3729      3728      3730      3730      3731
      3730      3732      3730      3733      3733      3734      3733      3735
      3735      3736      3735      3737      3737      3738      3737      3739
      3737      3740      3740      3741      3740      3742      3742      3743
      3742      3744      3744      3745      3744      3746      3744      3747
      3747      3748      3747      3749      3749      3750      3749      3751
      3751      3752      3751      3753      3751      3754      3754      3755
      3754      3756      3754      3757      3757      3758      3757      3759
      3757      3760      3760      3761      3760      3762      3760      3763
      3763      3764      3763      3765      3763      3766      3714      3715
      3715      3717      3715      3716      3717      3718      3717      3719
      3717      3767      3767      3768      3767      3769      3767      3770
      3770      3771      3770      3772      3770      3773      3773      3774
      3773      3775      3773      3776      3776      3777      3776      3778
      3776      3779      3779      3780      3779      3781      3779      3782
      3782      3783      3782      3784      3782      3785      3785      3786
      3785      3787      3785      3788      3788      3789      3788      3790
      3788      3791      3791      3792      3791      3793      3791      3794
      3794      3795      3794      3796      3794      3797      3797      3798
      3797      3799      3797      3800      3800      3801      3800      3802
      3800      3803      3803      3804      3803      3805      3803      3806
      3806      3807      3806      3808      3806      3809      3809      3810
      3809      3811      3809      3812      3812      3813      3812      3814
      3812      3815      5627      5629      5627      5628      5629      5630
      5627      5673      5673      5674      5673      5675      5673      5670
      5670      5671      5670      5672      5627      5631      5631      5632
      5631      5633      5631      5634      5634      5665      5665      5670
      5665      5666      5666      5667      5666      5668      5666      5669
      5634      5635      5635      5636      5635      5637      5637      5638
      5637      5639      5637      5640      5640      5641      5640      5663
      5663      5664      5663      5665      5640      5642      5642      5643
      5642      5652      5652      5657      5657      5658      5657      5659
      5657      5660      5660      5661      5660      5662      5660      5663
      5652      5653      5653      5654      5653      5655      5653      5656
      5642      5644      5644      5645      5644      5646      5644      5647
      5647      5648      5647      5649      5647      5650      5650      5651
      5650      5652      5650      5676      5676      5677      5676      5678
      5678      5679      5678      5680      5678      5681      5676      5682
      5682      5683      5682      5684      5682      5685      5685      5686
      5685      5687      5685      5688      5688      5689      5688      5690
      5688      5691      5691      5692      5691      5693      5693      5694
      5693      5695      5693      5696      5691      5697      5697      5698
      5697      5699      5697      5700      7329      7330      7329      7334
      7329      7338      7330      7331      7330      7332      7330      7333
      7334      7335      7334      7336      7334      7337      7338      7339
      7338      7340      7338      7341      7329      7342      7342      7343
      7342      7344      7342      7345      7345      7346      7345      7347
      7345      7351      7352      7353      7351      7348      7348      7352
      7348      7349      7348      7350      7353      7354      7353      7355
      7353      7356      7356      7357      7356      7364      7356      7358
      7364      7365      7364      7366      7364      7367      7358      7359
      7359      7361      7359      7360      7361      7362      7361      7363
      7361      7373      7373      7374      7373      7375      7373      7376
      7376      7377      7376      7378      7376      7379      7379      7380
      7379      7381      7379      7382      7382      7383      7382      7384
      7382      7385      7385      7386      7385      7387      7385      7388
      7388      7389      7388      7390      7388      7391      7391      7392
      7391      7393      7393      7394      7393      7395      7395      7396
      7395      7397      7395      7398      7398      7399      7398      7400
      7400      7401      7400      7402      7402      7403      7402      7404
      7402      7405      7405      7406      7405      7407      7405      7408
      7408      7409      7408      7410      7408      7411      7411      7412
      7411      7413      7411      7414      7414      7415      7414      7416
      7414      7417      7367      7368      7368      7370      7368      7369
      7370      7371      7370      7372      7370      7418      7418      7419
      7418      7420      7418      7421      7421      7422      7421      7423
      7421      7424      7424      7425      7424      7426      7424      7427
      7427      7428      7427      7429      7427      7430      7430      7431
      7430      7432      7430      7433      7433      7434      7433      7435
      7433      7436      7436      7437      7436      7438      7436      7439
      7439      7440      7439      7441      7439      7442      7442      7443
      7442      7444      7442      7445      7445      7446      7445      7447
      7445      7448      7448      7449      7448      7450      7448      7451
      7451      7452      7451      7453      7451      7454      7454      7455
      7454      7456      7454      7457      7457      7458      7457      7459
      7457      7460      7460      7461      7460      7462      7460      7463
      7463      7464      7463      7465      7463      7466      8433      8437
      8433      8441      8433      8445      8437      8438      8437      8439
      8437      8440      8441      8442      8441      8443      8441      8444
      8445      8446      8445      8447      8445      8448      8433      8434
      8434      8435      8434      8436      8434      8449      8449      8450
      8449      8451      8449      8455      8456      8457      8455      8452
      8452      8456      8452      8453      8452      8454      8457      8458
      8457      8459      8457      8460      8460      8461      8460      8468
      8460      8462      8468      8469      8468      8470      8468      8471
      8462      8463      8463      8465      8463      8464      8465      8466
      8465      8467      8465      8477      8477      8478      8477      8479
      8477      8480      8480      8481      8480      8482      8480      8483
      8483      8484      8483      8485      8485      8486      8485      8487
      8487      8488      8487      8489      8487      8490      8490      8491
      8490      8492      8492      8493      8492      8494      8494      8495
      8494      8496      8494      8497      8497      8498      8497      8499
      8499      8500      8499      8501      8501      8502      8501      8503
      8501      8504      8504      8505      8504      8506      8506      8507
      8506      8508      8508      8509      8508      8510      8508      8511
      8511      8512      8511      8513      8511      8514      8514      8515
      8514      8516      8514      8517      8517      8518      8517      8519
      8517      8520      8520      8521      8520      8522      8520      8523
      8471      8472      8472      8474      8472      8473      8474      8475
      8474      8476      8474      8524      8524      8525      8524      8526
      8524      8527      8527      8528      8527      8529      8527      8530
      8530      8531      8530      8532      8530      8533      8533      8534
      8533      8535      8533      8536      8536      8537      8536      8538
      8536      8539      8539      8540      8539      8541      8539      8542
      8542      8543      8542      8544      8542      8545      8545      8546
      8545      8547      8545      8548      8548      8549      8548      8550
      8548      8551      8551      8552      8551      8553      8551      8554
      8554      8555      8554      8556      8554      8557      8557      8558
      8557      8559      8557      8560      8560      8561      8560      8562
      8560      8563      8563      8564      8563      8565      8563      8566
      8566      8567      8566      8568      8566      8569      8569      8570
      8569      8571      8569      8572      8573      8577      8573      8581
      8573      8585      8577      8578      8577      8579      8577      8580
      8581      8582      8581      8583      8581      8584      8585      8586
      8585      8587      8585      8588      8573      8574      8574      8575
      8574      8576      8574      8589      8589      8590      8589      8591
      8589      8595      8596      8597      8595      8592      8592      8596
      8592      8593      8592      8594      8597      8598      8597      8599
      8597      8600      8600      8601      8600      8608      8600      8602
      8608      8609      8608      8610      8608      8611      8602      8603
      8603      8605      8603      8604      8605      8606      8605      8607
      8605      8617      8617      8618      8617      8619      8617      8620
      8620      8621      8620      8622      8620      8623      8623      8624
      8623      8625      8625      8626      8625      8627      8627      8628
      8627      8629      8627      8630      8630      8631      8630      8632
      8632      8633      8632      8634      8634      8635      8634      8636
      8634      8637      8637      8638      8637      8639      8639      8640
      8639      8641      8641      8642      8641      8643      8641      8644
      8644      8645      8644      8646      8646      8647      8646      8648
      8648      8649      8648      8650      8648      8651      8651      8652
      8651      8653      8651      8654      8654      8655      8654      8656
      8654      8657      8657      8658      8657      8659      8657      8660
      8660      8661      8660      8662      8660      8663      8611      8612
      8612      8614      8612      8613      8614      8615      8614      8616
      8614      8664      8664      8665      8664      8666      8664      8667
      8667      8668      8667      8669      8667      8670      8670      8671
      8670      8672      8670      8673      8673      8674      8673      8675
      8673      8676      8676      8677      8676      8678      8676      8679
      8679      8680      8679      8681      8679      8682      8682      8683
      8682      8684      8682      8685      8685      8686      8685      8687
      8685      8688      8688      8689      8688      8690      8688      8691
      8691      8692      8691      8693      8691      8694      8694      8695
      8694      8696      8694      8697      8697      8698      8697      8699
      8697      8700      8700      8701      8700      8702      8700      8703
      8703      8704      8703      8705      8703      8706      8706      8707
      8706      8708      8706      8709      8709      8710      8709      8711
      8709      8712      7467      7468      7467      7472      7467      7476
      7468      7469      7468      7470      7468      7471      7472      7473
      7472      7474      7472      7475      7476      7477      7476      7478
      7476      7479      7467      7480      7480      7481      7480      7482
      7480      7483      7483      7484      7483      7485      7483      7489
      7490      7491      7489      7486      7486      7490      7486      7487
      7486      7488      7491      7492      7491      7493      7491      7494
      7494      7495      7494      7502      7494      7496      7502      7503
      7502      7504      7502      7505      7496      7497      7497      7499
      7497      7498      7499      7500      7499      7501      7499      7511
      7511      7512      7511      7513      7511      7514      7514      7515
      7514      7516      7514      7517      7517      7518      7517      7519
      7517      7520      7520      7521      7520      7522      7520      7523
      7523      7524      7523      7525      7523      7526      7526      7527
      7526      7528      7526      7529      7529      7530      7529      7531
      7531      7532      7531      7533      7533      7534      7533      7535
      7533      7536      7536      7537      7536      7538      7538      7539
      7538      7540      7540      7541      7540      7542      7540      7543
      7543      7544      7543      7545      7543      7546      7546      7547
      7546      7548      7546      7549      7549      7550      7549      7551
      7549      7552      7552      7553      7552      7554      7552      7555
      7505      7506      7506      7508      7506      7507      7508      7509
      7508      7510      7508      7556      7556      7557      7556      7558
      7556      7559      7559      7560      7559      7561      7559      7562
      7562      7563      7562      7564      7562      7565      7565      7566
      7565      7567      7565      7568      7568      7569      7568      7570
      7568      7571      7571      7572      7571      7573      7571      7574
      7574      7575      7574      7576      7574      7577      7577      7578
      7577      7579      7577      7580      7580      7581      7580      7582
      7580      7583      7583      7584      7583      7585      7583      7586
      7586      7587      7586      7588      7586      7589      7589      7590
      7589      7591      7589      7592      7592      7593      7592      7594
      7592      7595      7595      7596      7595      7597      7595      7598
      7598      7599      7598      7600      7598      7601      7601      7602
      7601      7603      7601      7604      3816      3817      3816      3818
      3816      3819      3816      3820      3820      3821      3820      3822
      3820      3823      3823      3824      3823      3825      3823      3829
      3831      3830      3829      3826      3826      3830      3826      3827
      3826      3828      3831      3832      3831      3833      3831      3834
      3834      3835      3834      3842      3834      3836      3842      3843
      3842      3844      3842      3845      3836      3837      3837      3839
      3837      3838      3839      3840      3839      3841      3839      3851
      3851      3852      3851      3853      3851      3854      3854      3855
      3854      3856      3854      3857      3857      3858      3857      3859
      3859      3860      3859      3861      3861      3862      3861      3863
      3861      3864      3864      3865      3864      3866      3866      3867
      3866      3868      3868      3869      3868      3870      3868      3871
      3871      3872      3871      3873      3873      3874      3873      3875
      3875      3876      3875      3877      3875      3878      3878      3879
      3878      3880      3880      3881      3880      3882      3882      3883
      3882      3884      3882      3885      3885      3886      3885      3887
      3885      3888      3888      3889      3888      3890      3888      3891
      3891      3892      3891      3893      3891      3894      3894      3895
      3894      3896      3894      3897      3845      3846      3846      3848
      3846      3847      3848      3849      3848      3850      3848      3898
      3898      3899      3898      3900      3898      3901      3901      3902
      3901      3903      3901      3904      3904      3905      3904      3906
      3904      3907      3907      3908      3907      3909      3907      3910
      3910      3911      3910      3912      3910      3913      3913      3914
      3913      3915      3913      3916      3916      3917      3916      3918
      3916      3919      3919      3920      3919      3921      3919      3922
      3922      3923      3922      3924      3922      3925      3925      3926
      3925      3927      3925      3928      3928      3929      3928      3930
      3928      3931      3931      3932      3931      3933      3931      3934
      3934      3935      3934      3936      3934      3937      3937      3938
      3937      3939      3937      3940      3940      3941      3940      3942
      3940      3943      3943      3944      3943      3945      3943      3946
      5701      5703      5701      5702      5703      5704      5701      5747
      5747      5748      5747      5749      5747      5744      5744      5745
      5744      5746      5701      5705      5705      5706      5705      5707
      5705      5708      5708      5739      5739      5744      5739      5740
      5740      5741      5740      5742      5740      5743      5708      5709
      5709      5710      5709      5711      5711      5712      5711      5713
      5711      5714      5714      5715      5714      5737      5737      5738
      5737      5739      5714      5716      5716      5717      5716      5726
      5726      5731      5731      5732      5731      5733      5731      5734
      5734      5735      5734      5736      5734      5737      5726      5727
      5727      5728      5727      5729      5727      5730      5716      5718
      5718      5719      5718      5720      5718      5721      5721      5722
      5721      5723      5721      5724      5724      5725      5724      5726
      5724      5750      5750      5751      5750      5752      5752      5753
      5752      5754      5752      5755      5750      5756      5756      5757
      5756      5758      5756      5759      5759      5760      5759      5761
      5759      5762      5762      5763      5762      5764      5762      5765
      5765      5766      5765      5767      5767      5768      5767      5769
      5767      5770      5765      5771      5771      5772      5771      5773
      5771      5774      5775      5777      5775      5776      5777      5778
      5775      5821      5821      5822      5821      5823      5821      5818
      5818      5819      5818      5820      5775      5779      5779      5780
      5779      5781      5779      5782      5782      5813      5813      5818
      5813      5814      5814      5815      5814      5816      5814      5817
      5782      5783      5783      5784      5783      5785      5785      5786
      5785      5787      5785      5788      5788      5789      5788      5811
      5811      5812      5811      5813      5788      5790      5790      5791
      5790      5800      5800      5805      5805      5806      5805      5807
      5805      5808      5808      5809      5808      5810      5808      5811
      5800      5801      5801      5802      5801      5803      5801      5804
      5790      5792      5792      5793      5792      5794      5792      5795
      5795      5796      5795      5797      5795      5798      5798      5799
      5798      5800      5798      5824      5824      5825      5824      5826
      5826      5827      5826      5828      5826      5829      5824      5830
      5830      5831      5830      5832      5830      5833      5833      5834
      5833      5835      5833      5836      5836      5837      5836      5838
      5836      5839      5839      5840      5839      5841      5841      5842
      5841      5843      5841      5844      5839      5845      5845      5846
      5845      5847      5845      5848       469       470       469       471
       469       472       469       466       466       467       466       468
       466       463       463       464       463       465       463       460
       460       461       460       462       460       457       457       458
       457       459       457       454       454       455       454       456
       454       451       451       452       451       453       451       448
       448       449       448       450       448       445       445       446
       445       447       445       442       442       443       442       444
       442       439       439       440       439       441       439       436
       436       437       436       438       436       433       433       434
       433       435       433       431       431       432       429       430
       429       425       425       426       425       427       427       428
       425       423       423       424       423       418       418       419
       418       420       418       416       416       413       417       413
       414       413       415       413       417       410       410       411
       410       412       410       407       407       408       407       409
       407       394       394       403       394       399       394       395
       403       404       403       405       403       406       399       400
       399       401       399       402       395       396       395       397
       395       398       423       421       421       422       421       473
       473       475       475       476       475       477       475       478
       478       479       478       480       478       481       481       482
       481       483       481       484       484       485       484       486
       484       487       487       488       487       489       487       490
       490       491       490       492       490       493       493       494
       493       495       493       496       496       497       498       499
       498       500       500       501       500       502       500       503
       503       504       503       505       503       506       506       507
       506       508       506       509       509       510       509       511
       509       512       512       513       512       514       512       515
       515       516       515       517       515       518       518       519
       518       520       518       521       521       522       521       523
       521       524       429       431       496       498       473       474
      9553      9557      9553      9561      9553      9565      9557      9558
      9557      9559      9557      9560      9561      9562      9561      9563
      9561      9564      9565      9566      9565      9567      9565      9568
      9553      9554      9554      9555      9554      9556      9554      9569
      9569      9570      9569      9571      9569      9575      9576      9577
      9575      9572      9572      9576      9572      9573      9572      9574
      9577      9578      9577      9579      9577      9580      9580      9581
      9580      9588      9580      9582      9588      9589      9588      9590
      9588      9591      9582      9583      9583      9585      9583      9584
      9585      9586      9585      9587      9585      9597      9597      9598
      9597      9599      9597      9600      9600      9601      9600      9602
      9600      9603      9603      9604      9603      9605      9603      9606
      9606      9607      9606      9608      9606      9609      9609      9610
      9609      9611      9609      9612      9612      9613      9612      9614
      9612      9615      9615      9616      9615      9617      9617      9618
      9617      9619      9619      9620      9619      9621      9619      9622
      9622      9623      9622      9624      9622      9625      9625      9626
      9625      9627      9625      9628      9628      9629      9628      9630
      9628      9631      9631      9632      9631      9633      9631      9634
      9634      9635      9634      9636      9634      9637      9637      9638
      9637      9639      9637      9640      9640      9641      9640      9642
      9640      9643      9591      9592      9592      9594      9592      9593
      9594      9595      9594      9596      9594      9644      9644      9645
      9644      9646      9644      9647      9647      9648      9647      9649
      9647      9650      9650      9651      9650      9652      9650      9653
      9653      9654      9653      9655      9653      9656      9656      9657
      9656      9658      9656      9659      9659      9660      9659      9661
      9659      9662      9662      9663      9662      9664      9662      9665
      9665      9666      9665      9667      9665      9668      9668      9669
      9668      9670      9668      9671      9671      9672      9671      9673
      9671      9674      9674      9675      9674      9676      9674      9677
      9677      9678      9677      9679      9677      9680      9680      9681
      9680      9682      9680      9683      9683      9684      9683      9685
      9683      9686      2492      2493      2492      2494      2492      2495
      2492      2496      2500      2498      2498      2496      2498      2499
      2496      2497      2496      2501      2509      2508      2501      2502
      2501      2503      2501      2507      2507      2504      2504      2508
      2504      2505      2504      2506      2509      2510      2509      2511
      2509      2512      2512      2513      2512      2520      2512      2514
      2520      2521      2520      2522      2520      2523      2514      2515
      2515      2517      2515      2516      2517      2518      2517      2519
      2517      2529      2529      2530      2529      2531      2529      2532
      2532      2533      2532      2534      2532      2535      2535      2536
      2535      2537      2537      2538      2537      2539      2539      2540
      2539      2541      2539      2542      2542      2543      2542      2544
      2544      2545      2544      2546      2546      2547      2546      2548
      2546      2549      2549      2550      2549      2551      2551      2552
      2551      2553      2553      2554      2553      2555      2553      2556
      2556      2557      2556      2558      2558      2559      2558      2560
      2560      2561      2560      2562      2560      2563      2563      2564
      2563      2565      2563      2566      2566      2567      2566      2568
      2566      2569      2569      2570      2569      2571      2569      2572
      2572      2573      2572      2574      2572      2575      2523      2524
      2524      2526      2524      2525      2526      2527      2526      2528
      2526      2576      2576      2577      2576      2578      2576      2579
      2579      2580      2579      2581      2579      2582      2582      2583
      2582      2584      2582      2585      2585      2586      2585      2587
      2585      2588      2588      2589      2588      2590      2588      2591
      2591      2592      2591      2593      2591      2594      2594      2595
      2594      2596      2594      2597      2597      2598      2597      2599
      2597      2600      2600      2601      2600      2602      2600      2603
      2603      2604      2603      2605      2603      2606      2606      2607
      2606      2608      2606      2609      2609      2610      2609      2611
      2609      2612      2612      2613      2612      2614      2612      2615
      2615      2616      2615      2617      2615      2618      2618      2619
      2618      2620      2618      2621      2621      2622      2621      2623
      2621      2624       600       601       600       602       600       603
       600       597       597       598       597       599       597       594
       594       595       594       596       594       591       591       592
       591       593       591       588       588       589       588       590
       588       585       585       586       585       587       585       582
       582       583       582       584       582       579       579       580
       579       581       579       576       576       577       576       578
       576       573       573       574       573       575       573       570
       570       571       570       572       570       567       567       568
       567       569       567       564       564       565       564       566
       564       562       562       563       560       561       560       556
       556       557       556       558       558       559       556       554
       554       555       554       549       549       550       549       551
       549       547       547       544       548       544       545       544
       546       544       548       541       541       542       541       543
       541       538       538       539       538       540       538       525
       525       534       525       530       525       526       534       535
       534       536       534       537       530       531       530       532
       530       533       526       527       526       528       526       529
       554       552       552       553       552       604       604       606
       606       607       606       608       606       609       609       610
       609       611       609       612       612       613       612       614
       612       615       615       616       615       617       615       618
       618       619       618       620       618       621       621       622
       621       623       621       624       624       625       624       626
       624       627       627       628       629       630       629       631
       631       632       631       633       631       634       634       635
       634       636       634       637       637       638       637       639
       637       640       640       641       640       642       640       643
       643       644       643       645       643       646       646       647
       646       648       646       649       649       650       649       651
       649       652       652       653       652       654       652       655
       560       562       627       629       604       605      3947      3948
      3947      3949      3947      3950      3947      3951      3951      3952
      3951      3953      3951      3954      3954      3955      3954      3956
      3954      3960      3962      3961      3960      3957      3957      3961
      3957      3958      3957      3959      3962      3963      3962      3964
      3962      3965      3965      3966      3965      3973      3965      3967
      3973      3974      3973      3975      3973      3976      3967      3968
      3968      3970      3968      3969      3970      3971      3970      3972
      3970      3982      3982      3983      3982      3984      3982      3985
      3985      3986      3985      3987      3985      3988      3988      3989
      3988      3990      3990      3991      3990      3992      3992      3993
      3992      3994      3992      3995      3995      3996      3995      3997
      3997      3998      3997      3999      3999      4000      3999      4001
      3999      4002      4002      4003      4002      4004      4004      4005
      4004      4006      4006      4007      4006      4008      4006      4009
      4009      4010      4009      4011      4011      4012      4011      4013
      4013      4014      4013      4015      4013      4016      4016      4017
      4016      4018      4016      4019      4019      4020      4019      4021
      4019      4022      4022      4023      4022      4024      4022      4025
      4025      4026      4025      4027      4025      4028      3976      3977
      3977      3979      3977      3978      3979      3980      3979      3981
      3979      4029      4029      4030      4029      4031      4029      4032
      4032      4033      4032      4034      4032      4035      4035      4036
      4035      4037      4035      4038      4038      4039      4038      4040
      4038      4041      4041      4042      4041      4043      4041      4044
      4044      4045      4044      4046      4044      4047      4047      4048
      4047      4049      4047      4050      4050      4051      4050      4052
      4050      4053      4053      4054      4053      4055      4053      4056
      4056      4057      4056      4058      4056      4059      4059      4060
      4059      4061      4059      4062      4062      4063      4062      4064
      4062      4065      4065      4066      4065      4067      4065      4068
      4068      4069      4068      4070      4068      4071      4071      4072
      4071      4073      4071      4074      4074      4075      4074      4076
      4074      4077     10089     10090     10089     10091     10089     10092
     10089     10093     10093     10094     10093     10095     10093     10096
     10096     10097     10096     10098     10096     10102     10104     10103
     10102     10099     10099     10103     10099     10100     10099     10101
     10104     10105     10104     10106     10104     10107     10107     10108
     10107     10115     10107     10109     10115     10116     10115     10117
     10115     10118     10109     10110     10110     10112     10110     10111
     10112     10113     10112     10114     10112     10124     10124     10125
     10124     10126     10124     10127     10127     10128     10127     10129
     10127     10130     10130     10131     10130     10132     10130     10133
     10133     10134     10133     10135     10133     10136     10136     10137
     10136     10138     10136     10139     10139     10140     10139     10141
     10139     10142     10142     10143     10142     10144     10144     10145
     10144     10146     10146     10147     10146     10148     10146     10149
     10149     10150     10149     10151     10149     10152     10152     10153
     10152     10154     10152     10155     10155     10156     10155     10157
     10155     10158     10158     10159     10158     10160     10158     10161
     10161     10162     10161     10163     10161     10164     10164     10165
     10164     10166     10164     10167     10167     10168     10167     10169
     10167     10170     10118     10119     10119     10121     10119     10120
     10121     10122     10121     10123     10121     10171     10171     10172
     10171     10173     10171     10174     10174     10175     10174     10176
     10174     10177     10177     10178     10177     10179     10177     10180
     10180     10181     10180     10182     10180     10183     10183     10184
     10183     10185     10183     10186     10186     10187     10186     10188
     10186     10189     10189     10190     10189     10191     10189     10192
     10192     10193     10192     10194     10192     10195     10195     10196
     10195     10197     10195     10198     10198     10199     10198     10200
     10198     10201     10201     10202     10201     10203     10201     10204
     10204     10205     10204     10206     10204     10207     10207     10208
     10207     10209     10207     10210     10210     10211     10210     10212
     10210     10213     10213     10214     10213     10215     10213     10216
     10216     10217     10216     10218     10216     10219       731       732
       731       733       731       734       731       728       728       729
       728       730       728       725       725       726       725       727
       725       722       722       723       722       724       722       719
       719       720       719       721       719       716       716       717
       716       718       716       713       713       714       713       715
       713       710       710       711       710       712       710       707
       707       708       707       709       707       704       704       705
       704       706       704       701       701       702       701       703
       701       698       698       699       698       700       698       695
       695       696       695       697       695       693       693       694
       691       692       691       687       687       688       687       689
       689       690       687       685       685       686       685       680
       680       681       680       682       680       678       678       675
       679       675       676       675       677       675       679       672
       672       673       672       674       672       669       669       670
       669       671       669       656       656       665       656       661
       656       657       665       666       665       667       665       668
       661       662       661       663       661       664       657       658
       657       659       657       660       685       683       683       684
       683       735       735       737       737       738       737       739
       737       740       740       741       740       742       740       743
       743       744       743       745       743       746       746       747
       746       748       746       749       749       750       749       751
       749       752       752       753       752       754       752       755
       755       756       755       757       755       758       758       759
       760       761       760       762       762       763       762       764
       762       765       765       766       765       767       765       768
       768       769       768       770       768       771       771       772
       771       773       771       774       774       775       774       776
       774       777       777       778       777       779       777       780
       780       781       780       782       780       783       783       784
       783       785       783       786       691       693       758       760
       735       736       862       863       862       864       862       865
       862       859       859       860       859       861       859       856
       856       857       856       858       856       853       853       854
       853       855       853       850       850       851       850       852
       850       847       847       848       847       849       847       844
       844       845       844       846       844       841       841       842
       841       843       841       838       838       839       838       840
       838       835       835       836       835       837       835       832
       832       833       832       834       832       829       829       830
       829       831       829       826       826       827       826       828
       826       824       824       825       822       823       822       818
       818       819       818       820       820       821       818       816
       816       817       816       811       811       812       811       813
       811       809       809       806       810       806       807       806
       808       806       810       803       803       804       803       805
       803       800       800       801       800       802       800       787
       787       796       787       792       787       788       796       797
       796       798       796       799       792       793       792       794
       792       795       788       789       788       790       788       791
       816       814       814       815       814       866       866       868
       868       869       868       870       868       871       871       872
       871       873       871       874       874       875       874       876
       874       877       877       878       877       879       877       880
       880       881       880       882       880       883       883       884
       883       885       883       886       886       887       886       888
       886       889       889       890       891       892       891       893
       893       894       893       895       893       896       896       897
       896       898       896       899       899       900       899       901
       899       902       902       903       902       904       902       905
       905       906       905       907       905       908       908       909
       908       910       908       911       911       912       911       913
       911       914       914       915       914       916       914       917
       822       824       889       891       866       867       993       994
       993       995       993       996       993       990       990       991
       990       992       990       987       987       988       987       989
       987       984       984       985       984       986       984       981
       981       982       981       983       981       978       978       979
       978       980       978       975       975       976       975       977
       975       972       972       973       972       974       972       969
       969       970       969       971       969       966       966       967
       966       968       966       963       963       964       963       965
       963       960       960       961       960       962       960       957
       957       958       957       959       957       955       955       956
       953       954       953       949       949       950       949       951
       951       952       949       947       947       948       947       942
       942       943       942       944       942       940       940       937
       941       937       938       937       939       937       941       934
       934       935       934       936       934       931       931       932
       931       933       931       918       918       927       918       923
       918       919       927       928       927       929       927       930
       923       924       923       925       923       926       919       920
       919       921       919       922       947       945       945       946
       945       997       997       999       999      1000       999      1001
       999      1002      1002      1003      1002      1004      1002      1005
      1005      1006      1005      1007      1005      1008      1008      1009
      1008      1010      1008      1011      1011      1012      1011      1013
      1011      1014      1014      1015      1014      1016      1014      1017
      1017      1018      1017      1019      1017      1020      1020      1021
      1022      1023      1022      1024      1024      1025      1024      1026
      1024      1027      1027      1028      1027      1029      1027      1030
      1030      1031      1030      1032      1030      1033      1033      1034
      1033      1035      1033      1036      1036      1037      1036      1038
      1036      1039      1039      1040      1039      1041      1039      1042
      1042      1043      1042      1044      1042      1045      1045      1046
      1045      1047      1045      1048       953       955      1020      1022
       997       998     10220     10221     10220     10222     10220     10223
     10220     10224     10224     10225     10224     10226     10224     10227
     10227     10228     10227     10229     10227     10233     10235     10234
     10233     10230     10230     10234     10230     10231     10230     10232
     10235     10236     10235     10237     10235     10238     10238     10239
     10238     10246     10238     10240     10246     10247     10246     10248
     10246     10249     10240     10241     10241     10243     10241     10242
     10243     10244     10243     10245     10243     10255     10255     10256
     10255     10257     10255     10258     10258     10259     10258     10260
     10258     10261     10261     10262     10261     10263     10261     10264
     10264     10265     10264     10266     10264     10267     10267     10268
     10267     10269     10267     10270     10270     10271     10270     10272
     10270     10273     10273     10274     10273     10275     10275     10276
     10275     10277     10277     10278     10277     10279     10277     10280
     10280     10281     10280     10282     10280     10283     10283     10284
     10283     10285     10283     10286     10286     10287     10286     10288
     10286     10289     10289     10290     10289     10291     10289     10292
     10292     10293     10292     10294     10292     10295     10295     10296
     10295     10297     10295     10298     10298     10299     10298     10300
     10298     10301     10249     10250     10250     10252     10250     10251
     10252     10253     10252     10254     10252     10302     10302     10303
     10302     10304     10302     10305     10305     10306     10305     10307
     10305     10308     10308     10309     10308     10310     10308     10311
     10311     10312     10311     10313     10311     10314     10314     10315
     10314     10316     10314     10317     10317     10318     10317     10319
     10317     10320     10320     10321     10320     10322     10320     10323
     10323     10324     10323     10325     10323     10326     10326     10327
     10326     10328     10326     10329     10329     10330     10329     10331
     10329     10332     10332     10333     10332     10334     10332     10335
     10335     10336     10335     10337     10335     10338     10338     10339
     10338     10340     10338     10341     10341     10342     10341     10343
     10341     10344     10344     10345     10344     10346     10344     10347
     10347     10348     10347     10349     10347     10350      1124      1125
      1124      1126      1124      1127      1124      1121      1121      1122
      1121      1123      1121      1118      1118      1119      1118      1120
      1118      1115      1115      1116      1115      1117      1115      1112
      1112      1113      1112      1114      1112      1109      1109      1110
      1109      1111      1109      1106      1106      1107      1106      1108
      1106      1103      1103      1104      1103      1105      1103      1100
      1100      1101      1100      1102      1100      1097      1097      1098
      1097      1099      1097      1094      1094      1095      1094      1096
      1094      1091      1091      1092      1091      1093      1091      1088
      1088      1089      1088      1090      1088      1086      1086      1087
      1084      1085      1084      1080      1080      1081      1080      1082
      1082      1083      1080      1078      1078      1079      1078      1073
      1073      1074      1073      1075      1073      1071      1071      1068
      1072      1068      1069      1068      1070      1068      1072      1065
      1065      1066      1065      1067      1065      1062      1062      1063
      1062      1064      1062      1049      1049      1058      1049      1054
      1049      1050      1058      1059      1058      1060      1058      1061
      1054      1055      1054      1056      1054      1057      1050      1051
      1050      1052      1050      1053      1078      1076      1076      1077
      1076      1128      1128      1130      1130      1131      1130      1132
      1130      1133      1133      1134      1133      1135      1133      1136
      1136      1137      1136      1138      1136      1139      1139      1140
      1139      1141      1139      1142      1142      1143      1142      1144
      1142      1145      1145      1146      1145      1147      1145      1148
      1148      1149      1148      1150      1148      1151      1151      1152
      1153      1154      1153      1155      1155      1156      1155      1157
      1155      1158      1158      1159      1158      1160      1158      1161
      1161      1162      1161      1163      1161      1164      1164      1165
      1164      1166      1164      1167      1167      1168      1167      1169
      1167      1170      1170      1171      1170      1172      1170      1173
      1173      1174      1173      1175      1173      1176      1176      1177
      1176      1178      1176      1179      1084      1086      1151      1153
      1128      1129      5849      5851      5849      5850      5851      5852
      5849      5895      5895      5896      5895      5897      5895      5892
      5892      5893      5892      5894      5849      5853      5853      5854
      5853      5855      5853      5856      5856      5887      5887      5892
      5887      5888      5888      5889      5888      5890      5888      5891
      5856      5857      5857      5858      5857      5859      5859      5860
      5859      5861      5859      5862      5862      5863      5862      5885
      5885      5886      5885      5887      5862      5864      5864      5865
      5864      5874      5874      5879      5879      5880      5879      5881
      5879      5882      5882      5883      5882      5884      5882      5885
      5874      5875      5875      5876      5875      5877      5875      5878
      5864      5866      5866      5867      5866      5868      5866      5869
      5869      5870      5869      5871      5869      5872      5872      5873
      5872      5874      5872      5898      5898      5899      5898      5900
      5900      5901      5900      5902      5900      5903      5898      5904
      5904      5905      5904      5906      5904      5907      5907      5908
      5907      5909      5907      5910      5910      5911      5910      5912
      5910      5913      5913      5914      5913      5915      5915      5916
      5915      5917      5915      5918      5913      5919      5919      5920
      5919      5921      5919      5922      4078      4079      4078      4080
      4078      4081      4078      4082      4082      4083      4082      4084
      4082      4085      4085      4086      4085      4087      4085      4091
      4093      4092      4091      4088      4088      4092      4088      4089
      4088      4090      4093      4094      4093      4095      4093      4096
      4096      4097      4096      4104      4096      4098      4104      4105
      4104      4106      4104      4107      4098      4099      4099      4101
      4099      4100      4101      4102      4101      4103      4101      4113
      4113      4114      4113      4115      4113      4116      4116      4117
      4116      4118      4116      4119      4119      4120      4119      4121
      4121      4122      4121      4123      4123      4124      4123      4125
      4123      4126      4126      4127      4126      4128      4128      4129
      4128      4130      4130      4131      4130      4132      4130      4133
      4133      4134      4133      4135      4135      4136      4135      4137
      4137      4138      4137      4139      4137      4140      4140      4141
      4140      4142      4142      4143      4142      4144      4144      4145
      4144      4146      4144      4147      4147      4148      4147      4149
      4147      4150      4150      4151      4150      4152      4150      4153
      4153      4154      4153      4155      4153      4156      4156      4157
      4156      4158      4156      4159      4107      4108      4108      4110
      4108      4109      4110      4111      4110      4112      4110      4160
      4160      4161      4160      4162      4160      4163      4163      4164
      4163      4165      4163      4166      4166      4167      4166      4168
      4166      4169      4169      4170      4169      4171      4169      4172
      4172      4173      4172      4174      4172      4175      4175      4176
      4175      4177      4175      4178      4178      4179      4178      4180
      4178      4181      4181      4182      4181      4183      4181      4184
      4184      4185      4184      4186      4184      4187      4187      4188
      4187      4189      4187      4190      4190      4191      4190      4192
      4190      4193      4193      4194      4193      4195      4193      4196
      4196      4197      4196      4198      4196      4199      4199      4200
      4199      4201      4199      4202      4202      4203      4202      4204
      4202      4205      4205      4206      4205      4207      4205      4208
      2625      2626      2625      2627      2625      2628      2625      2629
      2633      2631      2631      2629      2631      2632      2629      2630
      2629      2634      2642      2641      2634      2635      2634      2636
      2634      2640      2640      2637      2637      2641      2637      2638
      2637      2639      2642      2643      2642      2644      2642      2645
      2645      2646      2645      2653      2645      2647      2653      2654
      2653      2655      2653      2656      2647      2648      2648      2650
      2648      2649      2650      2651      2650      2652      2650      2662
      2662      2663      2662      2664      2662      2665      2665      2666
      2665      2667      2665      2668      2668      2669      2668      2670
      2670      2671      2670      2672      2672      2673      2672      2674
      2672      2675      2675      2676      2675      2677      2677      2678
      2677      2679      2679      2680      2679      2681      2679      2682
      2682      2683      2682      2684      2684      2685      2684      2686
      2686      2687      2686      2688      2686      2689      2689      2690
      2689      2691      2691      2692      2691      2693      2693      2694
      2693      2695      2693      2696      2696      2697      2696      2698
      2696      2699      2699      2700      2699      2701      2699      2702
      2702      2703      2702      2704      2702      2705      2705      2706
      2705      2707      2705      2708      2656      2657      2657      2659
      2657      2658      2659      2660      2659      2661      2659      2709
      2709      2710      2709      2711      2709      2712      2712      2713
      2712      2714      2712      2715      2715      2716      2715      2717
      2715      2718      2718      2719      2718      2720      2718      2721
      2721      2722      2721      2723      2721      2724      2724      2725
      2724      2726      2724      2727      2727      2728      2727      2729
      2727      2730      2730      2731      2730      2732      2730      2733
      2733      2734      2733      2735      2733      2736      2736      2737
      2736      2738      2736      2739      2739      2740      2739      2741
      2739      2742      2742      2743      2742      2744      2742      2745
      2745      2746      2745      2747      2745      2748      2748      2749
      2748      2750      2748      2751      2751      2752      2751      2753
      2751      2754      2754      2755      2754      2756      2754      2757
      8713      8717      8713      8721      8713      8725      8717      8718
      8717      8719      8717      8720      8721      8722      8721      8723
      8721      8724      8725      8726      8725      8727      8725      8728
      8713      8714      8714      8715      8714      8716      8714      8729
      8729      8730      8729      8731      8729      8735      8736      8737
      8735      8732      8732      8736      8732      8733      8732      8734
      8737      8738      8737      8739      8737      8740      8740      8741
      8740      8748      8740      8742      8748      8749      8748      8750
      8748      8751      8742      8743      8743      8745      8743      8744
      8745      8746      8745      8747      8745      8757      8757      8758
      8757      8759      8757      8760      8760      8761      8760      8762
      8760      8763      8763      8764      8763      8765      8765      8766
      8765      8767      8767      8768      8767      8769      8767      8770
      8770      8771      8770      8772      8772      8773      8772      8774
      8774      8775      8774      8776      8774      8777      8777      8778
      8777      8779      8779      8780      8779      8781      8781      8782
      8781      8783      8781      8784      8784      8785      8784      8786
      8786      8787      8786      8788      8788      8789      8788      8790
      8788      8791      8791      8792      8791      8793      8791      8794
      8794      8795      8794      8796      8794      8797      8797      8798
      8797      8799      8797      8800      8800      8801      8800      8802
      8800      8803      8751      8752      8752      8754      8752      8753
      8754      8755      8754      8756      8754      8804      8804      8805
      8804      8806      8804      8807      8807      8808      8807      8809
      8807      8810      8810      8811      8810      8812      8810      8813
      8813      8814      8813      8815      8813      8816      8816      8817
      8816      8818      8816      8819      8819      8820      8819      8821
      8819      8822      8822      8823      8822      8824      8822      8825
      8825      8826      8825      8827      8825      8828      8828      8829
      8828      8830      8828      8831      8831      8832      8831      8833
      8831      8834      8834      8835      8834      8836      8834      8837
      8837      8838      8837      8839      8837      8840      8840      8841
      8840      8842      8840      8843      8843      8844      8843      8845
      8843      8846      8846      8847      8846      8848      8846      8849
      8849      8850      8849      8851      8849      8852      9687      9691
      9687      9695      9687      9699      9691      9692      9691      9693
      9691      9694      9695      9696      9695      9697      9695      9698
      9699      9700      9699      9701      9699      9702      9687      9688
      9688      9689      9688      9690      9688      9703      9703      9704
      9703      9705      9703      9709      9710      9711      9709      9706
      9706      9710      9706      9707      9706      9708      9711      9712
      9711      9713      9711      9714      9714      9715      9714      9722
      9714      9716      9722      9723      9722      9724      9722      9725
      9716      9717      9717      9719      9717      9718      9719      9720
      9719      9721      9719      9731      9731      9732      9731      9733
      9731      9734      9734      9735      9734      9736      9734      9737
      9737      9738      9737      9739      9737      9740      9740      9741
      9740      9742      9740      9743      9743      9744      9743      9745
      9743      9746      9746      9747      9746      9748      9746      9749
      9749      9750      9749      9751      9751      9752      9751      9753
      9753      9754      9753      9755      9753      9756      9756      9757
      9756      9758      9756      9759      9759      9760      9759      9761
      9759      9762      9762      9763      9762      9764      9762      9765
      9765      9766      9765      9767      9765      9768      9768      9769
      9768      9770      9768      9771      9771      9772      9771      9773
      9771      9774      9774      9775      9774      9776      9774      9777
      9725      9726      9726      9728      9726      9727      9728      9729
      9728      9730      9728      9778      9778      9779      9778      9780
      9778      9781      9781      9782      9781      9783      9781      9784
      9784      9785      9784      9786      9784      9787      9787      9788
      9787      9789      9787      9790      9790      9791      9790      9792
      9790      9793      9793      9794      9793      9795      9793      9796
      9796      9797      9796      9798      9796      9799      9799      9800
      9799      9801      9799      9802      9802      9803      9802      9804
      9802      9805      9805      9806      9805      9807      9805      9808
      9808      9809      9808      9810      9808      9811      9811      9812
      9811      9813      9811      9814      9814      9815      9814      9816
      9814      9817      9817      9818      9817      9819      9817      9820
      4209      4210      4209      4211      4209      4212      4209      4213
      4213      4214      4213      4215      4213      4216      4216      4217
      4216      4218      4216      4222      4224      4223      4222      4219
      4219      4223      4219      4220      4219      4221      4224      4225
      4224      4226      4224      4227      4227      4228      4227      4235
      4227      4229      4235      4236      4235      4237      4235      4238
      4229      4230      4230      4232      4230      4231      4232      4233
      4232      4234      4232      4244      4244      4245      4244      4246
      4244      4247      4247      4248      4247      4249      4247      4250
      4250      4251      4250      4252      4252      4253      4252      4254
      4254      4255      4254      4256      4254      4257      4257      4258
      4257      4259      4259      4260      4259      4261      4261      4262
      4261      4263      4261      4264      4264      4265      4264      4266
      4266      4267      4266      4268      4268      4269      4268      4270
      4268      4271      4271      4272      4271      4273      4273      4274
      4273      4275      4275      4276      4275      4277      4275      4278
      4278      4279      4278      4280      4278      4281      4281      4282
      4281      4283      4281      4284      4284      4285      4284      4286
      4284      4287      4287      4288      4287      4289      4287      4290
      4238      4239      4239      4241      4239      4240      4241      4242
      4241      4243      4241      4291      4291      4292      4291      4293
      4291      4294      4294      4295      4294      4296      4294      4297
      4297      4298      4297      4299      4297      4300      4300      4301
      4300      4302      4300      4303      4303      4304      4303      4305
      4303      4306      4306      4307      4306      4308      4306      4309
      4309      4310      4309      4311      4309      4312      4312      4313
      4312      4314      4312      4315      4315      4316      4315      4317
      4315      4318      4318      4319      4318      4320      4318      4321
      4321      4322      4321      4323      4321      4324      4324      4325
      4324      4326      4324      4327      4327      4328      4327      4329
      4327      4330      4330      4331      4330      4332      4330      4333
      4333      4334      4333      4335      4333      4336      4336      4337
      4336      4338      4336      4339     10351     10352     10351     10353
     10351     10354     10351     10355     10355     10356     10355     10357
     10355     10358     10358     10359     10358     10360     10358     10364
     10366     10365     10364     10361     10361     10365     10361     10362
     10361     10363     10366     10367     10366     10368     10366     10369
     10369     10370     10369     10377     10369     10371     10377     10378
     10377     10379     10377     10380     10371     10372     10372     10374
     10372     10373     10374     10375     10374     10376     10374     10386
     10386     10387     10386     10388     10386     10389     10389     10390
     10389     10391     10389     10392     10392     10393     10392     10394
     10392     10395     10395     10396     10395     10397     10395     10398
     10398     10399     10398     10400     10398     10401     10401     10402
     10401     10403     10401     10404     10404     10405     10404     10406
     10406     10407     10406     10408     10408     10409     10408     10410
     10408     10411     10411     10412     10411     10413     10411     10414
     10414     10415     10414     10416     10414     10417     10417     10418
     10417     10419     10417     10420     10420     10421     10420     10422
     10420     10423     10423     10424     10423     10425     10423     10426
     10426     10427     10426     10428     10426     10429     10429     10430
     10429     10431     10429     10432     10380     10381     10381     10383
     10381     10382     10383     10384     10383     10385     10383     10433
     10433     10434     10433     10435     10433     10436     10436     10437
     10436     10438     10436     10439     10439     10440     10439     10441
     10439     10442     10442     10443     10442     10444     10442     10445
     10445     10446     10445     10447     10445     10448     10448     10449
     10448     10450     10448     10451     10451     10452     10451     10453
     10451     10454     10454     10455     10454     10456     10454     10457
     10457     10458     10457     10459     10457     10460     10460     10461
     10460     10462     10460     10463     10463     10464     10463     10465
     10463     10466     10466     10467     10466     10468     10466     10469
     10469     10470     10469     10471     10469     10472     10472     10473
     10472     10474     10472     10475     10475     10476     10475     10477
     10475     10478     10478     10479     10478     10480     10478     10481
      2758      2759      2758      2760      2758      2761      2758      2762
      2766      2764      2764      2762      2764      2765      2762      2763
      2762      2767      2775      2774      2767      2768      2767      2769
      2767      2773      2773      2770      2770      2774      2770      2771
      2770      2772      2775      2776      2775      2777      2775      2778
      2778      2779      2778      2786      2778      2780      2786      2787
      2786      2788      2786      2789      2780      2781      2781      2783
      2781      2782      2783      2784      2783      2785      2783      2795
      2795      2796      2795      2797      2795      2798      2798      2799
      2798      2800      2798      2801      2801      2802      2801      2803
      2803      2804      2803      2805      2805      2806      2805      2807
      2805      2808      2808      2809      2808      2810      2810      2811
      2810      2812      2812      2813      2812      2814      2812      2815
      2815      2816      2815      2817      2817      2818      2817      2819
      2819      2820      2819      2821      2819      2822      2822      2823
      2822      2824      2824      2825      2824      2826      2826      2827
      2826      2828      2826      2829      2829      2830      2829      2831
      2829      2832      2832      2833      2832      2834      2832      2835
      2835      2836      2835      2837      2835      2838      2838      2839
      2838      2840      2838      2841      2789      2790      2790      2792
      2790      2791      2792      2793      2792      2794      2792      2842
      2842      2843      2842      2844      2842      2845      2845      2846
      2845      2847      2845      2848      2848      2849      2848      2850
      2848      2851      2851      2852      2851      2853      2851      2854
      2854      2855      2854      2856      2854      2857      2857      2858
      2857      2859      2857      2860      2860      2861      2860      2862
      2860      2863      2863      2864      2863      2865      2863      2866
      2866      2867      2866      2868      2866      2869      2869      2870
      2869      2871      2869      2872      2872      2873      2872      2874
      2872      2875      2875      2876      2875      2877      2875      2878
      2878      2879      2878      2880      2878      2881      2881      2882
      2881      2883      2881      2884      2884      2885      2884      2886
      2884      2887      2887      2888      2887      2889      2887      2890
     10895     10896     10895     10891     10895     10875     10895     10900
     10875     10876     10875     10877     10877     10878     10875     10879
     10879     10880     10879     10881     10881     10882     10879     10883
     10883     10884     10883     10885     10885     10886     10883     10887
     10887     10888     10887     10891     10891     10892     10891     10893
     10893     10894     10887     10889     10889     10890     10900     10897
     10897     10901     10897     10898     10897     10899     10901     10902
     10902     10903     10902     10904     10902     10905     10905     10906
     10905     10913     10905     10907     10913     10914     10913     10915
     10913     10916     10907     10908     10908     10910     10908     10909
     10910     10911     10910     10912     10910     10922     10922     10923
     10922     10924     10922     10925     10925     10926     10925     10927
     10925     10928     10928     10929     10928     10930     10930     10931
     10930     10932     10932     10933     10932     10934     10932     10935
     10935     10936     10935     10937     10937     10938     10937     10939
     10939     10940     10939     10941     10939     10942     10942     10943
     10942     10944     10944     10945     10944     10946     10946     10947
     10946     10948     10946     10949     10949     10950     10949     10951
     10951     10952     10951     10953     10953     10954     10953     10955
     10953     10956     10956     10957     10956     10958     10956     10959
     10959     10960     10959     10961     10959     10962     10962     10963
     10962     10964     10962     10965     10965     10966     10965     10967
     10965     10968     10916     10917     10917     10919     10917     10918
     10919     10920     10919     10921     10919     10969     10969     10970
     10969     10971     10969     10972     10972     10973     10972     10974
     10972     10975     10975     10976     10975     10977     10975     10978
     10978     10979     10978     10980     10978     10981     10981     10982
     10981     10983     10981     10984     10984     10985     10984     10986
     10984     10987     10987     10988     10987     10989     10987     10990
     10990     10991     10990     10992     10990     10993     10993     10994
     10993     10995     10993     10996     10996     10997     10996     10998
     10996     10999     10999     11000     10999     11001     10999     11002
     11002     11003     11002     11004     11002     11005     11005     11006
     11005     11007     11005     11008     11008     11009     11008     11010
     11008     11011     11011     11012     11011     11013     11011     11014
     11014     11015     11014     11016     11014     11017      5923      5925
      5923      5924      5925      5926      5923      5969      5969      5970
      5969      5971      5969      5966      5966      5967      5966      5968
      5923      5927      5927      5928      5927      5929      5927      5930
      5930      5961      5961      5966      5961      5962      5962      5963
      5962      5964      5962      5965      5930      5931      5931      5932
      5931      5933      5933      5934      5933      5935      5933      5936
      5936      5937      5936      5959      5959      5960      5959      5961
      5936      5938      5938      5939      5938      5948      5948      5953
      5953      5954      5953      5955      5953      5956      5956      5957
      5956      5958      5956      5959      5948      5949      5949      5950
      5949      5951      5949      5952      5938      5940      5940      5941
      5940      5942      5940      5943      5943      5944      5943      5945
      5943      5946      5946      5947      5946      5948      5946      5972
      5972      5973      5972      5974      5974      5975      5974      5976
      5974      5977      5972      5978      5978      5979      5978      5980
      5978      5981      5981      5982      5981      5983      5981      5984
      5984      5985      5984      5986      5984      5987      5987      5988
      5987      5989      5989      5990      5989      5991      5989      5992
      5987      5993      5993      5994      5993      5995      5993      5996
      5997      5999      5997      5998      5999      6000      5997      6043
      6043      6044      6043      6045      6043      6040      6040      6041
      6040      6042      5997      6001      6001      6002      6001      6003
      6001      6004      6004      6035      6035      6040      6035      6036
      6036      6037      6036      6038      6036      6039      6004      6005
      6005      6006      6005      6007      6007      6008      6007      6009
      6007      6010      6010      6011      6010      6033      6033      6034
      6033      6035      6010      6012      6012      6013      6012      6022
      6022      6027      6027      6028      6027      6029      6027      6030
      6030      6031      6030      6032      6030      6033      6022      6023
      6023      6024      6023      6025      6023      6026      6012      6014
      6014      6015      6014      6016      6014      6017      6017      6018
      6017      6019      6017      6020      6020      6021      6020      6022
      6020      6046      6046      6047      6046      6048      6048      6049
      6048      6050      6048      6051      6046      6052      6052      6053
      6052      6054      6052      6055      6055      6056      6055      6057
      6055      6058      6058      6059      6058      6060      6058      6061
      6061      6062      6061      6063      6063      6064      6063      6065
      6063      6066      6061      6067      6067      6068      6067      6069
      6067      6070      8853      8857      8853      8861      8853      8865
      8857      8858      8857      8859      8857      8860      8861      8862
      8861      8863      8861      8864      8865      8866      8865      8867
      8865      8868      8853      8854      8854      8855      8854      8856
      8854      8869      8869      8870      8869      8871      8869      8875
      8876      8877      8875      8872      8872      8876      8872      8873
      8872      8874      8877      8878      8877      8879      8877      8880
      8880      8881      8880      8888      8880      8882      8888      8889
      8888      8890      8888      8891      8882      8883      8883      8885
      8883      8884      8885      8886      8885      8887      8885      8897
      8897      8898      8897      8899      8897      8900      8900      8901
      8900      8902      8900      8903      8903      8904      8903      8905
      8905      8906      8905      8907      8907      8908      8907      8909
      8907      8910      8910      8911      8910      8912      8912      8913
      8912      8914      8914      8915      8914      8916      8914      8917
      8917      8918      8917      8919      8919      8920      8919      8921
      8921      8922      8921      8923      8921      8924      8924      8925
      8924      8926      8926      8927      8926      8928      8928      8929
      8928      8930      8928      8931      8931      8932      8931      8933
      8931      8934      8934      8935      8934      8936      8934      8937
      8937      8938      8937      8939      8937      8940      8940      8941
      8940      8942      8940      8943      8891      8892      8892      8894
      8892      8893      8894      8895      8894      8896      8894      8944
      8944      8945      8944      8946      8944      8947      8947      8948
      8947      8949      8947      8950      8950      8951      8950      8952
      8950      8953      8953      8954      8953      8955      8953      8956
      8956      8957      8956      8958      8956      8959      8959      8960
      8959      8961      8959      8962      8962      8963      8962      8964
      8962      8965      8965      8966      8965      8967      8965      8968
      8968      8969      8968      8970      8968      8971      8971      8972
      8971      8973      8971      8974      8974      8975      8974      8976
      8974      8977      8977      8978      8977      8979      8977      8980
      8980      8981      8980      8982      8980      8983      8983      8984
      8983      8985      8983      8986      8986      8987      8986      8988
      8986      8989      8989      8990      8989      8991      8989      8992
      6071      6073      6071      6072      6073      6074      6071      6117
      6117      6118      6117      6119      6117      6114      6114      6115
      6114      6116      6071      6075      6075      6076      6075      6077
      6075      6078      6078      6109      6109      6114      6109      6110
      6110      6111      6110      6112      6110      6113      6078      6079
      6079      6080      6079      6081      6081      6082      6081      6083
      6081      6084      6084      6085      6084      6107      6107      6108
      6107      6109      6084      6086      6086      6087      6086      6096
      6096      6101      6101      6102      6101      6103      6101      6104
      6104      6105      6104      6106      6104      6107      6096      6097
      6097      6098      6097      6099      6097      6100      6086      6088
      6088      6089      6088      6090      6088      6091      6091      6092
      6091      6093      6091      6094      6094      6095      6094      6096
      6094      6120      6120      6121      6120      6122      6122      6123
      6122      6124      6122      6125      6120      6126      6126      6127
      6126      6128      6126      6129      6129      6130      6129      6131
      6129      6132      6132      6133      6132      6134      6132      6135
      6135      6136      6135      6137      6137      6138      6137      6139
      6137      6140      6135      6141      6141      6142      6141      6143
      6141      6144      7605      7606      7605      7610      7605      7614
      7606      7607      7606      7608      7606      7609      7610      7611
      7610      7612      7610      7613      7614      7615      7614      7616
      7614      7617      7605      7618      7618      7619      7618      7620
      7618      7621      7621      7622      7621      7623      7621      7627
      7628      7629      7627      7624      7624      7628      7624      7625
      7624      7626      7629      7630      7629      7631      7629      7632
      7632      7633      7632      7640      7632      7634      7640      7641
      7640      7642      7640      7643      7634      7635      7635      7637
      7635      7636      7637      7638      7637      7639      7637      7649
      7649      7650      7649      7651      7649      7652      7652      7653
      7652      7654      7652      7655      7655      7656      7655      7657
      7655      7658      7658      7659      7658      7660      7658      7661
      7661      7662      7661      7663      7661      7664      7664      7665
      7664      7666      7664      7667      7667      7668      7667      7669
      7669      7670      7669      7671      7671      7672      7671      7673
      7671      7674      7674      7675      7674      7676      7676      7677
      7676      7678      7678      7679      7678      7680      7678      7681
      7681      7682      7681      7683      7681      7684      7684      7685
      7684      7686      7684      7687      7687      7688      7687      7689
      7687      7690      7690      7691      7690      7692      7690      7693
      7643      7644      7644      7646      7644      7645      7646      7647
      7646      7648      7646      7694      7694      7695      7694      7696
      7694      7697      7697      7698      7697      7699      7697      7700
      7700      7701      7700      7702      7700      7703      7703      7704
      7703      7705      7703      7706      7706      7707      7706      7708
      7706      7709      7709      7710      7709      7711      7709      7712
      7712      7713      7712      7714      7712      7715      7715      7716
      7715      7717      7715      7718      7718      7719      7718      7720
      7718      7721      7721      7722      7721      7723      7721      7724
      7724      7725      7724      7726      7724      7727      7727      7728
      7727      7729      7727      7730      7730      7731      7730      7732
      7730      7733      7733      7734      7733      7735      7733      7736
      7736      7737      7736      7738      7736      7739      7739      7740
      7739      7741      7739      7742      6145      6147      6145      6146
      6147      6148      6145      6191      6191      6192      6191      6193
      6191      6188      6188      6189      6188      6190      6145      6149
      6149      6150      6149      6151      6149      6152      6152      6183
      6183      6188      6183      6184      6184      6185      6184      6186
      6184      6187      6152      6153      6153      6154      6153      6155
      6155      6156      6155      6157      6155      6158      6158      6159
      6158      6181      6181      6182      6181      6183      6158      6160
      6160      6161      6160      6170      6170      6175      6175      6176
      6175      6177      6175      6178      6178      6179      6178      6180
      6178      6181      6170      6171      6171      6172      6171      6173
      6171      6174      6160      6162      6162      6163      6162      6164
      6162      6165      6165      6166      6165      6167      6165      6168
      6168      6169      6168      6170      6168      6194      6194      6195
      6194      6196      6196      6197      6196      6198      6196      6199
      6194      6200      6200      6201      6200      6202      6200      6203
      6203      6204      6203      6205      6203      6206      6206      6207
      6206      6208      6206      6209      6209      6210      6209      6211
      6211      6212      6211      6213      6211      6214      6209      6215
      6215      6216      6215      6217      6215      6218      7743      7744
      7743      7748      7743      7752      7744      7745      7744      7746
      7744      7747      7748      7749      7748      7750      7748      7751
      7752      7753      7752      7754      7752      7755      7743      7756
      7756      7757      7756      7758      7756      7759      7759      7760
      7759      7761      7759      7765      7766      7767      7765      7762
      7762      7766      7762      7763      7762      7764      7767      7768
      7767      7769      7767      7770      7770      7771      7770      7778
      7770      7772      7778      7779      7778      7780      7778      7781
      7772      7773      7773      7775      7773      7774      7775      7776
      7775      7777      7775      7787      7787      7788      7787      7789
      7787      7790      7790      7791      7790      7792      7790      7793
      7793      7794      7793      7795      7793      7796      7796      7797
      7796      7798      7796      7799      7799      7800      7799      7801
      7799      7802      7802      7803      7802      7804      7802      7805
      7805      7806      7805      7807      7807      7808      7807      7809
      7809      7810      7809      7811      7809      7812      7812      7813
      7812      7814      7814      7815      7814      7816      7816      7817
      7816      7818      7816      7819      7819      7820      7819      7821
      7819      7822      7822      7823      7822      7824      7822      7825
      7825      7826      7825      7827      7825      7828      7828      7829
      7828      7830      7828      7831      7781      7782      7782      7784
      7782      7783      7784      7785      7784      7786      7784      7832
      7832      7833      7832      7834      7832      7835      7835      7836
      7835      7837      7835      7838      7838      7839      7838      7840
      7838      7841      7841      7842      7841      7843      7841      7844
      7844      7845      7844      7846      7844      7847      7847      7848
      7847      7849      7847      7850      7850      7851      7850      7852
      7850      7853      7853      7854      7853      7855      7853      7856
      7856      7857      7856      7858      7856      7859      7859      7860
      7859      7861      7859      7862      7862      7863      7862      7864
      7862      7865      7865      7866      7865      7867      7865      7868
      7868      7869      7868      7870      7868      7871      7871      7872
      7871      7873      7871      7874      7874      7875      7874      7876
      7874      7877      7877      7878      7877      7879      7877      7880
      6219      6221      6219      6220      6221      6222      6219      6265
      6265      6266      6265      6267      6265      6262      6262      6263
      6262      6264      6219      6223      6223      6224      6223      6225
      6223      6226      6226      6257      6257      6262      6257      6258
      6258      6259      6258      6260      6258      6261      6226      6227
      6227      6228      6227      6229      6229      6230      6229      6231
      6229      6232      6232      6233      6232      6255      6255      6256
      6255      6257      6232      6234      6234      6235      6234      6244
      6244      6249      6249      6250      6249      6251      6249      6252
      6252      6253      6252      6254      6252      6255      6244      6245
      6245      6246      6245      6247      6245      6248      6234      6236
      6236      6237      6236      6238      6236      6239      6239      6240
      6239      6241      6239      6242      6242      6243      6242      6244
      6242      6268      6268      6269      6268      6270      6270      6271
      6270      6272      6270      6273      6268      6274      6274      6275
      6274      6276      6274      6277      6277      6278      6277      6279
      6277      6280      6280      6281      6280      6282      6280      6283
      6283      6284      6283      6285      6285      6286      6285      6287
      6285      6288      6283      6289      6289      6290      6289      6291
      6289      6292      1255      1256      1255      1257      1255      1258
      1255      1252      1252      1253      1252      1254      1252      1249
      1249      1250      1249      1251      1249      1246      1246      1247
      1246      1248      1246      1243      1243      1244      1243      1245
      1243      1240      1240      1241      1240      1242      1240      1237
      1237      1238      1237      1239      1237      1234      1234      1235
      1234      1236      1234      1231      1231      1232      1231      1233
      1231      1228      1228      1229      1228      1230      1228      1225
      1225      1226      1225      1227      1225      1222      1222      1223
      1222      1224      1222      1219      1219      1220      1219      1221
      1219      1217      1217      1218      1215      1216      1215      1211
      1211      1212      1211      1213      1213      1214      1211      1209
      1209      1210      1209      1204      1204      1205      1204      1206
      1204      1202      1202      1199      1203      1199      1200      1199
      1201      1199      1203      1196      1196      1197      1196      1198
      1196      1193      1193      1194      1193      1195      1193      1180
      1180      1189      1180      1185      1180      1181      1189      1190
      1189      1191      1189      1192      1185      1186      1185      1187
      1185      1188      1181      1182      1181      1183      1181      1184
      1209      1207      1207      1208      1207      1259      1259      1261
      1261      1262      1261      1263      1261      1264      1264      1265
      1264      1266      1264      1267      1267      1268      1267      1269
      1267      1270      1270      1271      1270      1272      1270      1273
      1273      1274      1273      1275      1273      1276      1276      1277
      1276      1278      1276      1279      1279      1280      1279      1281
      1279      1282      1282      1283      1284      1285      1284      1286
      1286      1287      1286      1288      1286      1289      1289      1290
      1289      1291      1289      1292      1292      1293      1292      1294
      1292      1295      1295      1296      1295      1297      1295      1298
      1298      1299      1298      1300      1298      1301      1301      1302
      1301      1303      1301      1304      1304      1305      1304      1306
      1304      1307      1307      1308      1307      1309      1307      1310
      1215      1217      1282      1284      1259      1260      6293      6295
      6293      6294      6295      6296      6293      6339      6339      6340
      6339      6341      6339      6336      6336      6337      6336      6338
      6293      6297      6297      6298      6297      6299      6297      6300
      6300      6331      6331      6336      6331      6332      6332      6333
      6332      6334      6332      6335      6300      6301      6301      6302
      6301      6303      6303      6304      6303      6305      6303      6306
      6306      6307      6306      6329      6329      6330      6329      6331
      6306      6308      6308      6309      6308      6318      6318      6323
      6323      6324      6323      6325      6323      6326      6326      6327
      6326      6328      6326      6329      6318      6319      6319      6320
      6319      6321      6319      6322      6308      6310      6310      6311
      6310      6312      6310      6313      6313      6314      6313      6315
      6313      6316      6316      6317      6316      6318      6316      6342
      6342      6343      6342      6344      6344      6345      6344      6346
      6344      6347      6342      6348      6348      6349      6348      6350
      6348      6351      6351      6352      6351      6353      6351      6354
      6354      6355      6354      6356      6354      6357      6357      6358
      6357      6359      6359      6360      6359      6361      6359      6362
      6357      6363      6363      6364      6363      6365      6363      6366
      1386      1387      1386      1388      1386      1389      1386      1383
      1383      1384      1383      1385      1383      1380      1380      1381
      1380      1382      1380      1377      1377      1378      1377      1379
      1377      1374      1374      1375      1374      1376      1374      1371
      1371      1372      1371      1373      1371      1368      1368      1369
      1368      1370      1368      1365      1365      1366      1365      1367
      1365      1362      1362      1363      1362      1364      1362      1359
      1359      1360      1359      1361      1359      1356      1356      1357
      1356      1358      1356      1353      1353      1354      1353      1355
      1353      1350      1350      1351      1350      1352      1350      1348
      1348      1349      1346      1347      1346      1342      1342      1343
      1342      1344      1344      1345      1342      1340      1340      1341
      1340      1335      1335      1336      1335      1337      1335      1333
      1333      1330      1334      1330      1331      1330      1332      1330
      1334      1327      1327      1328      1327      1329      1327      1324
      1324      1325      1324      1326      1324      1311      1311      1320
      1311      1316      1311      1312      1320      1321      1320      1322
      1320      1323      1316      1317      1316      1318      1316      1319
      1312      1313      1312      1314      1312      1315      1340      1338
      1338      1339      1338      1390      1390      1392      1392      1393
      1392      1394      1392      1395      1395      1396      1395      1397
      1395      1398      1398      1399      1398      1400      1398      1401
      1401      1402      1401      1403      1401      1404      1404      1405
      1404      1406      1404      1407      1407      1408      1407      1409
      1407      1410      1410      1411      1410      1412      1410      1413
      1413      1414      1415      1416      1415      1417      1417      1418
      1417      1419      1417      1420      1420      1421      1420      1422
      1420      1423      1423      1424      1423      1425      1423      1426
      1426      1427      1426      1428      1426      1429      1429      1430
      1429      1431      1429      1432      1432      1433      1432      1434
      1432      1435      1435      1436      1435      1437      1435      1438
      1438      1439      1438      1440      1438      1441      1346      1348
      1413      1415      1390      1391      6367      6369      6367      6368
      6369      6370      6367      6413      6413      6414      6413      6415
      6413      6410      6410      6411      6410      6412      6367      6371
      6371      6372      6371      6373      6371      6374      6374      6405
      6405      6410      6405      6406      6406      6407      6406      6408
      6406      6409      6374      6375      6375      6376      6375      6377
      6377      6378      6377      6379      6377      6380      6380      6381
      6380      6403      6403      6404      6403      6405      6380      6382
      6382      6383      6382      6392      6392      6397      6397      6398
      6397      6399      6397      6400      6400      6401      6400      6402
      6400      6403      6392      6393      6393      6394      6393      6395
      6393      6396      6382      6384      6384      6385      6384      6386
      6384      6387      6387      6388      6387      6389      6387      6390
      6390      6391      6390      6392      6390      6416      6416      6417
      6416      6418      6418      6419      6418      6420      6418      6421
      6416      6422      6422      6423      6422      6424      6422      6425
      6425      6426      6425      6427      6425      6428      6428      6429
      6428      6430      6428      6431      6431      6432      6431      6433
      6433      6434      6433      6435      6433      6436      6431      6437
      6437      6438      6437      6439      6437      6440      6441      6443
      6441      6442      6443      6444      6441      6487      6487      6488
      6487      6489      6487      6484      6484      6485      6484      6486
      6441      6445      6445      6446      6445      6447      6445      6448
      6448      6479      6479      6484      6479      6480      6480      6481
      6480      6482      6480      6483      6448      6449      6449      6450
      6449      6451      6451      6452      6451      6453      6451      6454
      6454      6455      6454      6477      6477      6478      6477      6479
      6454      6456      6456      6457      6456      6466      6466      6471
      6471      6472      6471      6473      6471      6474      6474      6475
      6474      6476      6474      6477      6466      6467      6467      6468
      6467      6469      6467      6470      6456      6458      6458      6459
      6458      6460      6458      6461      6461      6462      6461      6463
      6461      6464      6464      6465      6464      6466      6464      6490
      6490      6491      6490      6492      6492      6493      6492      6494
      6492      6495      6490      6496      6496      6497      6496      6498
      6496      6499      6499      6500      6499      6501      6499      6502
      6502      6503      6502      6504      6502      6505      6505      6506
      6505      6507      6507      6508      6507      6509      6507      6510
      6505      6511      6511      6512      6511      6513      6511      6514
      1517      1518      1517      1519      1517      1520      1517      1514
      1514      1515      1514      1516      1514      1511      1511      1512
      1511      1513      1511      1508      1508      1509      1508      1510
      1508      1505      1505      1506      1505      1507      1505      1502
      1502      1503      1502      1504      1502      1499      1499      1500
      1499      1501      1499      1496      1496      1497      1496      1498
      1496      1493      1493      1494      1493      1495      1493      1490
      1490      1491      1490      1492      1490      1487      1487      1488
      1487      1489      1487      1484      1484      1485      1484      1486
      1484      1481      1481      1482      1481      1483      1481      1479
      1479      1480      1477      1478      1477      1473      1473      1474
      1473      1475      1475      1476      1473      1471      1471      1472
      1471      1466      1466      1467      1466      1468      1466      1464
      1464      1461      1465      1461      1462      1461      1463      1461
      1465      1458      1458      1459      1458      1460      1458      1455
      1455      1456      1455      1457      1455      1442      1442      1451
      1442      1447      1442      1443      1451      1452      1451      1453
      1451      1454      1447      1448      1447      1449      1447      1450
      1443      1444      1443      1445      1443      1446      1471      1469
      1469      1470      1469      1521      1521      1523      1523      1524
      1523      1525      1523      1526      1526      1527      1526      1528
      1526      1529      1529      1530      1529      1531      1529      1532
      1532      1533      1532      1534      1532      1535      1535      1536
      1535      1537      1535      1538      1538      1539      1538      1540
      1538      1541      1541      1542      1541      1543      1541      1544
      1544      1545      1546      1547      1546      1548      1548      1549
      1548      1550      1548      1551      1551      1552      1551      1553
      1551      1554      1554      1555      1554      1556      1554      1557
      1557      1558      1557      1559      1557      1560      1560      1561
      1560      1562      1560      1563      1563      1564      1563      1565
      1563      1566      1566      1567      1566      1568      1566      1569
      1569      1570      1569      1571      1569      1572      1477      1479
      1544      1546      1521      1522      8993      8997      8993      9001
      8993      9005      8997      8998      8997      8999      8997      9000
      9001      9002      9001      9003      9001      9004      9005      9006
      9005      9007      9005      9008      8993      8994      8994      8995
      8994      8996      8994      9009      9009      9010      9009      9011
      9009      9015      9016      9017      9015      9012      9012      9016
      9012      9013      9012      9014      9017      9018      9017      9019
      9017      9020      9020      9021      9020      9028      9020      9022
      9028      9029      9028      9030      9028      9031      9022      9023
      9023      9025      9023      9024      9025      9026      9025      9027
      9025      9037      9037      9038      9037      9039      9037      9040
      9040      9041      9040      9042      9040      9043      9043      9044
      9043      9045      9045      9046      9045      9047      9047      9048
      9047      9049      9047      9050      9050      9051      9050      9052
      9052      9053      9052      9054      9054      9055      9054      9056
      9054      9057      9057      9058      9057      9059      9059      9060
      9059      9061      9061      9062      9061      9063      9061      9064
      9064      9065      9064      9066      9066      9067      9066      9068
      9068      9069      9068      9070      9068      9071      9071      9072
      9071      9073      9071      9074      9074      9075      9074      9076
      9074      9077      9077      9078      9077      9079      9077      9080
      9080      9081      9080      9082      9080      9083      9031      9032
      9032      9034      9032      9033      9034      9035      9034      9036
      9034      9084      9084      9085      9084      9086      9084      9087
      9087      9088      9087      9089      9087      9090      9090      9091
      9090      9092      9090      9093      9093      9094      9093      9095
      9093      9096      9096      9097      9096      9098      9096      9099
      9099      9100      9099      9101      9099      9102      9102      9103
      9102      9104      9102      9105      9105      9106      9105      9107
      9105      9108      9108      9109      9108      9110      9108      9111
      9111      9112      9111      9113      9111      9114      9114      9115
      9114      9116      9114      9117      9117      9118      9117      9119
      9117      9120      9120      9121      9120      9122      9120      9123
      9123      9124      9123      9125      9123      9126      9126      9127
      9126      9128      9126      9129      9129      9130      9129      9131
      9129      9132      1648      1649      1648      1650      1648      1651
      1648      1645      1645      1646      1645      1647      1645      1642
      1642      1643      1642      1644      1642      1639      1639      1640
      1639      1641      1639      1636      1636      1637      1636      1638
      1636      1633      1633      1634      1633      1635      1633      1630
      1630      1631      1630      1632      1630      1627      1627      1628
      1627      1629      1627      1624      1624      1625      1624      1626
      1624      1621      1621      1622      1621      1623      1621      1618
      1618      1619      1618      1620      1618      1615      1615      1616
      1615      1617      1615      1612      1612      1613      1612      1614
      1612      1610      1610      1611      1608      1609      1608      1604
      1604      1605      1604      1606      1606      1607      1604      1602
      1602      1603      1602      1597      1597      1598      1597      1599
      1597      1595      1595      1592      1596      1592      1593      1592
      1594      1592      1596      1589      1589      1590      1589      1591
      1589      1586      1586      1587      1586      1588      1586      1573
      1573      1582      1573      1578      1573      1574      1582      1583
      1582      1584      1582      1585      1578      1579      1578      1580
      1578      1581      1574      1575      1574      1576      1574      1577
      1602      1600      1600      1601      1600      1652      1652      1654
      1654      1655      1654      1656      1654      1657      1657      1658
      1657      1659      1657      1660      1660      1661      1660      1662
      1660      1663      1663      1664      1663      1665      1663      1666
      1666      1667      1666      1668      1666      1669      1669      1670
      1669      1671      1669      1672      1672      1673      1672      1674
      1672      1675      1675      1676      1677      1678      1677      1679
      1679      1680      1679      1681      1679      1682      1682      1683
      1682      1684      1682      1685      1685      1686      1685      1687
      1685      1688      1688      1689      1688      1690      1688      1691
      1691      1692      1691      1693      1691      1694      1694      1695
      1694      1696      1694      1697      1697      1698      1697      1699
      1697      1700      1700      1701      1700      1702      1700      1703
      1608      1610      1675      1677      1652      1653      7881      7882
      7881      7886      7881      7890      7882      7883      7882      7884
      7882      7885      7886      7887      7886      7888      7886      7889
      7890      7891      7890      7892      7890      7893      7881      7894
      7894      7895      7894      7896      7894      7897      7897      7898
      7897      7899      7897      7903      7904      7905      7903      7900
      7900      7904      7900      7901      7900      7902      7905      7906
      7905      7907      7905      7908      7908      7909      7908      7916
      7908      7910      7916      7917      7916      7918      7916      7919
      7910      7911      7911      7913      7911      7912      7913      7914
      7913      7915      7913      7925      7925      7926      7925      7927
      7925      7928      7928      7929      7928      7930      7928      7931
      7931      7932      7931      7933      7931      7934      7934      7935
      7934      7936      7934      7937      7937      7938      7937      7939
      7937      7940      7940      7941      7940      7942      7940      7943
      7943      7944      7943      7945      7945      7946      7945      7947
      7947      7948      7947      7949      7947      7950      7950      7951
      7950      7952      7952      7953      7952      7954      7954      7955
      7954      7956      7954      7957      7957      7958      7957      7959
      7957      7960      7960      7961      7960      7962      7960      7963
      7963      7964      7963      7965      7963      7966      7966      7967
      7966      7968      7966      7969      7919      7920      7920      7922
      7920      7921      7922      7923      7922      7924      7922      7970
      7970      7971      7970      7972      7970      7973      7973      7974
      7973      7975      7973      7976      7976      7977      7976      7978
      7976      7979      7979      7980      7979      7981      7979      7982
      7982      7983      7982      7984      7982      7985      7985      7986
      7985      7987      7985      7988      7988      7989      7988      7990
      7988      7991      7991      7992      7991      7993      7991      7994
      7994      7995      7994      7996      7994      7997      7997      7998
      7997      7999      7997      8000      8000      8001      8000      8002
      8000      8003      8003      8004      8003      8005      8003      8006
      8006      8007      8006      8008      8006      8009      8009      8010
      8009      8011      8009      8012      8012      8013      8012      8014
      8012      8015      8015      8016      8015      8017      8015      8018
      4340      4341      4340      4342      4340      4343      4340      4344
      4344      4345      4344      4346      4344      4347      4347      4348
      4347      4349      4347      4353      4355      4354      4353      4350
      4350      4354      4350      4351      4350      4352      4355      4356
      4355      4357      4355      4358      4358      4359      4358      4366
      4358      4360      4366      4367      4366      4368      4366      4369
      4360      4361      4361      4363      4361      4362      4363      4364
      4363      4365      4363      4375      4375      4376      4375      4377
      4375      4378      4378      4379      4378      4380      4378      4381
      4381      4382      4381      4383      4383      4384      4383      4385
      4385      4386      4385      4387      4385      4388      4388      4389
      4388      4390      4390      4391      4390      4392      4392      4393
      4392      4394      4392      4395      4395      4396      4395      4397
      4397      4398      4397      4399      4399      4400      4399      4401
      4399      4402      4402      4403      4402      4404      4404      4405
      4404      4406      4406      4407      4406      4408      4406      4409
      4409      4410      4409      4411      4409      4412      4412      4413
      4412      4414      4412      4415      4415      4416      4415      4417
      4415      4418      4418      4419      4418      4420      4418      4421
      4369      4370      4370      4372      4370      4371      4372      4373
      4372      4374      4372      4422      4422      4423      4422      4424
      4422      4425      4425      4426      4425      4427      4425      4428
      4428      4429      4428      4430      4428      4431      4431      4432
      4431      4433      4431      4434      4434      4435      4434      4436
      4434      4437      4437      4438      4437      4439      4437      4440
      4440      4441      4440      4442      4440      4443      4443      4444
      4443      4445      4443      4446      4446      4447      4446      4448
      4446      4449      4449      4450      4449      4451      4449      4452
      4452      4453      4452      4454      4452      4455      4455      4456
      4455      4457      4455      4458      4458      4459      4458      4460
      4458      4461      4461      4462      4461      4463      4461      4464
      4464      4465      4464      4466      4464      4467      4467      4468
      4467      4469      4467      4470      4471      4472      4471      4473
      4471      4474      4471      4475      4475      4476      4475      4477
      4475      4478      4478      4479      4478      4480      4478      4484
      4486      4485      4484      4481      4481      4485      4481      4482
      4481      4483      4486      4487      4486      4488      4486      4489
      4489      4490      4489      4497      4489      4491      4497      4498
      4497      4499      4497      4500      4491      4492      4492      4494
      4492      4493      4494      4495      4494      4496      4494      4506
      4506      4507      4506      4508      4506      4509      4509      4510
      4509      4511      4509      4512      4512      4513      4512      4514
      4514      4515      4514      4516      4516      4517      4516      4518
      4516      4519      4519      4520      4519      4521      4521      4522
      4521      4523      4523      4524      4523      4525      4523      4526
      4526      4527      4526      4528      4528      4529      4528      4530
      4530      4531      4530      4532      4530      4533      4533      4534
      4533      4535      4535      4536      4535      4537      4537      4538
      4537      4539      4537      4540      4540      4541      4540      4542
      4540      4543      4543      4544      4543      4545      4543      4546
      4546      4547      4546      4548      4546      4549      4549      4550
      4549      4551      4549      4552      4500      4501      4501      4503
      4501      4502      4503      4504      4503      4505      4503      4553
      4553      4554      4553      4555      4553      4556      4556      4557
      4556      4558      4556      4559      4559      4560      4559      4561
      4559      4562      4562      4563      4562      4564      4562      4565
      4565      4566      4565      4567      4565      4568      4568      4569
      4568      4570      4568      4571      4571      4572      4571      4573
      4571      4574      4574      4575      4574      4576      4574      4577
      4577      4578      4577      4579      4577      4580      4580      4581
      4580      4582      4580      4583      4583      4584      4583      4585
      4583      4586      4586      4587      4586      4588      4586      4589
      4589      4590      4589      4591      4589      4592      4592      4593
      4592      4594      4592      4595      4595      4596      4595      4597
      4595      4598      4598      4599      4598      4600      4598      4601
     10482     10483     10482     10484     10482     10485     10482     10486
     10486     10487     10486     10488     10486     10489     10489     10490
     10489     10491     10489     10495     10497     10496     10495     10492
     10492     10496     10492     10493     10492     10494     10497     10498
     10497     10499     10497     10500     10500     10501     10500     10508
     10500     10502     10508     10509     10508     10510     10508     10511
     10502     10503     10503     10505     10503     10504     10505     10506
     10505     10507     10505     10517     10517     10518     10517     10519
     10517     10520     10520     10521     10520     10522     10520     10523
     10523     10524     10523     10525     10523     10526     10526     10527
     10526     10528     10526     10529     10529     10530     10529     10531
     10529     10532     10532     10533     10532     10534     10532     10535
     10535     10536     10535     10537     10537     10538     10537     10539
     10539     10540     10539     10541     10539     10542     10542     10543
     10542     10544     10542     10545     10545     10546     10545     10547
     10545     10548     10548     10549     10548     10550     10548     10551
     10551     10552     10551     10553     10551     10554     10554     10555
     10554     10556     10554     10557     10557     10558     10557     10559
     10557     10560     10560     10561     10560     10562     10560     10563
     10511     10512     10512     10514     10512     10513     10514     10515
     10514     10516     10514     10564     10564     10565     10564     10566
     10564     10567     10567     10568     10567     10569     10567     10570
     10570     10571     10570     10572     10570     10573     10573     10574
     10573     10575     10573     10576     10576     10577     10576     10578
     10576     10579     10579     10580     10579     10581     10579     10582
     10582     10583     10582     10584     10582     10585     10585     10586
     10585     10587     10585     10588     10588     10589     10588     10590
     10588     10591     10591     10592     10591     10593     10591     10594
     10594     10595     10594     10596     10594     10597     10597     10598
     10597     10599     10597     10600     10600     10601     10600     10602
     10600     10603     10603     10604     10603     10605     10603     10606
     10606     10607     10606     10608     10606     10609     10609     10610
     10609     10611     10609     10612      4602      4603      4602      4604
      4602      4605      4602      4606      4606      4607      4606      4608
      4606      4609      4609      4610      4609      4611      4609      4615
      4617      4616      4615      4612      4612      4616      4612      4613
      4612      4614      4617      4618      4617      4619      4617      4620
      4620      4621      4620      4628      4620      4622      4628      4629
      4628      4630      4628      4631      4622      4623      4623      4625
      4623      4624      4625      4626      4625      4627      4625      4637
      4637      4638      4637      4639      4637      4640      4640      4641
      4640      4642      4640      4643      4643      4644      4643      4645
      4645      4646      4645      4647      4647      4648      4647      4649
      4647      4650      4650      4651      4650      4652      4652      4653
      4652      4654      4654      4655      4654      4656      4654      4657
      4657      4658      4657      4659      4659      4660      4659      4661
      4661      4662      4661      4663      4661      4664      4664      4665
      4664      4666      4666      4667      4666      4668      4668      4669
      4668      4670      4668      4671      4671      4672      4671      4673
      4671      4674      4674      4675      4674      4676      4674      4677
      4677      4678      4677      4679      4677      4680      4680      4681
      4680      4682      4680      4683      4631      4632      4632      4634
      4632      4633      4634      4635      4634      4636      4634      4684
      4684      4685      4684      4686      4684      4687      4687      4688
      4687      4689      4687      4690      4690      4691      4690      4692
      4690      4693      4693      4694      4693      4695      4693      4696
      4696      4697      4696      4698      4696      4699      4699      4700
      4699      4701      4699      4702      4702      4703      4702      4704
      4702      4705      4705      4706      4705      4707      4705      4708
      4708      4709      4708      4710      4708      4711      4711      4712
      4711      4713      4711      4714      4714      4715      4714      4716
      4714      4717      4717      4718      4717      4719      4717      4720
      4720      4721      4720      4722      4720      4723      4723      4724
      4723      4725      4723      4726      4726      4727      4726      4728
      4726      4729      4729      4730      4729      4731      4729      4732
      9133      9137      9133      9141      9133      9145      9137      9138
      9137      9139      9137      9140      9141      9142      9141      9143
      9141      9144      9145      9146      9145      9147      9145      9148
      9133      9134      9134      9135      9134      9136      9134      9149
      9149      9150      9149      9151      9149      9155      9156      9157
      9155      9152      9152      9156      9152      9153      9152      9154
      9157      9158      9157      9159      9157      9160      9160      9161
      9160      9168      9160      9162      9168      9169      9168      9170
      9168      9171      9162      9163      9163      9165      9163      9164
      9165      9166      9165      9167      9165      9177      9177      9178
      9177      9179      9177      9180      9180      9181      9180      9182
      9180      9183      9183      9184      9183      9185      9185      9186
      9185      9187      9187      9188      9187      9189      9187      9190
      9190      9191      9190      9192      9192      9193      9192      9194
      9194      9195      9194      9196      9194      9197      9197      9198
      9197      9199      9199      9200      9199      9201      9201      9202
      9201      9203      9201      9204      9204      9205      9204      9206
      9206      9207      9206      9208      9208      9209      9208      9210
      9208      9211      9211      9212      9211      9213      9211      9214
      9214      9215      9214      9216      9214      9217      9217      9218
      9217      9219      9217      9220      9220      9221      9220      9222
      9220      9223      9171      9172      9172      9174      9172      9173
      9174      9175      9174      9176      9174      9224      9224      9225
      9224      9226      9224      9227      9227      9228      9227      9229
      9227      9230      9230      9231      9230      9232      9230      9233
      9233      9234      9233      9235      9233      9236      9236      9237
      9236      9238      9236      9239      9239      9240      9239      9241
      9239      9242      9242      9243      9242      9244      9242      9245
      9245      9246      9245      9247      9245      9248      9248      9249
      9248      9250      9248      9251      9251      9252      9251      9253
      9251      9254      9254      9255      9254      9256      9254      9257
      9257      9258      9257      9259      9257      9260      9260      9261
      9260      9262      9260      9263      9263      9264      9263      9265
      9263      9266      9266      9267      9266      9268      9266      9269
      9269      9270      9269      9271      9269      9272      1779      1780
      1779      1781      1779      1782      1779      1776      1776      1777
      1776      1778      1776      1773      1773      1774      1773      1775
      1773      1770      1770      1771      1770      1772      1770      1767
      1767      1768      1767      1769      1767      1764      1764      1765
      1764      1766      1764      1761      1761      1762      1761      1763
      1761      1758      1758      1759      1758      1760      1758      1755
      1755      1756      1755      1757      1755      1752      1752      1753
      1752      1754      1752      1749      1749      1750      1749      1751
      1749      1746      1746      1747      1746      1748      1746      1743
      1743      1744      1743      1745      1743      1741      1741      1742
      1739      1740      1739      1735      1735      1736      1735      1737
      1737      1738      1735      1733      1733      1734      1733      1728
      1728      1729      1728      1730      1728      1726      1726      1723
      1727      1723      1724      1723      1725      1723      1727      1720
      1720      1721      1720      1722      1720      1717      1717      1718
      1717      1719      1717      1704      1704      1713      1704      1709
      1704      1705      1713      1714      1713      1715      1713      1716
      1709      1710      1709      1711      1709      1712      1705      1706
      1705      1707      1705      1708      1733      1731      1731      1732
      1731      1783      1783      1785      1785      1786      1785      1787
      1785      1788      1788      1789      1788      1790      1788      1791
      1791      1792      1791      1793      1791      1794      1794      1795
      1794      1796      1794      1797      1797      1798      1797      1799
      1797      1800      1800      1801      1800      1802      1800      1803
      1803      1804      1803      1805      1803      1806      1806      1807
      1808      1809      1808      1810      1810      1811      1810      1812
      1810      1813      1813      1814      1813      1815      1813      1816
      1816      1817      1816      1818      1816      1819      1819      1820
      1819      1821      1819      1822      1822      1823      1822      1824
      1822      1825      1825      1826      1825      1827      1825      1828
      1828      1829      1828      1830      1828      1831      1831      1832
      1831      1833      1831      1834      1739      1741      1806      1808
      1783      1784      6515      6517      6515      6516      6517      6518
      6515      6561      6561      6562      6561      6563      6561      6558
      6558      6559      6558      6560      6515      6519      6519      6520
      6519      6521      6519      6522      6522      6553      6553      6558
      6553      6554      6554      6555      6554      6556      6554      6557
      6522      6523      6523      6524      6523      6525      6525      6526
      6525      6527      6525      6528      6528      6529      6528      6551
      6551      6552      6551      6553      6528      6530      6530      6531
      6530      6540      6540      6545      6545      6546      6545      6547
      6545      6548      6548      6549      6548      6550      6548      6551
      6540      6541      6541      6542      6541      6543      6541      6544
      6530      6532      6532      6533      6532      6534      6532      6535
      6535      6536      6535      6537      6535      6538      6538      6539
      6538      6540      6538      6564      6564      6565      6564      6566
      6566      6567      6566      6568      6566      6569      6564      6570
      6570      6571      6570      6572      6570      6573      6573      6574
      6573      6575      6573      6576      6576      6577      6576      6578
      6576      6579      6579      6580      6579      6581      6581      6582
      6581      6583      6581      6584      6579      6585      6585      6586
      6585      6587      6585      6588      6589      6591      6589      6590
      6591      6592      6589      6635      6635      6636      6635      6637
      6635      6632      6632      6633      6632      6634      6589      6593
      6593      6594      6593      6595      6593      6596      6596      6627
      6627      6632      6627      6628      6628      6629      6628      6630
      6628      6631      6596      6597      6597      6598      6597      6599
      6599      6600      6599      6601      6599      6602      6602      6603
      6602      6625      6625      6626      6625      6627      6602      6604
      6604      6605      6604      6614      6614      6619      6619      6620
      6619      6621      6619      6622      6622      6623      6622      6624
      6622      6625      6614      6615      6615      6616      6615      6617
      6615      6618      6604      6606      6606      6607      6606      6608
      6606      6609      6609      6610      6609      6611      6609      6612
      6612      6613      6612      6614      6612      6638      6638      6639
      6638      6640      6640      6641      6640      6642      6640      6643
      6638      6644      6644      6645      6644      6646      6644      6647
      6647      6648      6647      6649      6647      6650      6650      6651
      6650      6652      6650      6653      6653      6654      6653      6655
      6655      6656      6655      6657      6655      6658      6653      6659
      6659      6660      6659      6661      6659      6662      6663      6665
      6663      6664      6665      6666      6663      6709      6709      6710
      6709      6711      6709      6706      6706      6707      6706      6708
      6663      6667      6667      6668      6667      6669      6667      6670
      6670      6701      6701      6706      6701      6702      6702      6703
      6702      6704      6702      6705      6670      6671      6671      6672
      6671      6673      6673      6674      6673      6675      6673      6676
      6676      6677      6676      6699      6699      6700      6699      6701
      6676      6678      6678      6679      6678      6688      6688      6693
      6693      6694      6693      6695      6693      6696      6696      6697
      6696      6698      6696      6699      6688      6689      6689      6690
      6689      6691      6689      6692      6678      6680      6680      6681
      6680      6682      6680      6683      6683      6684      6683      6685
      6683      6686      6686      6687      6686      6688      6686      6712
      6712      6713      6712      6714      6714      6715      6714      6716
      6714      6717      6712      6718      6718      6719      6718      6720
      6718      6721      6721      6722      6721      6723      6721      6724
      6724      6725      6724      6726      6724      6727      6727      6728
      6727      6729      6729      6730      6729      6731      6729      6732
      6727      6733      6733      6734      6733      6735      6733      6736
      4733      4734      4733      4735      4733      4736      4733      4737
      4737      4738      4737      4739      4737      4740      4740      4741
      4740      4742      4740      4746      4748      4747      4746      4743
      4743      4747      4743      4744      4743      4745      4748      4749
      4748      4750      4748      4751      4751      4752      4751      4759
      4751      4753      4759      4760      4759      4761      4759      4762
      4753      4754      4754      4756      4754      4755      4756      4757
      4756      4758      4756      4768      4768      4769      4768      4770
      4768      4771      4771      4772      4771      4773      4771      4774
      4774      4775      4774      4776      4776      4777      4776      4778
      4778      4779      4778      4780      4778      4781      4781      4782
      4781      4783      4783      4784      4783      4785      4785      4786
      4785      4787      4785      4788      4788      4789      4788      4790
      4790      4791      4790      4792      4792      4793      4792      4794
      4792      4795      4795      4796      4795      4797      4797      4798
      4797      4799      4799      4800      4799      4801      4799      4802
      4802      4803      4802      4804      4802      4805      4805      4806
      4805      4807      4805      4808      4808      4809      4808      4810
      4808      4811      4811      4812      4811      4813      4811      4814
      4762      4763      4763      4765      4763      4764      4765      4766
      4765      4767      4765      4815      4815      4816      4815      4817
      4815      4818      4818      4819      4818      4820      4818      4821
      4821      4822      4821      4823      4821      4824      4824      4825
      4824      4826      4824      4827      4827      4828      4827      4829
      4827      4830      4830      4831      4830      4832      4830      4833
      4833      4834      4833      4835      4833      4836      4836      4837
      4836      4838      4836      4839      4839      4840      4839      4841
      4839      4842      4842      4843      4842      4844      4842      4845
      4845      4846      4845      4847      4845      4848      4848      4849
      4848      4850      4848      4851      4851      4852      4851      4853
      4851      4854      4854      4855      4854      4856      4854      4857
      4857      4858      4857      4859      4857      4860      4860      4861
      4860      4862      4860      4863     10613     10614     10613     10615
     10613     10616     10613     10617     10617     10618     10617     10619
     10617     10620     10620     10621     10620     10622     10620     10626
     10628     10627     10626     10623     10623     10627     10623     10624
     10623     10625     10628     10629     10628     10630     10628     10631
     10631     10632     10631     10639     10631     10633     10639     10640
     10639     10641     10639     10642     10633     10634     10634     10636
     10634     10635     10636     10637     10636     10638     10636     10648
     10648     10649     10648     10650     10648     10651     10651     10652
     10651     10653     10651     10654     10654     10655     10654     10656
     10654     10657     10657     10658     10657     10659     10657     10660
     10660     10661     10660     10662     10660     10663     10663     10664
     10663     10665     10663     10666     10666     10667     10666     10668
     10668     10669     10668     10670     10670     10671     10670     10672
     10670     10673     10673     10674     10673     10675     10673     10676
     10676     10677     10676     10678     10676     10679     10679     10680
     10679     10681     10679     10682     10682     10683     10682     10684
     10682     10685     10685     10686     10685     10687     10685     10688
     10688     10689     10688     10690     10688     10691     10691     10692
     10691     10693     10691     10694     10642     10643     10643     10645
     10643     10644     10645     10646     10645     10647     10645     10695
     10695     10696     10695     10697     10695     10698     10698     10699
     10698     10700     10698     10701     10701     10702     10701     10703
     10701     10704     10704     10705     10704     10706     10704     10707
     10707     10708     10707     10709     10707     10710     10710     10711
     10710     10712     10710     10713     10713     10714     10713     10715
     10713     10716     10716     10717     10716     10718     10716     10719
     10719     10720     10719     10721     10719     10722     10722     10723
     10722     10724     10722     10725     10725     10726     10725     10727
     10725     10728     10728     10729     10728     10730     10728     10731
     10731     10732     10731     10733     10731     10734     10734     10735
     10734     10736     10734     10737     10737     10738     10737     10739
     10737     10740     10740     10741     10740     10742     10740     10743
      1910      1911      1910      1912      1910      1913      1910      1907
      1907      1908      1907      1909      1907      1904      1904      1905
      1904      1906      1904      1901      1901      1902      1901      1903
      1901      1898      1898      1899      1898      1900      1898      1895
      1895      1896      1895      1897      1895      1892      1892      1893
      1892      1894      1892      1889      1889      1890      1889      1891
      1889      1886      1886      1887      1886      1888      1886      1883
      1883      1884      1883      1885      1883      1880      1880      1881
      1880      1882      1880      1877      1877      1878      1877      1879
      1877      1874      1874      1875      1874      1876      1874      1872
      1872      1873      1870      1871      1870      1866      1866      1867
      1866      1868      1868      1869      1866      1864      1864      1865
      1864      1859      1859      1860      1859      1861      1859      1857
      1857      1854      1858      1854      1855      1854      1856      1854
      1858      1851      1851      1852      1851      1853      1851      1848
      1848      1849      1848      1850      1848      1835      1835      1844
      1835      1840      1835      1836      1844      1845      1844      1846
      1844      1847      1840      1841      1840      1842      1840      1843
      1836      1837      1836      1838      1836      1839      1864      1862
      1862      1863      1862      1914      1914      1916      1916      1917
      1916      1918      1916      1919      1919      1920      1919      1921
      1919      1922      1922      1923      1922      1924      1922      1925
      1925      1926      1925      1927      1925      1928      1928      1929
      1928      1930      1928      1931      1931      1932      1931      1933
      1931      1934      1934      1935      1934      1936      1934      1937
      1937      1938      1939      1940      1939      1941      1941      1942
      1941      1943      1941      1944      1944      1945      1944      1946
      1944      1947      1947      1948      1947      1949      1947      1950
      1950      1951      1950      1952      1950      1953      1953      1954
      1953      1955      1953      1956      1956      1957      1956      1958
      1956      1959      1959      1960      1959      1961      1959      1962
      1962      1963      1962      1964      1962      1965      1870      1872
      1937      1939      1914      1915      9273      9277      9273      9281
      9273      9285      9277      9278      9277      9279      9277      9280
      9281      9282      9281      9283      9281      9284      9285      9286
      9285      9287      9285      9288      9273      9274      9274      9275
      9274      9276      9274      9289      9289      9290      9289      9291
      9289      9295      9296      9297      9295      9292      9292      9296
      9292      9293      9292      9294      9297      9298      9297      9299
      9297      9300      9300      9301      9300      9308      9300      9302
      9308      9309      9308      9310      9308      9311      9302      9303
      9303      9305      9303      9304      9305      9306      9305      9307
      9305      9317      9317      9318      9317      9319      9317      9320
      9320      9321      9320      9322      9320      9323      9323      9324
      9323      9325      9325      9326      9325      9327      9327      9328
      9327      9329      9327      9330      9330      9331      9330      9332
      9332      9333      9332      9334      9334      9335      9334      9336
      9334      9337      9337      9338      9337      9339      9339      9340
      9339      9341      9341      9342      9341      9343      9341      9344
      9344      9345      9344      9346      9346      9347      9346      9348
      9348      9349      9348      9350      9348      9351      9351      9352
      9351      9353      9351      9354      9354      9355      9354      9356
      9354      9357      9357      9358      9357      9359      9357      9360
      9360      9361      9360      9362      9360      9363      9311      9312
      9312      9314      9312      9313      9314      9315      9314      9316
      9314      9364      9364      9365      9364      9366      9364      9367
      9367      9368      9367      9369      9367      9370      9370      9371
      9370      9372      9370      9373      9373      9374      9373      9375
      9373      9376      9376      9377      9376      9378      9376      9379
      9379      9380      9379      9381      9379      9382      9382      9383
      9382      9384      9382      9385      9385      9386      9385      9387
      9385      9388      9388      9389      9388      9390      9388      9391
      9391      9392      9391      9393      9391      9394      9394      9395
      9394      9396      9394      9397      9397      9398      9397      9399
      9397      9400      9400      9401      9400      9402      9400      9403
      9403      9404      9403      9405      9403      9406      9406      9407
      9406      9408      9406      9409      9409      9410      9409      9411
      9409      9412      6737      6739      6737      6738      6739      6740
      6737      6783      6783      6784      6783      6785      6783      6780
      6780      6781      6780      6782      6737      6741      6741      6742
      6741      6743      6741      6744      6744      6775      6775      6780
      6775      6776      6776      6777      6776      6778      6776      6779
      6744      6745      6745      6746      6745      6747      6747      6748
      6747      6749      6747      6750      6750      6751      6750      6773
      6773      6774      6773      6775      6750      6752      6752      6753
      6752      6762      6762      6767      6767      6768      6767      6769
      6767      6770      6770      6771      6770      6772      6770      6773
      6762      6763      6763      6764      6763      6765      6763      6766
      6752      6754      6754      6755      6754      6756      6754      6757
      6757      6758      6757      6759      6757      6760      6760      6761
      6760      6762      6760      6786      6786      6787      6786      6788
      6788      6789      6788      6790      6788      6791      6786      6792
      6792      6793      6792      6794      6792      6795      6795      6796
      6795      6797      6795      6798      6798      6799      6798      6800
      6798      6801      6801      6802      6801      6803      6803      6804
      6803      6805      6803      6806      6801      6807      6807      6808
      6807      6809      6807      6810      2041      2042      2041      2043
      2041      2044      2041      2038      2038      2039      2038      2040
      2038      2035      2035      2036      2035      2037      2035      2032
      2032      2033      2032      2034      2032      2029      2029      2030
      2029      2031      2029      2026      2026      2027      2026      2028
      2026      2023      2023      2024      2023      2025      2023      2020
      2020      2021      2020      2022      2020      2017      2017      2018
      2017      2019      2017      2014      2014      2015      2014      2016
      2014      2011      2011      2012      2011      2013      2011      2008
      2008      2009      2008      2010      2008      2005      2005      2006
      2005      2007      2005      2003      2003      2004      2001      2002
      2001      1997      1997      1998      1997      1999      1999      2000
      1997      1995      1995      1996      1995      1990      1990      1991
      1990      1992      1990      1988      1988      1985      1989      1985
      1986      1985      1987      1985      1989      1982      1982      1983
      1982      1984      1982      1979      1979      1980      1979      1981
      1979      1966      1966      1975      1966      1971      1966      1967
      1975      1976      1975      1977      1975      1978      1971      1972
      1971      1973      1971      1974      1967      1968      1967      1969
      1967      1970      1995      1993      1993      1994      1993      2045
      2045      2047      2047      2048      2047      2049      2047      2050
      2050      2051      2050      2052      2050      2053      2053      2054
      2053      2055      2053      2056      2056      2057      2056      2058
      2056      2059      2059      2060      2059      2061      2059      2062
      2062      2063      2062      2064      2062      2065      2065      2066
      2065      2067      2065      2068      2068      2069      2070      2071
      2070      2072      2072      2073      2072      2074      2072      2075
      2075      2076      2075      2077      2075      2078      2078      2079
      2078      2080      2078      2081      2081      2082      2081      2083
      2081      2084      2084      2085      2084      2086      2084      2087
      2087      2088      2087      2089      2087      2090      2090      2091
      2090      2092      2090      2093      2093      2094      2093      2095
      2093      2096      2001      2003      2068      2070      2045      2046
      8019      8020      8019      8024      8019      8028      8020      8021
      8020      8022      8020      8023      8024      8025      8024      8026
      8024      8027      8028      8029      8028      8030      8028      8031
      8019      8032      8032      8033      8032      8034      8032      8035
      8035      8036      8035      8037      8035      8041      8042      8043
      8041      8038      8038      8042      8038      8039      8038      8040
      8043      8044      8043      8045      8043      8046      8046      8047
      8046      8054      8046      8048      8054      8055      8054      8056
      8054      8057      8048      8049      8049      8051      8049      8050
      8051      8052      8051      8053      8051      8063      8063      8064
      8063      8065      8063      8066      8066      8067      8066      8068
      8066      8069      8069      8070      8069      8071      8069      8072
      8072      8073      8072      8074      8072      8075      8075      8076
      8075      8077      8075      8078      8078      8079      8078      8080
      8078      8081      8081      8082      8081      8083      8083      8084
      8083      8085      8085      8086      8085      8087      8085      8088
      8088      8089      8088      8090      8090      8091      8090      8092
      8092      8093      8092      8094      8092      8095      8095      8096
      8095      8097      8095      8098      8098      8099      8098      8100
      8098      8101      8101      8102      8101      8103      8101      8104
      8104      8105      8104      8106      8104      8107      8057      8058
      8058      8060      8058      8059      8060      8061      8060      8062
      8060      8108      8108      8109      8108      8110      8108      8111
      8111      8112      8111      8113      8111      8114      8114      8115
      8114      8116      8114      8117      8117      8118      8117      8119
      8117      8120      8120      8121      8120      8122      8120      8123
      8123      8124      8123      8125      8123      8126      8126      8127
      8126      8128      8126      8129      8129      8130      8129      8131
      8129      8132      8132      8133      8132      8134      8132      8135
      8135      8136      8135      8137      8135      8138      8138      8139
      8138      8140      8138      8141      8141      8142      8141      8143
      8141      8144      8144      8145      8144      8146      8144      8147
      8147      8148      8147      8149      8147      8150      8150      8151
      8150      8152      8150      8153      8153      8154      8153      8155
      8153      8156      2891      2892      2891      2893      2891      2894
      2891      2895      2899      2897      2897      2895      2897      2898
      2895      2896      2895      2900      2908      2907      2900      2901
      2900      2902      2900      2906      2906      2903      2903      2907
      2903      2904      2903      2905      2908      2909      2908      2910
      2908      2911      2911      2912      2911      2919      2911      2913
      2919      2920      2919      2921      2919      2922      2913      2914
      2914      2916      2914      2915      2916      2917      2916      2918
      2916      2928      2928      2929      2928      2930      2928      2931
      2931      2932      2931      2933      2931      2934      2934      2935
      2934      2936      2936      2937      2936      2938      2938      2939
      2938      2940      2938      2941      2941      2942      2941      2943
      2943      2944      2943      2945      2945      2946      2945      2947
      2945      2948      2948      2949      2948      2950      2950      2951
      2950      2952      2952      2953      2952      2954      2952      2955
      2955      2956      2955      2957      2957      2958      2957      2959
      2959      2960      2959      2961      2959      2962      2962      2963
      2962      2964      2962      2965      2965      2966      2965      2967
      2965      2968      2968      2969      2968      2970      2968      2971
      2971      2972      2971      2973      2971      2974      2922      2923
      2923      2925      2923      2924      2925      2926      2925      2927
      2925      2975      2975      2976      2975      2977      2975      2978
      2978      2979      2978      2980      2978      2981      2981      2982
      2981      2983      2981      2984      2984      2985      2984      2986
      2984      2987      2987      2988      2987      2989      2987      2990
      2990      2991      2990      2992      2990      2993      2993      2994
      2993      2995      2993      2996      2996      2997      2996      2998
      2996      2999      2999      3000      2999      3001      2999      3002
      3002      3003      3002      3004      3002      3005      3005      3006
      3005      3007      3005      3008      3008      3009      3008      3010
      3008      3011      3011      3012      3011      3013      3011      3014
      3014      3015      3014      3016      3014      3017      3017      3018
      3017      3019      3017      3020      3020      3021      3020      3022
      3020      3023      3024      3025      3024      3026      3024      3027
      3024      3028      3032      3030      3030      3028      3030      3031
      3028      3029      3028      3033      3041      3040      3033      3034
      3033      3035      3033      3039      3039      3036      3036      3040
      3036      3037      3036      3038      3041      3042      3041      3043
      3041      3044      3044      3045      3044      3052      3044      3046
      3052      3053      3052      3054      3052      3055      3046      3047
      3047      3049      3047      3048      3049      3050      3049      3051
      3049      3061      3061      3062      3061      3063      3061      3064
      3064      3065      3064      3066      3064      3067      3067      3068
      3067      3069      3069      3070      3069      3071      3071      3072
      3071      3073      3071      3074      3074      3075      3074      3076
      3076      3077      3076      3078      3078      3079      3078      3080
      3078      3081      3081      3082      3081      3083      3083      3084
      3083      3085      3085      3086      3085      3087      3085      3088
      3088      3089      3088      3090      3090      3091      3090      3092
      3092      3093      3092      3094      3092      3095      3095      3096
      3095      3097      3095      3098      3098      3099      3098      3100
      3098      3101      3101      3102      3101      3103      3101      3104
      3104      3105      3104      3106      3104      3107      3055      3056
      3056      3058      3056      3057      3058      3059      3058      3060
      3058      3108      3108      3109      3108      3110      3108      3111
      3111      3112      3111      3113      3111      3114      3114      3115
      3114      3116      3114      3117      3117      3118      3117      3119
      3117      3120      3120      3121      3120      3122      3120      3123
      3123      3124      3123      3125      3123      3126      3126      3127
      3126      3128      3126      3129      3129      3130      3129      3131
      3129      3132      3132      3133      3132      3134      3132      3135
      3135      3136      3135      3137      3135      3138      3138      3139
      3138      3140      3138      3141      3141      3142      3141      3143
      3141      3144      3144      3145      3144      3146      3144      3147
      3147      3148      3147      3149      3147      3150      3150      3151
      3150      3152      3150      3153      3153      3154      3153      3155
      3153      3156      9821      9825      9821      9829      9821      9833
      9825      9826      9825      9827      9825      9828      9829      9830
      9829      9831      9829      9832      9833      9834      9833      9835
      9833      9836      9821      9822      9822      9823      9822      9824
      9822      9837      9837      9838      9837      9839      9837      9843
      9844      9845      9843      9840      9840      9844      9840      9841
      9840      9842      9845      9846      9845      9847      9845      9848
      9848      9849      9848      9856      9848      9850      9856      9857
      9856      9858      9856      9859      9850      9851      9851      9853
      9851      9852      9853      9854      9853      9855      9853      9865
      9865      9866      9865      9867      9865      9868      9868      9869
      9868      9870      9868      9871      9871      9872      9871      9873
      9871      9874      9874      9875      9874      9876      9874      9877
      9877      9878      9877      9879      9877      9880      9880      9881
      9880      9882      9880      9883      9883      9884      9883      9885
      9885      9886      9885      9887      9887      9888      9887      9889
      9887      9890      9890      9891      9890      9892      9890      9893
      9893      9894      9893      9895      9893      9896      9896      9897
      9896      9898      9896      9899      9899      9900      9899      9901
      9899      9902      9902      9903      9902      9904      9902      9905
      9905      9906      9905      9907      9905      9908      9908      9909
      9908      9910      9908      9911      9859      9860      9860      9862
      9860      9861      9862      9863      9862      9864      9862      9912
      9912      9913      9912      9914      9912      9915      9915      9916
      9915      9917      9915      9918      9918      9919      9918      9920
      9918      9921      9921      9922      9921      9923      9921      9924
      9924      9925      9924      9926      9924      9927      9927      9928
      9927      9929      9927      9930      9930      9931      9930      9932
      9930      9933      9933      9934      9933      9935      9933      9936
      9936      9937      9936      9938      9936      9939      9939      9940
      9939      9941      9939      9942      9942      9943      9942      9944
      9942      9945      9945      9946      9945      9947      9945      9948
      9948      9949      9948      9950      9948      9951      9951      9952
      9951      9953      9951      9954      2172      2173      2172      2174
      2172      2175      2172      2169      2169      2170      2169      2171
      2169      2166      2166      2167      2166      2168      2166      2163
      2163      2164      2163      2165      2163      2160      2160      2161
      2160      2162      2160      2157      2157      2158      2157      2159
      2157      2154      2154      2155      2154      2156      2154      2151
      2151      2152      2151      2153      2151      2148      2148      2149
      2148      2150      2148      2145      2145      2146      2145      2147
      2145      2142      2142      2143      2142      2144      2142      2139
      2139      2140      2139      2141      2139      2136      2136      2137
      2136      2138      2136      2134      2134      2135      2132      2133
      2132      2128      2128      2129      2128      2130      2130      2131
      2128      2126      2126      2127      2126      2121      2121      2122
      2121      2123      2121      2119      2119      2116      2120      2116
      2117      2116      2118      2116      2120      2113      2113      2114
      2113      2115      2113      2110      2110      2111      2110      2112
      2110      2097      2097      2106      2097      2102      2097      2098
      2106      2107      2106      2108      2106      2109      2102      2103
      2102      2104      2102      2105      2098      2099      2098      2100
      2098      2101      2126      2124      2124      2125      2124      2176
      2176      2178      2178      2179      2178      2180      2178      2181
      2181      2182      2181      2183      2181      2184      2184      2185
      2184      2186      2184      2187      2187      2188      2187      2189
      2187      2190      2190      2191      2190      2192      2190      2193
      2193      2194      2193      2195      2193      2196      2196      2197
      2196      2198      2196      2199      2199      2200      2201      2202
      2201      2203      2203      2204      2203      2205      2203      2206
      2206      2207      2206      2208      2206      2209      2209      2210
      2209      2211      2209      2212      2212      2213      2212      2214
      2212      2215      2215      2216      2215      2217      2215      2218
      2218      2219      2218      2220      2218      2221      2221      2222
      2221      2223      2221      2224      2224      2225      2224      2226
      2224      2227      2132      2134      2199      2201      2176      2177
      4864      4865      4864      4866      4864      4867      4864      4868
      4868      4869      4868      4870      4868      4871      4871      4872
      4871      4873      4871      4877      4879      4878      4877      4874
      4874      4878      4874      4875      4874      4876      4879      4880
      4879      4881      4879      4882      4882      4883      4882      4890
      4882      4884      4890      4891      4890      4892      4890      4893
      4884      4885      4885      4887      4885      4886      4887      4888
      4887      4889      4887      4899      4899      4900      4899      4901
      4899      4902      4902      4903      4902      4904      4902      4905
      4905      4906      4905      4907      4907      4908      4907      4909
      4909      4910      4909      4911      4909      4912      4912      4913
      4912      4914      4914      4915      4914      4916      4916      4917
      4916      4918      4916      4919      4919      4920      4919      4921
      4921      4922      4921      4923      4923      4924      4923      4925
      4923      4926      4926      4927      4926      4928      4928      4929
      4928      4930      4930      4931      4930      4932      4930      4933
      4933      4934      4933      4935      4933      4936      4936      4937
      4936      4938      4936      4939      4939      4940      4939      4941
      4939      4942      4942      4943      4942      4944      4942      4945
      4893      4894      4894      4896      4894      4895      4896      4897
      4896      4898      4896      4946      4946      4947      4946      4948
      4946      4949      4949      4950      4949      4951      4949      4952
      4952      4953      4952      4954      4952      4955      4955      4956
      4955      4957      4955      4958      4958      4959      4958      4960
      4958      4961      4961      4962      4961      4963      4961      4964
      4964      4965      4964      4966      4964      4967      4967      4968
      4967      4969      4967      4970      4970      4971      4970      4972
      4970      4973      4973      4974      4973      4975      4973      4976
      4976      4977      4976      4978      4976      4979      4979      4980
      4979      4981      4979      4982      4982      4983      4982      4984
      4982      4985      4985      4986      4985      4987      4985      4988
      4988      4989      4988      4990      4988      4991      4991      4992
      4991      4993      4991      4994      6811      6813      6811      6812
      6813      6814      6811      6857      6857      6858      6857      6859
      6857      6854      6854      6855      6854      6856      6811      6815
      6815      6816      6815      6817      6815      6818      6818      6849
      6849      6854      6849      6850      6850      6851      6850      6852
      6850      6853      6818      6819      6819      6820      6819      6821
      6821      6822      6821      6823      6821      6824      6824      6825
      6824      6847      6847      6848      6847      6849      6824      6826
      6826      6827      6826      6836      6836      6841      6841      6842
      6841      6843      6841      6844      6844      6845      6844      6846
      6844      6847      6836      6837      6837      6838      6837      6839
      6837      6840      6826      6828      6828      6829      6828      6830
      6828      6831      6831      6832      6831      6833      6831      6834
      6834      6835      6834      6836      6834      6860      6860      6861
      6860      6862      6862      6863      6862      6864      6862      6865
      6860      6866      6866      6867      6866      6868      6866      6869
      6869      6870      6869      6871      6869      6872      6872      6873
      6872      6874      6872      6875      6875      6876      6875      6877
      6877      6878      6877      6879      6877      6880      6875      6881
      6881      6882      6881      6883      6881      6884      6885      6887
      6885      6886      6887      6888      6885      6931      6931      6932
      6931      6933      6931      6928      6928      6929      6928      6930
      6885      6889      6889      6890      6889      6891      6889      6892
      6892      6923      6923      6928      6923      6924      6924      6925
      6924      6926      6924      6927      6892      6893      6893      6894
      6893      6895      6895      6896      6895      6897      6895      6898
      6898      6899      6898      6921      6921      6922      6921      6923
      6898      6900      6900      6901      6900      6910      6910      6915
      6915      6916      6915      6917      6915      6918      6918      6919
      6918      6920      6918      6921      6910      6911      6911      6912
      6911      6913      6911      6914      6900      6902      6902      6903
      6902      6904      6902      6905      6905      6906      6905      6907
      6905      6908      6908      6909      6908      6910      6908      6934
      6934      6935      6934      6936      6936      6937      6936      6938
      6936      6939      6934      6940      6940      6941      6940      6942
      6940      6943      6943      6944      6943      6945      6943      6946
      6946      6947      6946      6948      6946      6949      6949      6950
      6949      6951      6951      6952      6951      6953      6951      6954
      6949      6955      6955      6956      6955      6957      6955      6958
     11038     11039     11038     11034     11038     11018     11038     11043
     11018     11019     11018     11020     11020     11021     11018     11022
     11022     11023     11022     11024     11024     11025     11022     11026
     11026     11027     11026     11028     11028     11029     11026     11030
     11030     11031     11030     11034     11034     11035     11034     11036
     11036     11037     11030     11032     11032     11033     11043     11040
     11040     11044     11040     11041     11040     11042     11044     11045
     11045     11046     11045     11047     11045     11048     11048     11049
     11048     11056     11048     11050     11056     11057     11056     11058
     11056     11059     11050     11051     11051     11053     11051     11052
     11053     11054     11053     11055     11053     11065     11065     11066
     11065     11067     11065     11068     11068     11069     11068     11070
     11068     11071     11071     11072     11071     11073     11073     11074
     11073     11075     11075     11076     11075     11077     11075     11078
     11078     11079     11078     11080     11080     11081     11080     11082
     11082     11083     11082     11084     11082     11085     11085     11086
     11085     11087     11087     11088     11087     11089     11089     11090
     11089     11091     11089     11092     11092     11093     11092     11094
     11094     11095     11094     11096     11096     11097     11096     11098
     11096     11099     11099     11100     11099     11101     11099     11102
     11102     11103     11102     11104     11102     11105     11105     11106
     11105     11107     11105     11108     11108     11109     11108     11110
     11108     11111     11059     11060     11060     11062     11060     11061
     11062     11063     11062     11064     11062     11112     11112     11113
     11112     11114     11112     11115     11115     11116     11115     11117
     11115     11118     11118     11119     11118     11120     11118     11121
     11121     11122     11121     11123     11121     11124     11124     11125
     11124     11126     11124     11127     11127     11128     11127     11129
     11127     11130     11130     11131     11130     11132     11130     11133
     11133     11134     11133     11135     11133     11136     11136     11137
     11136     11138     11136     11139     11139     11140     11139     11141
     11139     11142     11142     11143     11142     11144     11142     11145
     11145     11146     11145     11147     11145     11148     11148     11149
     11148     11150     11148     11151     11151     11152     11151     11153
     11151     11154     11154     11155     11154     11156     11154     11157
     11157     11158     11157     11159     11157     11160      6959      6961
      6959      6960      6961      6962      6959      7005      7005      7006
      7005      7007      7005      7002      7002      7003      7002      7004
      6959      6963      6963      6964      6963      6965      6963      6966
      6966      6997      6997      7002      6997      6998      6998      6999
      6998      7000      6998      7001      6966      6967      6967      6968
      6967      6969      6969      6970      6969      6971      6969      6972
      6972      6973      6972      6995      6995      6996      6995      6997
      6972      6974      6974      6975      6974      6984      6984      6989
      6989      6990      6989      6991      6989      6992      6992      6993
      6992      6994      6992      6995      6984      6985      6985      6986
      6985      6987      6985      6988      6974      6976      6976      6977
      6976      6978      6976      6979      6979      6980      6979      6981
      6979      6982      6982      6983      6982      6984      6982      7008
      7008      7009      7008      7010      7010      7011      7010      7012
      7010      7013      7008      7014      7014      7015      7014      7016
      7014      7017      7017      7018      7017      7019      7017      7020
      7020      7021      7020      7022      7020      7023      7023      7024
      7023      7025      7025      7026      7025      7027      7025      7028
      7023      7029      7029      7030      7029      7031      7029      7032
     10744     10745     10744     10746     10744     10747     10744     10748
     10748     10749     10748     10750     10748     10751     10751     10752
     10751     10753     10751     10757     10759     10758     10757     10754
     10754     10758     10754     10755     10754     10756     10759     10760
     10759     10761     10759     10762     10762     10763     10762     10770
     10762     10764     10770     10771     10770     10772     10770     10773
     10764     10765     10765     10767     10765     10766     10767     10768
     10767     10769     10767     10779     10779     10780     10779     10781
     10779     10782     10782     10783     10782     10784     10782     10785
     10785     10786     10785     10787     10785     10788     10788     10789
     10788     10790     10788     10791     10791     10792     10791     10793
     10791     10794     10794     10795     10794     10796     10794     10797
     10797     10798     10797     10799     10799     10800     10799     10801
     10801     10802     10801     10803     10801     10804     10804     10805
     10804     10806     10804     10807     10807     10808     10807     10809
     10807     10810     10810     10811     10810     10812     10810     10813
     10813     10814     10813     10815     10813     10816     10816     10817
     10816     10818     10816     10819     10819     10820     10819     10821
     10819     10822     10822     10823     10822     10824     10822     10825
     10773     10774     10774     10776     10774     10775     10776     10777
     10776     10778     10776     10826     10826     10827     10826     10828
     10826     10829     10829     10830     10829     10831     10829     10832
     10832     10833     10832     10834     10832     10835     10835     10836
     10835     10837     10835     10838     10838     10839     10838     10840
     10838     10841     10841     10842     10841     10843     10841     10844
     10844     10845     10844     10846     10844     10847     10847     10848
     10847     10849     10847     10850     10850     10851     10850     10852
     10850     10853     10853     10854     10853     10855     10853     10856
     10856     10857     10856     10858     10856     10859     10859     10860
     10859     10861     10859     10862     10862     10863     10862     10864
     10862     10865     10865     10866     10865     10867     10865     10868
     10868     10869     10868     10870     10868     10871     10871     10872
     10871     10873     10871     10874      2303      2304      2303      2305
      2303      2306      2303      2300      2300      2301      2300      2302
      2300      2297      2297      2298      2297      2299      2297      2294
      2294      2295      2294      2296      2294      2291      2291      2292
      2291      2293      2291      2288      2288      2289      2288      2290
      2288      2285      2285      2286      2285      2287      2285      2282
      2282      2283      2282      2284      2282      2279      2279      2280
      2279      2281      2279      2276      2276      2277      2276      2278
      2276      2273      2273      2274      2273      2275      2273      2270
      2270      2271      2270      2272      2270      2267      2267      2268
      2267      2269      2267      2265      2265      2266      2263      2264
      2263      2259      2259      2260      2259      2261      2261      2262
      2259      2257      2257      2258      2257      2252      2252      2253
      2252      2254      2252      2250      2250      2247      2251      2247
      2248      2247      2249      2247      2251      2244      2244      2245
      2244      2246      2244      2241      2241      2242      2241      2243
      2241      2228      2228      2237      2228      2233      2228      2229
      2237      2238      2237      2239      2237      2240      2233      2234
      2233      2235      2233      2236      2229      2230      2229      2231
      2229      2232      2257      2255      2255      2256      2255      2307
      2307      2309      2309      2310      2309      2311      2309      2312
      2312      2313      2312      2314      2312      2315      2315      2316
      2315      2317      2315      2318      2318      2319      2318      2320
      2318      2321      2321      2322      2321      2323      2321      2324
      2324      2325      2324      2326      2324      2327      2327      2328
      2327      2329      2327      2330      2330      2331      2332      2333
      2332      2334      2334      2335      2334      2336      2334      2337
      2337      2338      2337      2339      2337      2340      2340      2341
      2340      2342      2340      2343      2343      2344      2343      2345
      2343      2346      2346      2347      2346      2348      2346      2349
      2349      2350      2349      2351      2349      2352      2352      2353
      2352      2354      2352      2355      2355      2356      2355      2357
      2355      2358      2263      2265      2330      2332      2307      2308
      3157      3158      3157      3159      3157      3160      3157      3161
      3165      3163      3163      3161      3163      3164      3161      3162
      3161      3166      3174      3173      3166      3167      3166      3168
      3166      3172      3172      3169      3169      3173      3169      3170
      3169      3171      3174      3175      3174      3176      3174      3177
      3177      3178      3177      3185      3177      3179      3185      3186
      3185      3187      3185      3188      3179      3180      3180      3182
      3180      3181      3182      3183      3182      3184      3182      3194
      3194      3195      3194      3196      3194      3197      3197      3198
      3197      3199      3197      3200      3200      3201      3200      3202
      3202      3203      3202      3204      3204      3205      3204      3206
      3204      3207      3207      3208      3207      3209      3209      3210
      3209      3211      3211      3212      3211      3213      3211      3214
      3214      3215      3214      3216      3216      3217      3216      3218
      3218      3219      3218      3220      3218      3221      3221      3222
      3221      3223      3223      3224      3223      3225      3225      3226
      3225      3227      3225      3228      3228      3229      3228      3230
      3228      3231      3231      3232      3231      3233      3231      3234
      3234      3235      3234      3236      3234      3237      3237      3238
      3237      3239      3237      3240      3188      3189      3189      3191
      3189      3190      3191      3192      3191      3193      3191      3241
      3241      3242      3241      3243      3241      3244      3244      3245
      3244      3246      3244      3247      3247      3248      3247      3249
      3247      3250      3250      3251      3250      3252      3250      3253
      3253      3254      3253      3255      3253      3256      3256      3257
      3256      3258      3256      3259      3259      3260      3259      3261
      3259      3262      3262      3263      3262      3264      3262      3265
      3265      3266      3265      3267      3265      3268      3268      3269
      3268      3270      3268      3271      3271      3272      3271      3273
      3271      3274      3274      3275      3274      3276      3274      3277
      3277      3278      3277      3279      3277      3280      3280      3281
      3280      3282      3280      3283      3283      3284      3283      3285
      3283      3286      3286      3287      3286      3288      3286      3289
      7033      7035      7033      7034      7035      7036      7033      7079
      7079      7080      7079      7081      7079      7076      7076      7077
      7076      7078      7033      7037      7037      7038      7037      7039
      7037      7040      7040      7071      7071      7076      7071      7072
      7072      7073      7072      7074      7072      7075      7040      7041
      7041      7042      7041      7043      7043      7044      7043      7045
      7043      7046      7046      7047      7046      7069      7069      7070
      7069      7071      7046      7048      7048      7049      7048      7058
      7058      7063      7063      7064      7063      7065      7063      7066
      7066      7067      7066      7068      7066      7069      7058      7059
      7059      7060      7059      7061      7059      7062      7048      7050
      7050      7051      7050      7052      7050      7053      7053      7054
      7053      7055      7053      7056      7056      7057      7056      7058
      7056      7082      7082      7083      7082      7084      7084      7085
      7084      7086      7084      7087      7082      7088      7088      7089
      7088      7090      7088      7091      7091      7092      7091      7093
      7091      7094      7094      7095      7094      7096      7094      7097
      7097      7098      7097      7099      7099      7100      7099      7101
      7099      7102      7097      7103      7103      7104      7103      7105
      7103      7106      4995      4996      4995      4997      4995      4998
      4995      4999      4999      5000      4999      5001      4999      5002
      5002      5003      5002      5004      5002      5008      5010      5009
      5008      5005      5005      5009      5005      5006      5005      5007
      5010      5011      5010      5012      5010      5013      5013      5014
      5013      5021      5013      5015      5021      5022      5021      5023
      5021      5024      5015      5016      5016      5018      5016      5017
      5018      5019      5018      5020      5018      5030      5030      5031
      5030      5032      5030      5033      5033      5034      5033      5035
      5033      5036      5036      5037      5036      5038      5038      5039
      5038      5040      5040      5041      5040      5042      5040      5043
      5043      5044      5043      5045      5045      5046      5045      5047
      5047      5048      5047      5049      5047      5050      5050      5051
      5050      5052      5052      5053      5052      5054      5054      5055
      5054      5056      5054      5057      5057      5058      5057      5059
      5059      5060      5059      5061      5061      5062      5061      5063
      5061      5064      5064      5065      5064      5066      5064      5067
      5067      5068      5067      5069      5067      5070      5070      5071
      5070      5072      5070      5073      5073      5074      5073      5075
      5073      5076      5024      5025      5025      5027      5025      5026
      5027      5028      5027      5029      5027      5077      5077      5078
      5077      5079      5077      5080      5080      5081      5080      5082
      5080      5083      5083      5084      5083      5085      5083      5086
      5086      5087      5086      5088      5086      5089      5089      5090
      5089      5091      5089      5092      5092      5093      5092      5094
      5092      5095      5095      5096      5095      5097      5095      5098
      5098      5099      5098      5100      5098      5101      5101      5102
      5101      5103      5101      5104      5104      5105      5104      5106
      5104      5107      5107      5108      5107      5109      5107      5110
      5110      5111      5110      5112      5110      5113      5113      5114
      5113      5115      5113      5116      5116      5117      5116      5118
      5116      5119      5119      5120      5119      5121      5119      5122
      5122      5123      5122      5124      5122      5125      7107      7109
      7107      7108      7109      7110      7107      7153      7153      7154
      7153      7155      7153      7150      7150      7151      7150      7152
      7107      7111      7111      7112      7111      7113      7111      7114
      7114      7145      7145      7150      7145      7146      7146      7147
      7146      7148      7146      7149      7114      7115      7115      7116
      7115      7117      7117      7118      7117      7119      7117      7120
      7120      7121      7120      7143      7143      7144      7143      7145
      7120      7122      7122      7123      7122      7132      7132      7137
      7137      7138      7137      7139      7137      7140      7140      7141
      7140      7142      7140      7143      7132      7133      7133      7134
      7133      7135      7133      7136      7122      7124      7124      7125
      7124      7126      7124      7127      7127      7128      7127      7129
      7127      7130      7130      7131      7130      7132      7130      7156
      7156      7157      7156      7158      7158      7159      7158      7160
      7158      7161      7156      7162      7162      7163      7162      7164
      7162      7165      7165      7166      7165      7167      7165      7168
      7168      7169      7168      7170      7168      7171      7171      7172
      7171      7173      7173      7174      7173      7175      7173      7176
      7171      7177      7177      7178      7177      7179      7177      7180
      8157      8158      8157      8162      8157      8166      8158      8159
      8158      8160      8158      8161      8162      8163      8162      8164
      8162      8165      8166      8167      8166      8168      8166      8169
      8157      8170      8170      8171      8170      8172      8170      8173
      8173      8174      8173      8175      8173      8179      8180      8181
      8179      8176      8176      8180      8176      8177      8176      8178
      8181      8182      8181      8183      8181      8184      8184      8185
      8184      8192      8184      8186      8192      8193      8192      8194
      8192      8195      8186      8187      8187      8189      8187      8188
      8189      8190      8189      8191      8189      8201      8201      8202
      8201      8203      8201      8204      8204      8205      8204      8206
      8204      8207      8207      8208      8207      8209      8207      8210
      8210      8211      8210      8212      8210      8213      8213      8214
      8213      8215      8213      8216      8216      8217      8216      8218
      8216      8219      8219      8220      8219      8221      8221      8222
      8221      8223      8223      8224      8223      8225      8223      8226
      8226      8227      8226      8228      8228      8229      8228      8230
      8230      8231      8230      8232      8230      8233      8233      8234
      8233      8235      8233      8236      8236      8237      8236      8238
      8236      8239      8239      8240      8239      8241      8239      8242
      8242      8243      8242      8244      8242      8245      8195      8196
      8196      8198      8196      8197      8198      8199      8198      8200
      8198      8246      8246      8247      8246      8248      8246      8249
      8249      8250      8249      8251      8249      8252      8252      8253
      8252      8254      8252      8255      8255      8256      8255      8257
      8255      8258      8258      8259      8258      8260      8258      8261
      8261      8262      8261      8263      8261      8264      8264      8265
      8264      8266      8264      8267      8267      8268      8267      8269
      8267      8270      8270      8271      8270      8272      8270      8273
      8273      8274      8273      8275      8273      8276      8276      8277
      8276      8278      8276      8279      8279      8280      8279      8281
      8279      8282      8282      8283      8282      8284      8282      8285
      8285      8286      8285      8287      8285      8288      8288      8289
      8288      8290      8288      8291      8291      8292      8291      8293
      8291      8294      9413      9417      9413      9421      9413      9425
      9417      9418      9417      9419      9417      9420      9421      9422
      9421      9423      9421      9424      9425      9426      9425      9427
      9425      9428      9413      9414      9414      9415      9414      9416
      9414      9429      9429      9430      9429      9431      9429      9435
      9436      9437      9435      9432      9432      9436      9432      9433
      9432      9434      9437      9438      9437      9439      9437      9440
      9440      9441      9440      9448      9440      9442      9448      9449
      9448      9450      9448      9451      9442      9443      9443      9445
      9443      9444      9445      9446      9445      9447      9445      9457
      9457      9458      9457      9459      9457      9460      9460      9461
      9460      9462      9460      9463      9463      9464      9463      9465
      9465      9466      9465      9467      9467      9468      9467      9469
      9467      9470      9470      9471      9470      9472      9472      9473
      9472      9474      9474      9475      9474      9476      9474      9477
      9477      9478      9477      9479      9479      9480      9479      9481
      9481      9482      9481      9483      9481      9484      9484      9485
      9484      9486      9486      9487      9486      9488      9488      9489
      9488      9490      9488      9491      9491      9492      9491      9493
      9491      9494      9494      9495      9494      9496      9494      9497
      9497      9498      9497      9499      9497      9500      9500      9501
      9500      9502      9500      9503      9451      9452      9452      9454
      9452      9453      9454      9455      9454      9456      9454      9504
      9504      9505      9504      9506      9504      9507      9507      9508
      9507      9509      9507      9510      9510      9511      9510      9512
      9510      9513      9513      9514      9513      9515      9513      9516
      9516      9517      9516      9518      9516      9519      9519      9520
      9519      9521      9519      9522      9522      9523      9522      9524
      9522      9525      9525      9526      9525      9527      9525      9528
      9528      9529      9528      9530      9528      9531      9531      9532
      9531      9533      9531      9534      9534      9535      9534      9536
      9534      9537      9537      9538      9537      9539      9537      9540
      9540      9541      9540      9542      9540      9543      9543      9544
      9543      9545      9543      9546      9546      9547      9546      9548
      9546      9549      9549      9550      9549      9551      9549      9552
      7181      7183      7181      7182      7183      7184      7181      7227
      7227      7228      7227      7229      7227      7224      7224      7225
      7224      7226      7181      7185      7185      7186      7185      7187
      7185      7188      7188      7219      7219      7224      7219      7220
      7220      7221      7220      7222      7220      7223      7188      7189
      7189      7190      7189      7191      7191      7192      7191      7193
      7191      7194      7194      7195      7194      7217      7217      7218
      7217      7219      7194      7196      7196      7197      7196      7206
      7206      7211      7211      7212      7211      7213      7211      7214
      7214      7215      7214      7216      7214      7217      7206      7207
      7207      7208      7207      7209      7207      7210      7196      7198
      7198      7199      7198      7200      7198      7201      7201      7202
      7201      7203      7201      7204      7204      7205      7204      7206
      7204      7230      7230      7231      7230      7232      7232      7233
      7232      7234      7232      7235      7230      7236      7236      7237
      7236      7238      7236      7239      7239      7240      7239      7241
      7239      7242      7242      7243      7242      7244      7242      7245
      7245      7246      7245      7247      7247      7248      7247      7249
      7247      7250      7245      7251      7251      7252      7251      7253
      7251      7254      5126      5127      5126      5128      5126      5129
      5126      5130      5130      5131      5130      5132      5130      5133
      5133      5134      5133      5135      5133      5139      5141      5140
      5139      5136      5136      5140      5136      5137      5136      5138
      5141      5142      5141      5143      5141      5144      5144      5145
      5144      5152      5144      5146      5152      5153      5152      5154
      5152      5155      5146      5147      5147      5149      5147      5148
      5149      5150      5149      5151      5149      5161      5161      5162
      5161      5163      5161      5164      5164      5165      5164      5166
      5164      5167      5167      5168      5167      5169      5169      5170
      5169      5171      5171      5172      5171      5173      5171      5174
      5174      5175      5174      5176      5176      5177      5176      5178
      5178      5179      5178      5180      5178      5181      5181      5182
      5181      5183      5183      5184      5183      5185      5185      5186
      5185      5187      5185      5188      5188      5189      5188      5190
      5190      5191      5190      5192      5192      5193      5192      5194
      5192      5195      5195      5196      5195      5197      5195      5198
      5198      5199      5198      5200      5198      5201      5201      5202
      5201      5203      5201      5204      5204      5205      5204      5206
      5204      5207      5155      5156      5156      5158      5156      5157
      5158      5159      5158      5160      5158      5208      5208      5209
      5208      5210      5208      5211      5211      5212      5211      5213
      5211      5214      5214      5215      5214      5216      5214      5217
      5217      5218      5217      5219      5217      5220      5220      5221
      5220      5222      5220      5223      5223      5224      5223      5225
      5223      5226      5226      5227      5226      5228      5226      5229
      5229      5230      5229      5231      5229      5232      5232      5233
      5232      5234      5232      5235      5235      5236      5235      5237
      5235      5238      5238      5239      5238      5240      5238      5241
      5241      5242      5241      5243      5241      5244      5244      5245
      5244      5246      5244      5247      5247      5248      5247      5249
      5247      5250      5250      5251      5250      5252      5250      5253
      5253      5254      5253      5255      5253      5256      7255      7257
      7255      7256      7257      7258      7255      7301      7301      7302
      7301      7303      7301      7298      7298      7299      7298      7300
      7255      7259      7259      7260      7259      7261      7259      7262
      7262      7293      7293      7298      7293      7294      7294      7295
      7294      7296      7294      7297      7262      7263      7263      7264
      7263      7265      7265      7266      7265      7267      7265      7268
      7268      7269      7268      7291      7291      7292      7291      7293
      7268      7270      7270      7271      7270      7280      7280      7285
      7285      7286      7285      7287      7285      7288      7288      7289
      7288      7290      7288      7291      7280      7281      7281      7282
      7281      7283      7281      7284      7270      7272      7272      7273
      7272      7274      7272      7275      7275      7276      7275      7277
      7275      7278      7278      7279      7278      7280      7278      7304
      7304      7305      7304      7306      7306      7307      7306      7308
      7306      7309      7304      7310      7310      7311      7310      7312
      7310      7313      7313      7314      7313      7315      7313      7316
      7316      7317      7316      7318      7316      7319      7319      7320
      7319      7321      7321      7322      7321      7323      7321      7324
      7319      7325      7325      7326      7325      7327      7325      7328
      9955      9959      9955      9963      9955      9967      9959      9960
      9959      9961      9959      9962      9963      9964      9963      9965
      9963      9966      9967      9968      9967      9969      9967      9970
      9955      9956      9956      9957      9956      9958      9956      9971
      9971      9972      9971      9973      9971      9977      9978      9979
      9977      9974      9974      9978      9974      9975      9974      9976
      9979      9980      9979      9981      9979      9982      9982      9983
      9982      9990      9982      9984      9990      9991      9990      9992
      9990      9993      9984      9985      9985      9987      9985      9986
      9987      9988      9987      9989      9987      9999      9999     10000
      9999     10001      9999     10002     10002     10003     10002     10004
     10002     10005     10005     10006     10005     10007     10005     10008
     10008     10009     10008     10010     10008     10011     10011     10012
     10011     10013     10011     10014     10014     10015     10014     10016
     10014     10017     10017     10018     10017     10019     10019     10020
     10019     10021     10021     10022     10021     10023     10021     10024
     10024     10025     10024     10026     10024     10027     10027     10028
     10027     10029     10027     10030     10030     10031     10030     10032
     10030     10033     10033     10034     10033     10035     10033     10036
     10036     10037     10036     10038     10036     10039     10039     10040
     10039     10041     10039     10042     10042     10043     10042     10044
     10042     10045      9993      9994      9994      9996      9994      9995
      9996      9997      9996      9998      9996     10046     10046     10047
     10046     10048     10046     10049     10049     10050     10049     10051
     10049     10052     10052     10053     10052     10054     10052     10055
     10055     10056     10055     10057     10055     10058     10058     10059
     10058     10060     10058     10061     10061     10062     10061     10063
     10061     10064     10064     10065     10064     10066     10064     10067
     10067     10068     10067     10069     10067     10070     10070     10071
     10070     10072     10070     10073     10073     10074     10073     10075
     10073     10076     10076     10077     10076     10078     10076     10079
     10079     10080     10079     10081     10079     10082     10082     10083
     10082     10084     10082     10085     10085     10086     10085     10087
     10085     10088      3290      3291      3290      3292      3290      3293
      3290      3294      3298      3296      3296      3294      3296      3297
      3294      3295      3294      3299      3307      3306      3299      3300
      3299      3301      3299      3305      3305      3302      3302      3306
      3302      3303      3302      3304      3307      3308      3307      3309
      3307      3310      3310      3311      3310      3318      3310      3312
      3318      3319      3318      3320      3318      3321      3312      3313
      3313      3315      3313      3314      3315      3316      3315      3317
      3315      3327      3327      3328      3327      3329      3327      3330
      3330      3331      3330      3332      3330      3333      3333      3334
      3333      3335      3335      3336      3335      3337      3337      3338
      3337      3339      3337      3340      3340      3341      3340      3342
      3342      3343      3342      3344      3344      3345      3344      3346
      3344      3347      3347      3348      3347      3349      3349      3350
      3349      3351      3351      3352      3351      3353      3351      3354
      3354      3355      3354      3356      3356      3357      3356      3358
      3358      3359      3358      3360      3358      3361      3361      3362
      3361      3363      3361      3364      3364      3365      3364      3366
      3364      3367      3367      3368      3367      3369      3367      3370
      3370      3371      3370      3372      3370      3373      3321      3322
      3322      3324      3322      3323      3324      3325      3324      3326
      3324      3374      3374      3375      3374      3376      3374      3377
      3377      3378      3377      3379      3377      3380      3380      3381
      3380      3382      3380      3383      3383      3384      3383      3385
      3383      3386      3386      3387      3386      3388      3386      3389
      3389      3390      3389      3391      3389      3392      3392      3393
      3392      3394      3392      3395      3395      3396      3395      3397
      3395      3398      3398      3399      3398      3400      3398      3401
      3401      3402      3401      3403      3401      3404      3404      3405
      3404      3406      3404      3407      3407      3408      3407      3409
      3407      3410      3410      3411      3410      3412      3410      3413
      3413      3414      3413      3415      3413      3416      3416      3417
      3416      3418      3416      3419      3419      3420      3419      3421
      3419      3422      8295      8296      8295      8300      8295      8304
      8296      8297      8296      8298      8296      8299      8300      8301
      8300      8302      8300      8303      8304      8305      8304      8306
      8304      8307      8295      8308      8308      8309      8308      8310
      8308      8311      8311      8312      8311      8313      8311      8317
      8318      8319      8317      8314      8314      8318      8314      8315
      8314      8316      8319      8320      8319      8321      8319      8322
      8322      8323      8322      8330      8322      8324      8330      8331
      8330      8332      8330      8333      8324      8325      8325      8327
      8325      8326      8327      8328      8327      8329      8327      8339
      8339      8340      8339      8341      8339      8342      8342      8343
      8342      8344      8342      8345      8345      8346      8345      8347
      8345      8348      8348      8349      8348      8350      8348      8351
      8351      8352      8351      8353      8351      8354      8354      8355
      8354      8356      8354      8357      8357      8358      8357      8359
      8359      8360      8359      8361      8361      8362      8361      8363
      8361      8364      8364      8365      8364      8366      8366      8367
      8366      8368      8368      8369      8368      8370      8368      8371
      8371      8372      8371      8373      8371      8374      8374      8375
      8374      8376      8374      8377      8377      8378      8377      8379
      8377      8380      8380      8381      8380      8382      8380      8383
      8333      8334      8334      8336      8334      8335      8336      8337
      8336      8338      8336      8384      8384      8385      8384      8386
      8384      8387      8387      8388      8387      8389      8387      8390
      8390      8391      8390      8392      8390      8393      8393      8394
      8393      8395      8393      8396      8396      8397      8396      8398
      8396      8399      8399      8400      8399      8401      8399      8402
      8402      8403      8402      8404      8402      8405      8405      8406
      8405      8407      8405      8408      8408      8409      8408      8410
      8408      8411      8411      8412      8411      8413      8411      8414
      8414      8415      8414      8416      8414      8417      8417      8418
      8417      8419      8417      8420      8420      8421      8420      8422
      8420      8423      8423      8424      8423      8425      8423      8426
      8426      8427      8426      8428      8426      8429      8429      8430
      8429      8431      8429      8432     11185     11186     11185     11187
     11186     11187     11188     11189     11188     11190     11189     11190
     11191     11192     11191     11193     11192     11193     11194     11195
     11194     11196     11195     11196     11197     11198     11197     11199
     11198     11199     11200     11201     11200     11202     11201     11202
     11203     11204     11203     11205     11204     11205     11206     11207
     11206     11208     11207     11208     11209     11210     11209     11211
     11210     11211     11212     11213     11212     11214     11213     11214
     11215     11216     11215     11217     11216     11217     11218     11219
     11218     11220     11219     11220     11221     11222     11221     11223
     11222     11223     11224     11225     11224     11226     11225     11226
     11227     11228     11227     11229     11228     11229     11230     11231
     11230     11232     11231     11232     11233     11234     11233     11235
     11234     11235     11236     11237     11236     11238     11237     11238
     11239     11240     11239     11241     11240     11241     11242     11243
     11242     11244     11243     11244     11245     11246     11245     11247
     11246     11247     11248     11249     11248     11250     11249     11250
     11251     11252     11251     11253     11252     11253     11254     11255
     11254     11256     11255     11256     11257     11258     11257     11259
     11258     11259     11260     11261     11260     11262     11261     11262
     11263     11264     11263     11265     11264     11265     11266     11267
     11266     11268     11267     11268     11269     11270     11269     11271
     11270     11271     11272     11273     11272     11274     11273     11274
     11275     11276     11275     11277     11276     11277     11278     11279
     11278     11280     11279     11280     11281     11282     11281     11283
     11282     11283     11284     11285     11284     11286     11285     11286
     11287     11288     11287     11289     11288     11289     11290     11291
     11290     11292     11291     11292     11293     11294     11293     11295
     11294     11295     11296     11297     11296     11298     11297     11298
     11299     11300     11299     11301     11300     11301     11302     11303
     11302     11304     11303     11304     11305     11306     11305     11307
     11306     11307     11308     11309     11308     11310     11309     11310
     11311     11312     11311     11313     11312     11313     11314     11315
     11314     11316     11315     11316     11317     11318     11317     11319
     11318     11319     11320     11321     11320     11322     11321     11322
     11323     11324     11323     11325     11324     11325     11326     11327
     11326     11328     11327     11328     11329     11330     11329     11331
     11330     11331     11332     11333     11332     11334     11333     11334
     11335     11336     11335     11337     11336     11337     11338     11339
     11338     11340     11339     11340     11341     11342     11341     11343
     11342     11343     11344     11345     11344     11346     11345     11346
     11347     11348     11347     11349     11348     11349     11350     11351
     11350     11352     11351     11352     11353     11354     11353     11355
     11354     11355     11356     11357     11356     11358     11357     11358
     11359     11360     11359     11361     11360     11361     11362     11363
     11362     11364     11363     11364     11365     11366     11365     11367
     11366     11367     11368     11369     11368     11370     11369     11370
     11371     11372     11371     11373     11372     11373     11374     11375
     11374     11376     11375     11376     11377     11378     11377     11379
     11378     11379     11380     11381     11380     11382     11381     11382
     11383     11384     11383     11385     11384     11385     11386     11387
     11386     11388     11387     11388     11389     11390     11389     11391
     11390     11391     11392     11393     11392     11394     11393     11394
     11395     11396     11395     11397     11396     11397     11398     11399
     11398     11400     11399     11400     11401     11402     11401     11403
     11402     11403     11404     11405     11404     11406     11405     11406
     11407     11408     11407     11409     11408     11409     11410     11411
     11410     11412     11411     11412     11413     11414     11413     11415
     11414     11415     11416     11417     11416     11418     11417     11418
     11419     11420     11419     11421     11420     11421     11422     11423
     11422     11424     11423     11424     11425     11426     11425     11427
     11426     11427     11428     11429     11428     11430     11429     11430
     11431     11432     11431     11433     11432     11433     11434     11435
     11434     11436     11435     11436     11437     11438     11437     11439
     11438     11439     11440     11441     11440     11442     11441     11442
     11443     11444     11443     11445     11444     11445     11446     11447
     11446     11448     11447     11448     11449     11450     11449     11451
     11450     11451     11452     11453     11452     11454     11453     11454
     11455     11456     11455     11457     11456     11457     11458     11459
     11458     11460     11459     11460     11461     11462     11461     11463
     11462     11463     11464     11465     11464     11466     11465     11466
     11467     11468     11467     11469     11468     11469     11470     11471
     11470     11472     11471     11472     11473     11474     11473     11475
     11474     11475     11476     11477     11476     11478     11477     11478
     11479     11480     11479     11481     11480     11481     11482     11483
     11482     11484     11483     11484     11485     11486     11485     11487
     11486     11487     11488     11489     11488     11490     11489     11490
     11491     11492     11491     11493     11492     11493     11494     11495
     11494     11496     11495     11496     11497     11498     11497     11499
     11498     11499     11500     11501     11500     11502     11501     11502
     11503     11504     11503     11505     11504     11505     11506     11507
     11506     11508     11507     11508     11509     11510     11509     11511
     11510     11511     11512     11513     11512     11514     11513     11514
     11515     11516     11515     11517     11516     11517     11518     11519
     11518     11520     11519     11520     11521     11522     11521     11523
     11522     11523     11524     11525     11524     11526     11525     11526
     11527     11528     11527     11529     11528     11529     11530     11531
     11530     11532     11531     11532     11533     11534     11533     11535
     11534     11535     11536     11537     11536     11538     11537     11538
     11539     11540     11539     11541     11540     11541     11542     11543
     11542     11544     11543     11544     11545     11546     11545     11547
     11546     11547     11548     11549     11548     11550     11549     11550
     11551     11552     11551     11553     11552     11553     11554     11555
     11554     11556     11555     11556     11557     11558     11557     11559
     11558     11559     11560     11561     11560     11562     11561     11562
     11563     11564     11563     11565     11564     11565     11566     11567
     11566     11568     11567     11568     11569     11570     11569     11571
     11570     11571     11572     11573     11572     11574     11573     11574
     11575     11576     11575     11577     11576     11577     11578     11579
     11578     11580     11579     11580     11581     11582     11581     11583
     11582     11583     11584     11585     11584     11586     11585     11586
     11587     11588     11587     11589     11588     11589     11590     11591
     11590     11592     11591     11592     11593     11594     11593     11595
     11594     11595     11596     11597     11596     11598     11597     11598
     11599     11600     11599     11601     11600     11601     11602     11603
     11602     11604     11603     11604     11605     11606     11605     11607
     11606     11607     11608     11609     11608     11610     11609     11610
     11611     11612     11611     11613     11612     11613     11614     11615
     11614     11616     11615     11616     11617     11618     11617     11619
     11618     11619     11620     11621     11620     11622     11621     11622
     11623     11624     11623     11625     11624     11625     11626     11627
     11626     11628     11627     11628     11629     11630     11629     11631
     11630     11631     11632     11633     11632     11634     11633     11634
     11635     11636     11635     11637     11636     11637     11638     11639
     11638     11640     11639     11640     11641     11642     11641     11643
     11642     11643     11644     11645     11644     11646     11645     11646
     11647     11648     11647     11649     11648     11649     11650     11651
     11650     11652     11651     11652     11653     11654     11653     11655
     11654     11655     11656     11657     11656     11658     11657     11658
     11659     11660     11659     11661     11660     11661     11662     11663
     11662     11664     11663     11664     11665     11666     11665     11667
     11666     11667     11668     11669     11668     11670     11669     11670
     11671     11672     11671     11673     11672     11673     11674     11675
     11674     11676     11675     11676     11677     11678     11677     11679
     11678     11679     11680     11681     11680     11682     11681     11682
     11683     11684     11683     11685     11684     11685     11686     11687
     11686     11688     11687     11688     11689     11690     11689     11691
     11690     11691     11692     11693     11692     11694     11693     11694
     11695     11696     11695     11697     11696     11697     11698     11699
     11698     11700     11699     11700     11701     11702     11701     11703
     11702     11703     11704     11705     11704     11706     11705     11706
     11707     11708     11707     11709     11708     11709     11710     11711
     11710     11712     11711     11712     11713     11714     11713     11715
     11714     11715     11716     11717     11716     11718     11717     11718
     11719     11720     11719     11721     11720     11721     11722     11723
     11722     11724     11723     11724     11725     11726     11725     11727
     11726     11727     11728     11729     11728     11730     11729     11730
     11731     11732     11731     11733     11732     11733     11734     11735
     11734     11736     11735     11736     11737     11738     11737     11739
     11738     11739     11740     11741     11740     11742     11741     11742
     11743     11744     11743     11745     11744     11745     11746     11747
     11746     11748     11747     11748     11749     11750     11749     11751
     11750     11751     11752     11753     11752     11754     11753     11754
     11755     11756     11755     11757     11756     11757     11758     11759
     11758     11760     11759     11760     11761     11762     11761     11763
     11762     11763     11764     11765     11764     11766     11765     11766
     11767     11768     11767     11769     11768     11769     11770     11771
     11770     11772     11771     11772     11773     11774     11773     11775
     11774     11775     11776     11777     11776     11778     11777     11778
     11779     11780     11779     11781     11780     11781     11782     11783
     11782     11784     11783     11784     11785     11786     11785     11787
     11786     11787     11788     11789     11788     11790     11789     11790
     11791     11792     11791     11793     11792     11793     11794     11795
     11794     11796     11795     11796     11797     11798     11797     11799
     11798     11799     11800     11801     11800     11802     11801     11802
     11803     11804     11803     11805     11804     11805     11806     11807
     11806     11808     11807     11808     11809     11810     11809     11811
     11810     11811     11812     11813     11812     11814     11813     11814
     11815     11816     11815     11817     11816     11817     11818     11819
     11818     11820     11819     11820     11821     11822     11821     11823
     11822     11823     11824     11825     11824     11826     11825     11826
     11827     11828     11827     11829     11828     11829     11830     11831
     11830     11832     11831     11832     11833     11834     11833     11835
     11834     11835     11836     11837     11836     11838     11837     11838
     11839     11840     11839     11841     11840     11841     11842     11843
     11842     11844     11843     11844     11845     11846     11845     11847
     11846     11847     11848     11849     11848     11850     11849     11850
     11851     11852     11851     11853     11852     11853     11854     11855
     11854     11856     11855     11856     11857     11858     11857     11859
     11858     11859     11860     11861     11860     11862     11861     11862
     11863     11864     11863     11865     11864     11865     11866     11867
     11866     11868     11867     11868     11869     11870     11869     11871
     11870     11871     11872     11873     11872     11874     11873     11874
     11875     11876     11875     11877     11876     11877     11878     11879
     11878     11880     11879     11880     11881     11882     11881     11883
     11882     11883     11884     11885     11884     11886     11885     11886
     11887     11888     11887     11889     11888     11889     11890     11891
     11890     11892     11891     11892     11893     11894     11893     11895
     11894     11895     11896     11897     11896     11898     11897     11898
     11899     11900     11899     11901     11900     11901     11902     11903
     11902     11904     11903     11904     11905     11906     11905     11907
     11906     11907     11908     11909     11908     11910     11909     11910
     11911     11912     11911     11913     11912     11913     11914     11915
     11914     11916     11915     11916     11917     11918     11917     11919
     11918     11919     11920     11921     11920     11922     11921     11922
     11923     11924     11923     11925     11924     11925     11926     11927
     11926     11928     11927     11928     11929     11930     11929     11931
     11930     11931     11932     11933     11932     11934     11933     11934
     11935     11936     11935     11937     11936     11937     11938     11939
     11938     11940     11939     11940     11941     11942     11941     11943
     11942     11943     11944     11945     11944     11946     11945     11946
     11947     11948     11947     11949     11948     11949     11950     11951
     11950     11952     11951     11952     11953     11954     11953     11955
     11954     11955     11956     11957     11956     11958     11957     11958
     11959     11960     11959     11961     11960     11961     11962     11963
     11962     11964     11963     11964     11965     11966     11965     11967
     11966     11967     11968     11969     11968     11970     11969     11970
     11971     11972     11971     11973     11972     11973     11974     11975
     11974     11976     11975     11976     11977     11978     11977     11979
     11978     11979     11980     11981     11980     11982     11981     11982
     11983     11984     11983     11985     11984     11985     11986     11987
     11986     11988     11987     11988     11989     11990     11989     11991
     11990     11991     11992     11993     11992     11994     11993     11994
     11995     11996     11995     11997     11996     11997     11998     11999
     11998     12000     11999     12000     12001     12002     12001     12003
     12002     12003     12004     12005     12004     12006     12005     12006
     12007     12008     12007     12009     12008     12009     12010     12011
     12010     12012     12011     12012     12013     12014     12013     12015
     12014     12015     12016     12017     12016     12018     12017     12018
     12019     12020     12019     12021     12020     12021     12022     12023
     12022     12024     12023     12024     12025     12026     12025     12027
     12026     12027     12028     12029     12028     12030     12029     12030
     12031     12032     12031     12033     12032     12033     12034     12035
     12034     12036     12035     12036     12037     12038     12037     12039
     12038     12039     12040     12041     12040     12042     12041     12042
     12043     12044     12043     12045     12044     12045     12046     12047
     12046     12048     12047     12048     12049     12050     12049     12051
     12050     12051     12052     12053     12052     12054     12053     12054
     12055     12056     12055     12057     12056     12057     12058     12059
     12058     12060     12059     12060     12061     12062     12061     12063
     12062     12063     12064     12065     12064     12066     12065     12066
     12067     12068     12067     12069     12068     12069     12070     12071
     12070     12072     12071     12072     12073     12074     12073     12075
     12074     12075     12076     12077     12076     12078     12077     12078
     12079     12080     12079     12081     12080     12081     12082     12083
     12082     12084     12083     12084     12085     12086     12085     12087
     12086     12087     12088     12089     12088     12090     12089     12090
     12091     12092     12091     12093     12092     12093     12094     12095
     12094     12096     12095     12096     12097     12098     12097     12099
     12098     12099     12100     12101     12100     12102     12101     12102
     12103     12104     12103     12105     12104     12105     12106     12107
     12106     12108     12107     12108     12109     12110     12109     12111
     12110     12111     12112     12113     12112     12114     12113     12114
     12115     12116     12115     12117     12116     12117     12118     12119
     12118     12120     12119     12120     12121     12122     12121     12123
     12122     12123     12124     12125     12124     12126     12125     12126
     12127     12128     12127     12129     12128     12129     12130     12131
     12130     12132     12131     12132     12133     12134     12133     12135
     12134     12135     12136     12137     12136     12138     12137     12138
     12139     12140     12139     12141     12140     12141     12142     12143
     12142     12144     12143     12144     12145     12146     12145     12147
     12146     12147     12148     12149     12148     12150     12149     12150
     12151     12152     12151     12153     12152     12153     12154     12155
     12154     12156     12155     12156     12157     12158     12157     12159
     12158     12159     12160     12161     12160     12162     12161     12162
     12163     12164     12163     12165     12164     12165     12166     12167
     12166     12168     12167     12168     12169     12170     12169     12171
     12170     12171     12172     12173     12172     12174     12173     12174
     12175     12176     12175     12177     12176     12177     12178     12179
     12178     12180     12179     12180     12181     12182     12181     12183
     12182     12183     12184     12185     12184     12186     12185     12186
     12187     12188     12187     12189     12188     12189     12190     12191
     12190     12192     12191     12192     12193     12194     12193     12195
     12194     12195     12196     12197     12196     12198     12197     12198
     12199     12200     12199     12201     12200     12201     12202     12203
     12202     12204     12203     12204     12205     12206     12205     12207
     12206     12207     12208     12209     12208     12210     12209     12210
     12211     12212     12211     12213     12212     12213     12214     12215
     12214     12216     12215     12216     12217     12218     12217     12219
     12218     12219     12220     12221     12220     12222     12221     12222
     12223     12224     12223     12225     12224     12225     12226     12227
     12226     12228     12227     12228     12229     12230     12229     12231
     12230     12231     12232     12233     12232     12234     12233     12234
     12235     12236     12235     12237     12236     12237     12238     12239
     12238     12240     12239     12240     12241     12242     12241     12243
     12242     12243     12244     12245     12244     12246     12245     12246
     12247     12248     12247     12249     12248     12249     12250     12251
     12250     12252     12251     12252     12253     12254     12253     12255
     12254     12255     12256     12257     12256     12258     12257     12258
     12259     12260     12259     12261     12260     12261     12262     12263
     12262     12264     12263     12264     12265     12266     12265     12267
     12266     12267     12268     12269     12268     12270     12269     12270
     12271     12272     12271     12273     12272     12273     12274     12275
     12274     12276     12275     12276     12277     12278     12277     12279
     12278     12279     12280     12281     12280     12282     12281     12282
     12283     12284     12283     12285     12284     12285     12286     12287
     12286     12288     12287     12288     12289     12290     12289     12291
     12290     12291     12292     12293     12292     12294     12293     12294
     12295     12296     12295     12297     12296     12297     12298     12299
     12298     12300     12299     12300     12301     12302     12301     12303
     12302     12303     12304     12305     12304     12306     12305     12306
     12307     12308     12307     12309     12308     12309     12310     12311
     12310     12312     12311     12312     12313     12314     12313     12315
     12314     12315     12316     12317     12316     12318     12317     12318
     12319     12320     12319     12321     12320     12321     12322     12323
     12322     12324     12323     12324     12325     12326     12325     12327
     12326     12327     12328     12329     12328     12330     12329     12330
     12331     12332     12331     12333     12332     12333     12334     12335
     12334     12336     12335     12336     12337     12338     12337     12339
     12338     12339     12340     12341     12340     12342     12341     12342
     12343     12344     12343     12345     12344     12345     12346     12347
     12346     12348     12347     12348     12349     12350     12349     12351
     12350     12351     12352     12353     12352     12354     12353     12354
     12355     12356     12355     12357     12356     12357     12358     12359
     12358     12360     12359     12360     12361     12362     12361     12363
     12362     12363     12364     12365     12364     12366     12365     12366
     12367     12368     12367     12369     12368     12369     12370     12371
     12370     12372     12371     12372     12373     12374     12373     12375
     12374     12375     12376     12377     12376     12378     12377     12378
     12379     12380     12379     12381     12380     12381     12382     12383
     12382     12384     12383     12384     12385     12386     12385     12387
     12386     12387     12388     12389     12388     12390     12389     12390
     12391     12392     12391     12393     12392     12393     12394     12395
     12394     12396     12395     12396     12397     12398     12397     12399
     12398     12399     12400     12401     12400     12402     12401     12402
     12403     12404     12403     12405     12404     12405     12406     12407
     12406     12408     12407     12408     12409     12410     12409     12411
     12410     12411     12412     12413     12412     12414     12413     12414
     12415     12416     12415     12417     12416     12417     12418     12419
     12418     12420     12419     12420     12421     12422     12421     12423
     12422     12423     12424     12425     12424     12426     12425     12426
     12427     12428     12427     12429     12428     12429     12430     12431
     12430     12432     12431     12432     12433     12434     12433     12435
     12434     12435     12436     12437     12436     12438     12437     12438
     12439     12440     12439     12441     12440     12441     12442     12443
     12442     12444     12443     12444     12445     12446     12445     12447
     12446     12447     12448     12449     12448     12450     12449     12450
     12451     12452     12451     12453     12452     12453     12454     12455
     12454     12456     12455     12456     12457     12458     12457     12459
     12458     12459     12460     12461     12460     12462     12461     12462
     12463     12464     12463     12465     12464     12465     12466     12467
     12466     12468     12467     12468     12469     12470     12469     12471
     12470     12471     12472     12473     12472     12474     12473     12474
     12475     12476     12475     12477     12476     12477     12478     12479
     12478     12480     12479     12480     12481     12482     12481     12483
     12482     12483     12484     12485     12484     12486     12485     12486
     12487     12488     12487     12489     12488     12489     12490     12491
     12490     12492     12491     12492     12493     12494     12493     12495
     12494     12495     12496     12497     12496     12498     12497     12498
     12499     12500     12499     12501     12500     12501     12502     12503
     12502     12504     12503     12504     12505     12506     12505     12507
     12506     12507     12508     12509     12508     12510     12509     12510
     12511     12512     12511     12513     12512     12513     12514     12515
     12514     12516     12515     12516     12517     12518     12517     12519
     12518     12519     12520     12521     12520     12522     12521     12522
     12523     12524     12523     12525     12524     12525     12526     12527
     12526     12528     12527     12528     12529     12530     12529     12531
     12530     12531     12532     12533     12532     12534     12533     12534
     12535     12536     12535     12537     12536     12537     12538     12539
     12538     12540     12539     12540     12541     12542     12541     12543
     12542     12543     12544     12545     12544     12546     12545     12546
     12547     12548     12547     12549     12548     12549     12550     12551
     12550     12552     12551     12552     12553     12554     12553     12555
     12554     12555     12556     12557     12556     12558     12557     12558
     12559     12560     12559     12561     12560     12561     12562     12563
     12562     12564     12563     12564     12565     12566     12565     12567
     12566     12567     12568     12569     12568     12570     12569     12570
     12571     12572     12571     12573     12572     12573     12574     12575
     12574     12576     12575     12576     12577     12578     12577     12579
     12578     12579     12580     12581     12580     12582     12581     12582
     12583     12584     12583     12585     12584     12585     12586     12587
     12586     12588     12587     12588     12589     12590     12589     12591
     12590     12591     12592     12593     12592     12594     12593     12594
     12595     12596     12595     12597     12596     12597     12598     12599
     12598     12600     12599     12600     12601     12602     12601     12603
     12602     12603     12604     12605     12604     12606     12605     12606
     12607     12608     12607     12609     12608     12609     12610     12611
     12610     12612     12611     12612     12613     12614     12613     12615
     12614     12615     12616     12617     12616     12618     12617     12618
     12619     12620     12619     12621     12620     12621     12622     12623
     12622     12624     12623     12624     12625     12626     12625     12627
     12626     12627     12628     12629     12628     12630     12629     12630
     12631     12632     12631     12633     12632     12633     12634     12635
     12634     12636     12635     12636     12637     12638     12637     12639
     12638     12639     12640     12641     12640     12642     12641     12642
     12643     12644     12643     12645     12644     12645     12646     12647
     12646     12648     12647     12648     12649     12650     12649     12651
     12650     12651     12652     12653     12652     12654     12653     12654
     12655     12656     12655     12657     12656     12657     12658     12659
     12658     12660     12659     12660     12661     12662     12661     12663
     12662     12663     12664     12665     12664     12666     12665     12666
     12667     12668     12667     12669     12668     12669     12670     12671
     12670     12672     12671     12672     12673     12674     12673     12675
     12674     12675     12676     12677     12676     12678     12677     12678
     12679     12680     12679     12681     12680     12681     12682     12683
     12682     12684     12683     12684     12685     12686     12685     12687
     12686     12687     12688     12689     12688     12690     12689     12690
     12691     12692     12691     12693     12692     12693     12694     12695
     12694     12696     12695     12696     12697     12698     12697     12699
     12698     12699     12700     12701     12700     12702     12701     12702
     12703     12704     12703     12705     12704     12705     12706     12707
     12706     12708     12707     12708     12709     12710     12709     12711
     12710     12711     12712     12713     12712     12714     12713     12714
     12715     12716     12715     12717     12716     12717     12718     12719
     12718     12720     12719     12720     12721     12722     12721     12723
     12722     12723     12724     12725     12724     12726     12725     12726
     12727     12728     12727     12729     12728     12729     12730     12731
     12730     12732     12731     12732     12733     12734     12733     12735
     12734     12735     12736     12737     12736     12738     12737     12738
     12739     12740     12739     12741     12740     12741     12742     12743
     12742     12744     12743     12744     12745     12746     12745     12747
     12746     12747     12748     12749     12748     12750     12749     12750
     12751     12752     12751     12753     12752     12753     12754     12755
     12754     12756     12755     12756     12757     12758     12757     12759
     12758     12759     12760     12761     12760     12762     12761     12762
     12763     12764     12763     12765     12764     12765     12766     12767
     12766     12768     12767     12768     12769     12770     12769     12771
     12770     12771     12772     12773     12772     12774     12773     12774
     12775     12776     12775     12777     12776     12777     12778     12779
     12778     12780     12779     12780     12781     12782     12781     12783
     12782     12783     12784     12785     12784     12786     12785     12786
     12787     12788     12787     12789     12788     12789     12790     12791
     12790     12792     12791     12792     12793     12794     12793     12795
     12794     12795     12796     12797     12796     12798     12797     12798
     12799     12800     12799     12801     12800     12801     12802     12803
     12802     12804     12803     12804     12805     12806     12805     12807
     12806     12807     12808     12809     12808     12810     12809     12810
     12811     12812     12811     12813     12812     12813     12814     12815
     12814     12816     12815     12816     12817     12818     12817     12819
     12818     12819     12820     12821     12820     12822     12821     12822
     12823     12824     12823     12825     12824     12825     12826     12827
     12826     12828     12827     12828     12829     12830     12829     12831
     12830     12831     12832     12833     12832     12834     12833     12834
     12835     12836     12835     12837     12836     12837     12838     12839
     12838     12840     12839     12840     12841     12842     12841     12843
     12842     12843     12844     12845     12844     12846     12845     12846
     12847     12848     12847     12849     12848     12849     12850     12851
     12850     12852     12851     12852     12853     12854     12853     12855
     12854     12855     12856     12857     12856     12858     12857     12858
     12859     12860     12859     12861     12860     12861     12862     12863
     12862     12864     12863     12864     12865     12866     12865     12867
     12866     12867     12868     12869     12868     12870     12869     12870
     12871     12872     12871     12873     12872     12873     12874     12875
     12874     12876     12875     12876     12877     12878     12877     12879
     12878     12879     12880     12881     12880     12882     12881     12882
     12883     12884     12883     12885     12884     12885     12886     12887
     12886     12888     12887     12888     12889     12890     12889     12891
     12890     12891     12892     12893     12892     12894     12893     12894
     12895     12896     12895     12897     12896     12897     12898     12899
     12898     12900     12899     12900     12901     12902     12901     12903
     12902     12903     12904     12905     12904     12906     12905     12906
     12907     12908     12907     12909     12908     12909     12910     12911
     12910     12912     12911     12912     12913     12914     12913     12915
     12914     12915     12916     12917     12916     12918     12917     12918
     12919     12920     12919     12921     12920     12921     12922     12923
     12922     12924     12923     12924     12925     12926     12925     12927
     12926     12927     12928     12929     12928     12930     12929     12930
     12931     12932     12931     12933     12932     12933     12934     12935
     12934     12936     12935     12936     12937     12938     12937     12939
     12938     12939     12940     12941     12940     12942     12941     12942
     12943     12944     12943     12945     12944     12945     12946     12947
     12946     12948     12947     12948     12949     12950     12949     12951
     12950     12951     12952     12953     12952     12954     12953     12954
     12955     12956     12955     12957     12956     12957     12958     12959
     12958     12960     12959     12960     12961     12962     12961     12963
     12962     12963     12964     12965     12964     12966     12965     12966
     12967     12968     12967     12969     12968     12969     12970     12971
     12970     12972     12971     12972     12973     12974     12973     12975
     12974     12975     12976     12977     12976     12978     12977     12978
     12979     12980     12979     12981     12980     12981     12982     12983
     12982     12984     12983     12984     12985     12986     12985     12987
     12986     12987     12988     12989     12988     12990     12989     12990
     12991     12992     12991     12993     12992     12993     12994     12995
     12994     12996     12995     12996     12997     12998     12997     12999
     12998     12999     13000     13001     13000     13002     13001     13002
     13003     13004     13003     13005     13004     13005     13006     13007
     13006     13008     13007     13008     13009     13010     13009     13011
     13010     13011     13012     13013     13012     13014     13013     13014
     13015     13016     13015     13017     13016     13017     13018     13019
     13018     13020     13019     13020     13021     13022     13021     13023
     13022     13023     13024     13025     13024     13026     13025     13026
     13027     13028     13027     13029     13028     13029     13030     13031
     13030     13032     13031     13032     13033     13034     13033     13035
     13034     13035     13036     13037     13036     13038     13037     13038
     13039     13040     13039     13041     13040     13041     13042     13043
     13042     13044     13043     13044     13045     13046     13045     13047
     13046     13047     13048     13049     13048     13050     13049     13050
     13051     13052     13051     13053     13052     13053     13054     13055
     13054     13056     13055     13056     13057     13058     13057     13059
     13058     13059     13060     13061     13060     13062     13061     13062
     13063     13064     13063     13065     13064     13065     13066     13067
     13066     13068     13067     13068     13069     13070     13069     13071
     13070     13071     13072     13073     13072     13074     13073     13074
     13075     13076     13075     13077     13076     13077     13078     13079
     13078     13080     13079     13080     13081     13082     13081     13083
     13082     13083     13084     13085     13084     13086     13085     13086
     13087     13088     13087     13089     13088     13089     13090     13091
     13090     13092     13091     13092     13093     13094     13093     13095
     13094     13095     13096     13097     13096     13098     13097     13098
     13099     13100     13099     13101     13100     13101     13102     13103
     13102     13104     13103     13104     13105     13106     13105     13107
     13106     13107     13108     13109     13108     13110     13109     13110
     13111     13112     13111     13113     13112     13113     13114     13115
     13114     13116     13115     13116     13117     13118     13117     13119
     13118     13119     13120     13121     13120     13122     13121     13122
     13123     13124     13123     13125     13124     13125     13126     13127
     13126     13128     13127     13128     13129     13130     13129     13131
     13130     13131     13132     13133     13132     13134     13133     13134
     13135     13136     13135     13137     13136     13137     13138     13139
     13138     13140     13139     13140     13141     13142     13141     13143
     13142     13143     13144     13145     13144     13146     13145     13146
     13147     13148     13147     13149     13148     13149     13150     13151
     13150     13152     13151     13152     13153     13154     13153     13155
     13154     13155     13156     13157     13156     13158     13157     13158
     13159     13160     13159     13161     13160     13161     13162     13163
     13162     13164     13163     13164     13165     13166     13165     13167
     13166     13167     13168     13169     13168     13170     13169     13170
     13171     13172     13171     13173     13172     13173     13174     13175
     13174     13176     13175     13176     13177     13178     13177     13179
     13178     13179     13180     13181     13180     13182     13181     13182
     13183     13184     13183     13185     13184     13185     13186     13187
     13186     13188     13187     13188     13189     13190     13189     13191
     13190     13191     13192     13193     13192     13194     13193     13194
     13195     13196     13195     13197     13196     13197     13198     13199
     13198     13200     13199     13200     13201     13202     13201     13203
     13202     13203     13204     13205     13204     13206     13205     13206
     13207     13208     13207     13209     13208     13209     13210     13211
     13210     13212     13211     13212     13213     13214     13213     13215
     13214     13215     13216     13217     13216     13218     13217     13218
     13219     13220     13219     13221     13220     13221     13222     13223
     13222     13224     13223     13224     13225     13226     13225     13227
     13226     13227     13228     13229     13228     13230     13229     13230
     13231     13232     13231     13233     13232     13233     13234     13235
     13234     13236     13235     13236     13237     13238     13237     13239
     13238     13239     13240     13241     13240     13242     13241     13242
     13243     13244     13243     13245     13244     13245     13246     13247
     13246     13248     13247     13248     13249     13250     13249     13251
     13250     13251     13252     13253     13252     13254     13253     13254
     13255     13256     13255     13257     13256     13257     13258     13259
     13258     13260     13259     13260     13261     13262     13261     13263
     13262     13263     13264     13265     13264     13266     13265     13266
     13267     13268     13267     13269     13268     13269     13270     13271
     13270     13272     13271     13272     13273     13274     13273     13275
     13274     13275     13276     13277     13276     13278     13277     13278
     13279     13280     13279     13281     13280     13281     13282     13283
     13282     13284     13283     13284     13285     13286     13285     13287
     13286     13287     13288     13289     13288     13290     13289     13290
     13291     13292     13291     13293     13292     13293     13294     13295
     13294     13296     13295     13296     13297     13298     13297     13299
     13298     13299     13300     13301     13300     13302     13301     13302
     13303     13304     13303     13305     13304     13305     13306     13307
     13306     13308     13307     13308     13309     13310     13309     13311
     13310     13311     13312     13313     13312     13314     13313     13314
     13315     13316     13315     13317     13316     13317     13318     13319
     13318     13320     13319     13320     13321     13322     13321     13323
     13322     13323     13324     13325     13324     13326     13325     13326
     13327     13328     13327     13329     13328     13329     13330     13331
     13330     13332     13331     13332     13333     13334     13333     13335
     13334     13335     13336     13337     13336     13338     13337     13338
     13339     13340     13339     13341     13340     13341     13342     13343
     13342     13344     13343     13344     13345     13346     13345     13347
     13346     13347     13348     13349     13348     13350     13349     13350
     13351     13352     13351     13353     13352     13353     13354     13355
     13354     13356     13355     13356     13357     13358     13357     13359
     13358     13359     13360     13361     13360     13362     13361     13362
     13363     13364     13363     13365     13364     13365     13366     13367
     13366     13368     13367     13368     13369     13370     13369     13371
     13370     13371     13372     13373     13372     13374     13373     13374
     13375     13376     13375     13377     13376     13377     13378     13379
     13378     13380     13379     13380     13381     13382     13381     13383
     13382     13383     13384     13385     13384     13386     13385     13386
     13387     13388     13387     13389     13388     13389     13390     13391
     13390     13392     13391     13392     13393     13394     13393     13395
     13394     13395     13396     13397     13396     13398     13397     13398
     13399     13400     13399     13401     13400     13401     13402     13403
     13402     13404     13403     13404     13405     13406     13405     13407
     13406     13407     13408     13409     13408     13410     13409     13410
     13411     13412     13411     13413     13412     13413     13414     13415
     13414     13416     13415     13416     13417     13418     13417     13419
     13418     13419     13420     13421     13420     13422     13421     13422
     13423     13424     13423     13425     13424     13425     13426     13427
     13426     13428     13427     13428     13429     13430     13429     13431
     13430     13431     13432     13433     13432     13434     13433     13434
     13435     13436     13435     13437     13436     13437     13438     13439
     13438     13440     13439     13440     13441     13442     13441     13443
     13442     13443     13444     13445     13444     13446     13445     13446
     13447     13448     13447     13449     13448     13449     13450     13451
     13450     13452     13451     13452     13453     13454     13453     13455
     13454     13455     13456     13457     13456     13458     13457     13458
     13459     13460     13459     13461     13460     13461     13462     13463
     13462     13464     13463     13464     13465     13466     13465     13467
     13466     13467     13468     13469     13468     13470     13469     13470
     13471     13472     13471     13473     13472     13473     13474     13475
     13474     13476     13475     13476     13477     13478     13477     13479
     13478     13479     13480     13481     13480     13482     13481     13482
     13483     13484     13483     13485     13484     13485     13486     13487
     13486     13488     13487     13488     13489     13490     13489     13491
     13490     13491     13492     13493     13492     13494     13493     13494
     13495     13496     13495     13497     13496     13497     13498     13499
     13498     13500     13499     13500     13501     13502     13501     13503
     13502     13503     13504     13505     13504     13506     13505     13506
     13507     13508     13507     13509     13508     13509     13510     13511
     13510     13512     13511     13512     13513     13514     13513     13515
     13514     13515     13516     13517     13516     13518     13517     13518
     13519     13520     13519     13521     13520     13521     13522     13523
     13522     13524     13523     13524     13525     13526     13525     13527
     13526     13527     13528     13529     13528     13530     13529     13530
     13531     13532     13531     13533     13532     13533     13534     13535
     13534     13536     13535     13536     13537     13538     13537     13539
     13538     13539     13540     13541     13540     13542     13541     13542
     13543     13544     13543     13545     13544     13545     13546     13547
     13546     13548     13547     13548     13549     13550     13549     13551
     13550     13551     13552     13553     13552     13554     13553     13554
     13555     13556     13555     13557     13556     13557     13558     13559
     13558     13560     13559     13560     13561     13562     13561     13563
     13562     13563     13564     13565     13564     13566     13565     13566
     13567     13568     13567     13569     13568     13569     13570     13571
     13570     13572     13571     13572     13573     13574     13573     13575
     13574     13575     13576     13577     13576     13578     13577     13578
     13579     13580     13579     13581     13580     13581     13582     13583
     13582     13584     13583     13584     13585     13586     13585     13587
     13586     13587     13588     13589     13588     13590     13589     13590
     13591     13592     13591     13593     13592     13593     13594     13595
     13594     13596     13595     13596     13597     13598     13597     13599
     13598     13599     13600     13601     13600     13602     13601     13602
     13603     13604     13603     13605     13604     13605     13606     13607
     13606     13608     13607     13608     13609     13610     13609     13611
     13610     13611     13612     13613     13612     13614     13613     13614
     13615     13616     13615     13617     13616     13617     13618     13619
     13618     13620     13619     13620     13621     13622     13621     13623
     13622     13623     13624     13625     13624     13626     13625     13626
     13627     13628     13627     13629     13628     13629     13630     13631
     13630     13632     13631     13632     13633     13634     13633     13635
     13634     13635     13636     13637     13636     13638     13637     13638
     13639     13640     13639     13641     13640     13641     13642     13643
     13642     13644     13643     13644     13645     13646     13645     13647
     13646     13647     13648     13649     13648     13650     13649     13650
     13651     13652     13651     13653     13652     13653     13654     13655
     13654     13656     13655     13656     13657     13658     13657     13659
     13658     13659     13660     13661     13660     13662     13661     13662
     13663     13664     13663     13665     13664     13665     13666     13667
     13666     13668     13667     13668     13669     13670     13669     13671
     13670     13671     13672     13673     13672     13674     13673     13674
     13675     13676     13675     13677     13676     13677     13678     13679
     13678     13680     13679     13680     13681     13682     13681     13683
     13682     13683     13684     13685     13684     13686     13685     13686
     13687     13688     13687     13689     13688     13689     13690     13691
     13690     13692     13691     13692     13693     13694     13693     13695
     13694     13695     13696     13697     13696     13698     13697     13698
     13699     13700     13699     13701     13700     13701     13702     13703
     13702     13704     13703     13704     13705     13706     13705     13707
     13706     13707     13708     13709     13708     13710     13709     13710
     13711     13712     13711     13713     13712     13713     13714     13715
     13714     13716     13715     13716     13717     13718     13717     13719
     13718     13719     13720     13721     13720     13722     13721     13722
     13723     13724     13723     13725     13724     13725     13726     13727
     13726     13728     13727     13728     13729     13730     13729     13731
     13730     13731     13732     13733     13732     13734     13733     13734
     13735     13736     13735     13737     13736     13737     13738     13739
     13738     13740     13739     13740     13741     13742     13741     13743
     13742     13743     13744     13745     13744     13746     13745     13746
     13747     13748     13747     13749     13748     13749     13750     13751
     13750     13752     13751     13752     13753     13754     13753     13755
     13754     13755     13756     13757     13756     13758     13757     13758
     13759     13760     13759     13761     13760     13761     13762     13763
     13762     13764     13763     13764     13765     13766     13765     13767
     13766     13767     13768     13769     13768     13770     13769     13770
     13771     13772     13771     13773     13772     13773     13774     13775
     13774     13776     13775     13776     13777     13778     13777     13779
     13778     13779     13780     13781     13780     13782     13781     13782
     13783     13784     13783     13785     13784     13785     13786     13787
     13786     13788     13787     13788     13789     13790     13789     13791
     13790     13791     13792     13793     13792     13794     13793     13794
     13795     13796     13795     13797     13796     13797     13798     13799
     13798     13800     13799     13800     13801     13802     13801     13803
     13802     13803     13804     13805     13804     13806     13805     13806
     13807     13808     13807     13809     13808     13809     13810     13811
     13810     13812     13811     13812     13813     13814     13813     13815
     13814     13815     13816     13817     13816     13818     13817     13818
     13819     13820     13819     13821     13820     13821     13822     13823
     13822     13824     13823     13824     13825     13826     13825     13827
     13826     13827     13828     13829     13828     13830     13829     13830
     13831     13832     13831     13833     13832     13833     13834     13835
     13834     13836     13835     13836     13837     13838     13837     13839
     13838     13839     13840     13841     13840     13842     13841     13842
     13843     13844     13843     13845     13844     13845     13846     13847
     13846     13848     13847     13848     13849     13850     13849     13851
     13850     13851     13852     13853     13852     13854     13853     13854
     13855     13856     13855     13857     13856     13857     13858     13859
     13858     13860     13859     13860     13861     13862     13861     13863
     13862     13863     13864     13865     13864     13866     13865     13866
     13867     13868     13867     13869     13868     13869     13870     13871
     13870     13872     13871     13872     13873     13874     13873     13875
     13874     13875     13876     13877     13876     13878     13877     13878
     13879     13880     13879     13881     13880     13881     13882     13883
     13882     13884     13883     13884     13885     13886     13885     13887
     13886     13887     13888     13889     13888     13890     13889     13890
     13891     13892     13891     13893     13892     13893     13894     13895
     13894     13896     13895     13896     13897     13898     13897     13899
     13898     13899     13900     13901     13900     13902     13901     13902
     13903     13904     13903     13905     13904     13905     13906     13907
     13906     13908     13907     13908     13909     13910     13909     13911
     13910     13911     13912     13913     13912     13914     13913     13914
     13915     13916     13915     13917     13916     13917     13918     13919
     13918     13920     13919     13920     13921     13922     13921     13923
     13922     13923     13924     13925     13924     13926     13925     13926
     13927     13928     13927     13929     13928     13929     13930     13931
     13930     13932     13931     13932     13933     13934     13933     13935
     13934     13935     13936     13937     13936     13938     13937     13938
     13939     13940     13939     13941     13940     13941     13942     13943
     13942     13944     13943     13944     13945     13946     13945     13947
     13946     13947     13948     13949     13948     13950     13949     13950
     13951     13952     13951     13953     13952     13953     13954     13955
     13954     13956     13955     13956     13957     13958     13957     13959
     13958     13959     13960     13961     13960     13962     13961     13962
     13963     13964     13963     13965     13964     13965     13966     13967
     13966     13968     13967     13968     13969     13970     13969     13971
     13970     13971     13972     13973     13972     13974     13973     13974
     13975     13976     13975     13977     13976     13977     13978     13979
     13978     13980     13979     13980     13981     13982     13981     13983
     13982     13983     13984     13985     13984     13986     13985     13986
     13987     13988     13987     13989     13988     13989     13990     13991
     13990     13992     13991     13992     13993     13994     13993     13995
     13994     13995     13996     13997     13996     13998     13997     13998
     13999     14000     13999     14001     14000     14001     14002     14003
     14002     14004     14003     14004     14005     14006     14005     14007
     14006     14007     14008     14009     14008     14010     14009     14010
     14011     14012     14011     14013     14012     14013     14014     14015
     14014     14016     14015     14016     14017     14018     14017     14019
     14018     14019     14020     14021     14020     14022     14021     14022
     14023     14024     14023     14025     14024     14025     14026     14027
     14026     14028     14027     14028     14029     14030     14029     14031
     14030     14031     14032     14033     14032     14034     14033     14034
     14035     14036     14035     14037     14036     14037     14038     14039
     14038     14040     14039     14040     14041     14042     14041     14043
     14042     14043     14044     14045     14044     14046     14045     14046
     14047     14048     14047     14049     14048     14049     14050     14051
     14050     14052     14051     14052     14053     14054     14053     14055
     14054     14055     14056     14057     14056     14058     14057     14058
     14059     14060     14059     14061     14060     14061     14062     14063
     14062     14064     14063     14064     14065     14066     14065     14067
     14066     14067     14068     14069     14068     14070     14069     14070
     14071     14072     14071     14073     14072     14073     14074     14075
     14074     14076     14075     14076     14077     14078     14077     14079
     14078     14079     14080     14081     14080     14082     14081     14082
     14083     14084     14083     14085     14084     14085     14086     14087
     14086     14088     14087     14088     14089     14090     14089     14091
     14090     14091     14092     14093     14092     14094     14093     14094
     14095     14096     14095     14097     14096     14097     14098     14099
     14098     14100     14099     14100     14101     14102     14101     14103
     14102     14103     14104     14105     14104     14106     14105     14106
     14107     14108     14107     14109     14108     14109     14110     14111
     14110     14112     14111     14112     14113     14114     14113     14115
     14114     14115     14116     14117     14116     14118     14117     14118
     14119     14120     14119     14121     14120     14121     14122     14123
     14122     14124     14123     14124     14125     14126     14125     14127
     14126     14127     14128     14129     14128     14130     14129     14130
     14131     14132     14131     14133     14132     14133     14134     14135
     14134     14136     14135     14136     14137     14138     14137     14139
     14138     14139     14140     14141     14140     14142     14141     14142
     14143     14144     14143     14145     14144     14145     14146     14147
     14146     14148     14147     14148     14149     14150     14149     14151
     14150     14151     14152     14153     14152     14154     14153     14154
     14155     14156     14155     14157     14156     14157     14158     14159
     14158     14160     14159     14160     14161     14162     14161     14163
     14162     14163     14164     14165     14164     14166     14165     14166
     14167     14168     14167     14169     14168     14169     14170     14171
     14170     14172     14171     14172     14173     14174     14173     14175
     14174     14175     14176     14177     14176     14178     14177     14178
     14179     14180     14179     14181     14180     14181     14182     14183
     14182     14184     14183     14184     14185     14186     14185     14187
     14186     14187     14188     14189     14188     14190     14189     14190
     14191     14192     14191     14193     14192     14193     14194     14195
     14194     14196     14195     14196     14197     14198     14197     14199
     14198     14199     14200     14201     14200     14202     14201     14202
     14203     14204     14203     14205     14204     14205     14206     14207
     14206     14208     14207     14208     14209     14210     14209     14211
     14210     14211     14212     14213     14212     14214     14213     14214
     14215     14216     14215     14217     14216     14217     14218     14219
     14218     14220     14219     14220     14221     14222     14221     14223
     14222     14223     14224     14225     14224     14226     14225     14226
     14227     14228     14227     14229     14228     14229     14230     14231
     14230     14232     14231     14232     14233     14234     14233     14235
     14234     14235     14236     14237     14236     14238     14237     14238
     14239     14240     14239     14241     14240     14241     14242     14243
     14242     14244     14243     14244     14245     14246     14245     14247
     14246     14247     14248     14249     14248     14250     14249     14250
     14251     14252     14251     14253     14252     14253     14254     14255
     14254     14256     14255     14256     14257     14258     14257     14259
     14258     14259     14260     14261     14260     14262     14261     14262
     14263     14264     14263     14265     14264     14265     14266     14267
     14266     14268     14267     14268     14269     14270     14269     14271
     14270     14271     14272     14273     14272     14274     14273     14274
     14275     14276     14275     14277     14276     14277     14278     14279
     14278     14280     14279     14280     14281     14282     14281     14283
     14282     14283     14284     14285     14284     14286     14285     14286
     14287     14288     14287     14289     14288     14289     14290     14291
     14290     14292     14291     14292     14293     14294     14293     14295
     14294     14295     14296     14297     14296     14298     14297     14298
     14299     14300     14299     14301     14300     14301     14302     14303
     14302     14304     14303     14304     14305     14306     14305     14307
     14306     14307     14308     14309     14308     14310     14309     14310
     14311     14312     14311     14313     14312     14313     14314     14315
     14314     14316     14315     14316     14317     14318     14317     14319
     14318     14319     14320     14321     14320     14322     14321     14322
     14323     14324     14323     14325     14324     14325     14326     14327
     14326     14328     14327     14328     14329     14330     14329     14331
     14330     14331     14332     14333     14332     14334     14333     14334
     14335     14336     14335     14337     14336     14337     14338     14339
     14338     14340     14339     14340     14341     14342     14341     14343
     14342     14343     14344     14345     14344     14346     14345     14346
     14347     14348     14347     14349     14348     14349     14350     14351
     14350     14352     14351     14352     14353     14354     14353     14355
     14354     14355     14356     14357     14356     14358     14357     14358
     14359     14360     14359     14361     14360     14361     14362     14363
     14362     14364     14363     14364     14365     14366     14365     14367
     14366     14367     14368     14369     14368     14370     14369     14370
     14371     14372     14371     14373     14372     14373     14374     14375
     14374     14376     14375     14376     14377     14378     14377     14379
     14378     14379     14380     14381     14380     14382     14381     14382
     14383     14384     14383     14385     14384     14385     14386     14387
     14386     14388     14387     14388     14389     14390     14389     14391
     14390     14391     14392     14393     14392     14394     14393     14394
     14395     14396     14395     14397     14396     14397     14398     14399
     14398     14400     14399     14400     14401     14402     14401     14403
     14402     14403     14404     14405     14404     14406     14405     14406
     14407     14408     14407     14409     14408     14409     14410     14411
     14410     14412     14411     14412     14413     14414     14413     14415
     14414     14415     14416     14417     14416     14418     14417     14418
     14419     14420     14419     14421     14420     14421     14422     14423
     14422     14424     14423     14424     14425     14426     14425     14427
     14426     14427     14428     14429     14428     14430     14429     14430
     14431     14432     14431     14433     14432     14433     14434     14435
     14434     14436     14435     14436     14437     14438     14437     14439
     14438     14439     14440     14441     14440     14442     14441     14442
     14443     14444     14443     14445     14444     14445     14446     14447
     14446     14448     14447     14448     14449     14450     14449     14451
     14450     14451     14452     14453     14452     14454     14453     14454
     14455     14456     14455     14457     14456     14457     14458     14459
     14458     14460     14459     14460     14461     14462     14461     14463
     14462     14463     14464     14465     14464     14466     14465     14466
     14467     14468     14467     14469     14468     14469     14470     14471
     14470     14472     14471     14472     14473     14474     14473     14475
     14474     14475     14476     14477     14476     14478     14477     14478
     14479     14480     14479     14481     14480     14481     14482     14483
     14482     14484     14483     14484     14485     14486     14485     14487
     14486     14487     14488     14489     14488     14490     14489     14490
     14491     14492     14491     14493     14492     14493     14494     14495
     14494     14496     14495     14496     14497     14498     14497     14499
     14498     14499     14500     14501     14500     14502     14501     14502
     14503     14504     14503     14505     14504     14505     14506     14507
     14506     14508     14507     14508     14509     14510     14509     14511
     14510     14511     14512     14513     14512     14514     14513     14514
     14515     14516     14515     14517     14516     14517     14518     14519
     14518     14520     14519     14520     14521     14522     14521     14523
     14522     14523     14524     14525     14524     14526     14525     14526
     14527     14528     14527     14529     14528     14529     14530     14531
     14530     14532     14531     14532     14533     14534     14533     14535
     14534     14535     14536     14537     14536     14538     14537     14538
     14539     14540     14539     14541     14540     14541     14542     14543
     14542     14544     14543     14544     14545     14546     14545     14547
     14546     14547     14548     14549     14548     14550     14549     14550
     14551     14552     14551     14553     14552     14553     14554     14555
     14554     14556     14555     14556     14557     14558     14557     14559
     14558     14559     14560     14561     14560     14562     14561     14562
     14563     14564     14563     14565     14564     14565     14566     14567
     14566     14568     14567     14568     14569     14570     14569     14571
     14570     14571     14572     14573     14572     14574     14573     14574
     14575     14576     14575     14577     14576     14577     14578     14579
     14578     14580     14579     14580     14581     14582     14581     14583
     14582     14583     14584     14585     14584     14586     14585     14586
     14587     14588     14587     14589     14588     14589     14590     14591
     14590     14592     14591     14592     14593     14594     14593     14595
     14594     14595     14596     14597     14596     14598     14597     14598
     14599     14600     14599     14601     14600     14601     14602     14603
     14602     14604     14603     14604     14605     14606     14605     14607
     14606     14607     14608     14609     14608     14610     14609     14610
     14611     14612     14611     14613     14612     14613     14614     14615
     14614     14616     14615     14616     14617     14618     14617     14619
     14618     14619     14620     14621     14620     14622     14621     14622
     14623     14624     14623     14625     14624     14625     14626     14627
     14626     14628     14627     14628     14629     14630     14629     14631
     14630     14631     14632     14633     14632     14634     14633     14634
     14635     14636     14635     14637     14636     14637     14638     14639
     14638     14640     14639     14640     14641     14642     14641     14643
     14642     14643     14644     14645     14644     14646     14645     14646
     14647     14648     14647     14649     14648     14649     14650     14651
     14650     14652     14651     14652     14653     14654     14653     14655
     14654     14655     14656     14657     14656     14658     14657     14658
     14659     14660     14659     14661     14660     14661     14662     14663
     14662     14664     14663     14664     14665     14666     14665     14667
     14666     14667     14668     14669     14668     14670     14669     14670
     14671     14672     14671     14673     14672     14673     14674     14675
     14674     14676     14675     14676     14677     14678     14677     14679
     14678     14679     14680     14681     14680     14682     14681     14682
     14683     14684     14683     14685     14684     14685     14686     14687
     14686     14688     14687     14688     14689     14690     14689     14691
     14690     14691     14692     14693     14692     14694     14693     14694
     14695     14696     14695     14697     14696     14697     14698     14699
     14698     14700     14699     14700     14701     14702     14701     14703
     14702     14703     14704     14705     14704     14706     14705     14706
     14707     14708     14707     14709     14708     14709     14710     14711
     14710     14712     14711     14712     14713     14714     14713     14715
     14714     14715     14716     14717     14716     14718     14717     14718
     14719     14720     14719     14721     14720     14721     14722     14723
     14722     14724     14723     14724     14725     14726     14725     14727
     14726     14727     14728     14729     14728     14730     14729     14730
     14731     14732     14731     14733     14732     14733     14734     14735
     14734     14736     14735     14736     14737     14738     14737     14739
     14738     14739     14740     14741     14740     14742     14741     14742
     14743     14744     14743     14745     14744     14745     14746     14747
     14746     14748     14747     14748     14749     14750     14749     14751
     14750     14751     14752     14753     14752     14754     14753     14754
     14755     14756     14755     14757     14756     14757     14758     14759
     14758     14760     14759     14760     14761     14762     14761     14763
     14762     14763     14764     14765     14764     14766     14765     14766
     14767     14768     14767     14769     14768     14769     14770     14771
     14770     14772     14771     14772     14773     14774     14773     14775
     14774     14775     14776     14777     14776     14778     14777     14778
     14779     14780     14779     14781     14780     14781     14782     14783
     14782     14784     14783     14784     14785     14786     14785     14787
     14786     14787     14788     14789     14788     14790     14789     14790
     14791     14792     14791     14793     14792     14793     14794     14795
     14794     14796     14795     14796     14797     14798     14797     14799
     14798     14799     14800     14801     14800     14802     14801     14802
     14803     14804     14803     14805     14804     14805     14806     14807
     14806     14808     14807     14808     14809     14810     14809     14811
     14810     14811     14812     14813     14812     14814     14813     14814
     14815     14816     14815     14817     14816     14817     14818     14819
     14818     14820     14819     14820     14821     14822     14821     14823
     14822     14823     14824     14825     14824     14826     14825     14826
     14827     14828     14827     14829     14828     14829     14830     14831
     14830     14832     14831     14832     14833     14834     14833     14835
     14834     14835     14836     14837     14836     14838     14837     14838
     14839     14840     14839     14841     14840     14841     14842     14843
     14842     14844     14843     14844     14845     14846     14845     14847
     14846     14847     14848     14849     14848     14850     14849     14850
     14851     14852     14851     14853     14852     14853     14854     14855
     14854     14856     14855     14856     14857     14858     14857     14859
     14858     14859     14860     14861     14860     14862     14861     14862
     14863     14864     14863     14865     14864     14865     14866     14867
     14866     14868     14867     14868     14869     14870     14869     14871
     14870     14871     14872     14873     14872     14874     14873     14874
     14875     14876     14875     14877     14876     14877     14878     14879
     14878     14880     14879     14880     14881     14882     14881     14883
     14882     14883     14884     14885     14884     14886     14885     14886
     14887     14888     14887     14889     14888     14889     14890     14891
     14890     14892     14891     14892     14893     14894     14893     14895
     14894     14895     14896     14897     14896     14898     14897     14898
     14899     14900     14899     14901     14900     14901     14902     14903
     14902     14904     14903     14904     14905     14906     14905     14907
     14906     14907     14908     14909     14908     14910     14909     14910
     14911     14912     14911     14913     14912     14913     14914     14915
     14914     14916     14915     14916     14917     14918     14917     14919
     14918     14919     14920     14921     14920     14922     14921     14922
     14923     14924     14923     14925     14924     14925     14926     14927
     14926     14928     14927     14928     14929     14930     14929     14931
     14930     14931     14932     14933     14932     14934     14933     14934
     14935     14936     14935     14937     14936     14937     14938     14939
     14938     14940     14939     14940     14941     14942     14941     14943
     14942     14943     14944     14945     14944     14946     14945     14946
     14947     14948     14947     14949     14948     14949     14950     14951
     14950     14952     14951     14952     14953     14954     14953     14955
     14954     14955     14956     14957     14956     14958     14957     14958
     14959     14960     14959     14961     14960     14961     14962     14963
     14962     14964     14963     14964     14965     14966     14965     14967
     14966     14967     14968     14969     14968     14970     14969     14970
     14971     14972     14971     14973     14972     14973     14974     14975
     14974     14976     14975     14976     14977     14978     14977     14979
     14978     14979     14980     14981     14980     14982     14981     14982
     14983     14984     14983     14985     14984     14985     14986     14987
     14986     14988     14987     14988     14989     14990     14989     14991
     14990     14991     14992     14993     14992     14994     14993     14994
     14995     14996     14995     14997     14996     14997     14998     14999
     14998     15000     14999     15000     15001     15002     15001     15003
     15002     15003     15004     15005     15004     15006     15005     15006
     15007     15008     15007     15009     15008     15009     15010     15011
     15010     15012     15011     15012     15013     15014     15013     15015
     15014     15015     15016     15017     15016     15018     15017     15018
     15019     15020     15019     15021     15020     15021     15022     15023
     15022     15024     15023     15024     15025     15026     15025     15027
     15026     15027     15028     15029     15028     15030     15029     15030
     15031     15032     15031     15033     15032     15033     15034     15035
     15034     15036     15035     15036     15037     15038     15037     15039
     15038     15039     15040     15041     15040     15042     15041     15042
     15043     15044     15043     15045     15044     15045     15046     15047
     15046     15048     15047     15048     15049     15050     15049     15051
     15050     15051     15052     15053     15052     15054     15053     15054
     15055     15056     15055     15057     15056     15057     15058     15059
     15058     15060     15059     15060     15061     15062     15061     15063
     15062     15063     15064     15065     15064     15066     15065     15066
     15067     15068     15067     15069     15068     15069     15070     15071
     15070     15072     15071     15072     15073     15074     15073     15075
     15074     15075     15076     15077     15076     15078     15077     15078
     15079     15080     15079     15081     15080     15081     15082     15083
     15082     15084     15083     15084     15085     15086     15085     15087
     15086     15087     15088     15089     15088     15090     15089     15090
     15091     15092     15091     15093     15092     15093     15094     15095
     15094     15096     15095     15096     15097     15098     15097     15099
     15098     15099     15100     15101     15100     15102     15101     15102
     15103     15104     15103     15105     15104     15105     15106     15107
     15106     15108     15107     15108     15109     15110     15109     15111
     15110     15111     15112     15113     15112     15114     15113     15114
     15115     15116     15115     15117     15116     15117     15118     15119
     15118     15120     15119     15120     15121     15122     15121     15123
     15122     15123     15124     15125     15124     15126     15125     15126
     15127     15128     15127     15129     15128     15129     15130     15131
     15130     15132     15131     15132     15133     15134     15133     15135
     15134     15135     15136     15137     15136     15138     15137     15138
     15139     15140     15139     15141     15140     15141     15142     15143
     15142     15144     15143     15144     15145     15146     15145     15147
     15146     15147     15148     15149     15148     15150     15149     15150
     15151     15152     15151     15153     15152     15153     15154     15155
     15154     15156     15155     15156     15157     15158     15157     15159
     15158     15159     15160     15161     15160     15162     15161     15162
     15163     15164     15163     15165     15164     15165     15166     15167
     15166     15168     15167     15168     15169     15170     15169     15171
     15170     15171     15172     15173     15172     15174     15173     15174
     15175     15176     15175     15177     15176     15177     15178     15179
     15178     15180     15179     15180     15181     15182     15181     15183
     15182     15183     15184     15185     15184     15186     15185     15186
     15187     15188     15187     15189     15188     15189     15190     15191
     15190     15192     15191     15192     15193     15194     15193     15195
     15194     15195     15196     15197     15196     15198     15197     15198
     15199     15200     15199     15201     15200     15201     15202     15203
     15202     15204     15203     15204     15205     15206     15205     15207
     15206     15207     15208     15209     15208     15210     15209     15210
     15211     15212     15211     15213     15212     15213     15214     15215
     15214     15216     15215     15216     15217     15218     15217     15219
     15218     15219     15220     15221     15220     15222     15221     15222
     15223     15224     15223     15225     15224     15225     15226     15227
     15226     15228     15227     15228     15229     15230     15229     15231
     15230     15231     15232     15233     15232     15234     15233     15234
     15235     15236     15235     15237     15236     15237     15238     15239
     15238     15240     15239     15240     15241     15242     15241     15243
     15242     15243     15244     15245     15244     15246     15245     15246
     15247     15248     15247     15249     15248     15249     15250     15251
     15250     15252     15251     15252     15253     15254     15253     15255
     15254     15255     15256     15257     15256     15258     15257     15258
     15259     15260     15259     15261     15260     15261     15262     15263
     15262     15264     15263     15264     15265     15266     15265     15267
     15266     15267     15268     15269     15268     15270     15269     15270
     15271     15272     15271     15273     15272     15273     15274     15275
     15274     15276     15275     15276     15277     15278     15277     15279
     15278     15279     15280     15281     15280     15282     15281     15282
     15283     15284     15283     15285     15284     15285     15286     15287
     15286     15288     15287     15288     15289     15290     15289     15291
     15290     15291     15292     15293     15292     15294     15293     15294
     15295     15296     15295     15297     15296     15297     15298     15299
     15298     15300     15299     15300     15301     15302     15301     15303
     15302     15303     15304     15305     15304     15306     15305     15306
     15307     15308     15307     15309     15308     15309     15310     15311
     15310     15312     15311     15312     15313     15314     15313     15315
     15314     15315     15316     15317     15316     15318     15317     15318
     15319     15320     15319     15321     15320     15321     15322     15323
     15322     15324     15323     15324     15325     15326     15325     15327
     15326     15327     15328     15329     15328     15330     15329     15330
     15331     15332     15331     15333     15332     15333     15334     15335
     15334     15336     15335     15336     15337     15338     15337     15339
     15338     15339     15340     15341     15340     15342     15341     15342
     15343     15344     15343     15345     15344     15345     15346     15347
     15346     15348     15347     15348     15349     15350     15349     15351
     15350     15351     15352     15353     15352     15354     15353     15354
     15355     15356     15355     15357     15356     15357     15358     15359
     15358     15360     15359     15360     15361     15362     15361     15363
     15362     15363     15364     15365     15364     15366     15365     15366
     15367     15368     15367     15369     15368     15369     15370     15371
     15370     15372     15371     15372     15373     15374     15373     15375
     15374     15375     15376     15377     15376     15378     15377     15378
     15379     15380     15379     15381     15380     15381     15382     15383
     15382     15384     15383     15384     15385     15386     15385     15387
     15386     15387     15388     15389     15388     15390     15389     15390
     15391     15392     15391     15393     15392     15393     15394     15395
     15394     15396     15395     15396     15397     15398     15397     15399
     15398     15399     15400     15401     15400     15402     15401     15402
     15403     15404     15403     15405     15404     15405     15406     15407
     15406     15408     15407     15408     15409     15410     15409     15411
     15410     15411     15412     15413     15412     15414     15413     15414
     15415     15416     15415     15417     15416     15417     15418     15419
     15418     15420     15419     15420     15421     15422     15421     15423
     15422     15423     15424     15425     15424     15426     15425     15426
     15427     15428     15427     15429     15428     15429     15430     15431
     15430     15432     15431     15432     15433     15434     15433     15435
     15434     15435     15436     15437     15436     15438     15437     15438
     15439     15440     15439     15441     15440     15441     15442     15443
     15442     15444     15443     15444     15445     15446     15445     15447
     15446     15447     15448     15449     15448     15450     15449     15450
     15451     15452     15451     15453     15452     15453     15454     15455
     15454     15456     15455     15456     15457     15458     15457     15459
     15458     15459     15460     15461     15460     15462     15461     15462
     15463     15464     15463     15465     15464     15465     15466     15467
     15466     15468     15467     15468     15469     15470     15469     15471
     15470     15471     15472     15473     15472     15474     15473     15474
     15475     15476     15475     15477     15476     15477     15478     15479
     15478     15480     15479     15480     15481     15482     15481     15483
     15482     15483     15484     15485     15484     15486     15485     15486
     15487     15488     15487     15489     15488     15489     15490     15491
     15490     15492     15491     15492     15493     15494     15493     15495
     15494     15495     15496     15497     15496     15498     15497     15498
     15499     15500     15499     15501     15500     15501     15502     15503
     15502     15504     15503     15504     15505     15506     15505     15507
     15506     15507     15508     15509     15508     15510     15509     15510
     15511     15512     15511     15513     15512     15513     15514     15515
     15514     15516     15515     15516     15517     15518     15517     15519
     15518     15519     15520     15521     15520     15522     15521     15522
     15523     15524     15523     15525     15524     15525     15526     15527
     15526     15528     15527     15528     15529     15530     15529     15531
     15530     15531     15532     15533     15532     15534     15533     15534
     15535     15536     15535     15537     15536     15537     15538     15539
     15538     15540     15539     15540     15541     15542     15541     15543
     15542     15543     15544     15545     15544     15546     15545     15546
     15547     15548     15547     15549     15548     15549     15550     15551
     15550     15552     15551     15552     15553     15554     15553     15555
     15554     15555     15556     15557     15556     15558     15557     15558
     15559     15560     15559     15561     15560     15561     15562     15563
     15562     15564     15563     15564     15565     15566     15565     15567
     15566     15567     15568     15569     15568     15570     15569     15570
     15571     15572     15571     15573     15572     15573     15574     15575
     15574     15576     15575     15576     15577     15578     15577     15579
     15578     15579     15580     15581     15580     15582     15581     15582
     15583     15584     15583     15585     15584     15585     15586     15587
     15586     15588     15587     15588     15589     15590     15589     15591
     15590     15591     15592     15593     15592     15594     15593     15594
     15595     15596     15595     15597     15596     15597     15598     15599
     15598     15600     15599     15600     15601     15602     15601     15603
     15602     15603     15604     15605     15604     15606     15605     15606
     15607     15608     15607     15609     15608     15609     15610     15611
     15610     15612     15611     15612     15613     15614     15613     15615
     15614     15615     15616     15617     15616     15618     15617     15618
     15619     15620     15619     15621     15620     15621     15622     15623
     15622     15624     15623     15624     15625     15626     15625     15627
     15626     15627     15628     15629     15628     15630     15629     15630
     15631     15632     15631     15633     15632     15633     15634     15635
     15634     15636     15635     15636     15637     15638     15637     15639
     15638     15639     15640     15641     15640     15642     15641     15642
     15643     15644     15643     15645     15644     15645     15646     15647
     15646     15648     15647     15648     15649     15650     15649     15651
     15650     15651     15652     15653     15652     15654     15653     15654
     15655     15656     15655     15657     15656     15657     15658     15659
     15658     15660     15659     15660     15661     15662     15661     15663
     15662     15663     15664     15665     15664     15666     15665     15666
     15667     15668     15667     15669     15668     15669     15670     15671
     15670     15672     15671     15672     15673     15674     15673     15675
     15674     15675     15676     15677     15676     15678     15677     15678
     15679     15680     15679     15681     15680     15681     15682     15683
     15682     15684     15683     15684     15685     15686     15685     15687
     15686     15687     15688     15689     15688     15690     15689     15690
     15691     15692     15691     15693     15692     15693     15694     15695
     15694     15696     15695     15696     15697     15698     15697     15699
     15698     15699     15700     15701     15700     15702     15701     15702
     15703     15704     15703     15705     15704     15705     15706     15707
     15706     15708     15707     15708     15709     15710     15709     15711
     15710     15711     15712     15713     15712     15714     15713     15714
     15715     15716     15715     15717     15716     15717     15718     15719
     15718     15720     15719     15720     15721     15722     15721     15723
     15722     15723     15724     15725     15724     15726     15725     15726
     15727     15728     15727     15729     15728     15729     15730     15731
     15730     15732     15731     15732     15733     15734     15733     15735
     15734     15735     15736     15737     15736     15738     15737     15738
     15739     15740     15739     15741     15740     15741     15742     15743
     15742     15744     15743     15744     15745     15746     15745     15747
     15746     15747     15748     15749     15748     15750     15749     15750
     15751     15752     15751     15753     15752     15753     15754     15755
     15754     15756     15755     15756     15757     15758     15757     15759
     15758     15759     15760     15761     15760     15762     15761     15762
     15763     15764     15763     15765     15764     15765     15766     15767
     15766     15768     15767     15768     15769     15770     15769     15771
     15770     15771     15772     15773     15772     15774     15773     15774
     15775     15776     15775     15777     15776     15777     15778     15779
     15778     15780     15779     15780     15781     15782     15781     15783
     15782     15783     15784     15785     15784     15786     15785     15786
     15787     15788     15787     15789     15788     15789     15790     15791
     15790     15792     15791     15792     15793     15794     15793     15795
     15794     15795     15796     15797     15796     15798     15797     15798
     15799     15800     15799     15801     15800     15801     15802     15803
     15802     15804     15803     15804     15805     15806     15805     15807
     15806     15807     15808     15809     15808     15810     15809     15810
     15811     15812     15811     15813     15812     15813     15814     15815
     15814     15816     15815     15816     15817     15818     15817     15819
     15818     15819     15820     15821     15820     15822     15821     15822
     15823     15824     15823     15825     15824     15825     15826     15827
     15826     15828     15827     15828     15829     15830     15829     15831
     15830     15831     15832     15833     15832     15834     15833     15834
     15835     15836     15835     15837     15836     15837     15838     15839
     15838     15840     15839     15840     15841     15842     15841     15843
     15842     15843     15844     15845     15844     15846     15845     15846
     15847     15848     15847     15849     15848     15849     15850     15851
     15850     15852     15851     15852     15853     15854     15853     15855
     15854     15855     15856     15857     15856     15858     15857     15858
     15859     15860     15859     15861     15860     15861     15862     15863
     15862     15864     15863     15864     15865     15866     15865     15867
     15866     15867     15868     15869     15868     15870     15869     15870
     15871     15872     15871     15873     15872     15873     15874     15875
     15874     15876     15875     15876     15877     15878     15877     15879
     15878     15879     15880     15881     15880     15882     15881     15882
     15883     15884     15883     15885     15884     15885     15886     15887
     15886     15888     15887     15888     15889     15890     15889     15891
     15890     15891     15892     15893     15892     15894     15893     15894
     15895     15896     15895     15897     15896     15897     15898     15899
     15898     15900     15899     15900     15901     15902     15901     15903
     15902     15903     15904     15905     15904     15906     15905     15906
     15907     15908     15907     15909     15908     15909     15910     15911
     15910     15912     15911     15912     15913     15914     15913     15915
     15914     15915     15916     15917     15916     15918     15917     15918
     15919     15920     15919     15921     15920     15921     15922     15923
     15922     15924     15923     15924     15925     15926     15925     15927
     15926     15927     15928     15929     15928     15930     15929     15930
     15931     15932     15931     15933     15932     15933     15934     15935
     15934     15936     15935     15936     15937     15938     15937     15939
     15938     15939     15940     15941     15940     15942     15941     15942
     15943     15944     15943     15945     15944     15945     15946     15947
     15946     15948     15947     15948     15949     15950     15949     15951
     15950     15951     15952     15953     15952     15954     15953     15954
     15955     15956     15955     15957     15956     15957     15958     15959
     15958     15960     15959     15960     15961     15962     15961     15963
     15962     15963     15964     15965     15964     15966     15965     15966
     15967     15968     15967     15969     15968     15969     15970     15971
     15970     15972     15971     15972     15973     15974     15973     15975
     15974     15975     15976     15977     15976     15978     15977     15978
     15979     15980     15979     15981     15980     15981     15982     15983
     15982     15984     15983     15984     15985     15986     15985     15987
     15986     15987     15988     15989     15988     15990     15989     15990
     15991     15992     15991     15993     15992     15993     15994     15995
     15994     15996     15995     15996     15997     15998     15997     15999
     15998     15999     16000     16001     16000     16002     16001     16002
     16003     16004     16003     16005     16004     16005     16006     16007
     16006     16008     16007     16008     16009     16010     16009     16011
     16010     16011     16012     16013     16012     16014     16013     16014
     16015     16016     16015     16017     16016     16017     16018     16019
     16018     16020     16019     16020     16021     16022     16021     16023
     16022     16023     16024     16025     16024     16026     16025     16026
     16027     16028     16027     16029     16028     16029     16030     16031
     16030     16032     16031     16032     16033     16034     16033     16035
     16034     16035     16036     16037     16036     16038     16037     16038
     16039     16040     16039     16041     16040     16041     16042     16043
     16042     16044     16043     16044     16045     16046     16045     16047
     16046     16047     16048     16049     16048     16050     16049     16050
     16051     16052     16051     16053     16052     16053     16054     16055
     16054     16056     16055     16056     16057     16058     16057     16059
     16058     16059     16060     16061     16060     16062     16061     16062
     16063     16064     16063     16065     16064     16065     16066     16067
     16066     16068     16067     16068     16069     16070     16069     16071
     16070     16071     16072     16073     16072     16074     16073     16074
     16075     16076     16075     16077     16076     16077     16078     16079
     16078     16080     16079     16080     16081     16082     16081     16083
     16082     16083     16084     16085     16084     16086     16085     16086
     16087     16088     16087     16089     16088     16089     16090     16091
     16090     16092     16091     16092     16093     16094     16093     16095
     16094     16095     16096     16097     16096     16098     16097     16098
     16099     16100     16099     16101     16100     16101     16102     16103
     16102     16104     16103     16104     16105     16106     16105     16107
     16106     16107     16108     16109     16108     16110     16109     16110
     16111     16112     16111     16113     16112     16113     16114     16115
     16114     16116     16115     16116     16117     16118     16117     16119
     16118     16119     16120     16121     16120     16122     16121     16122
     16123     16124     16123     16125     16124     16125     16126     16127
     16126     16128     16127     16128     16129     16130     16129     16131
     16130     16131     16132     16133     16132     16134     16133     16134
     16135     16136     16135     16137     16136     16137     16138     16139
     16138     16140     16139     16140     16141     16142     16141     16143
     16142     16143     16144     16145     16144     16146     16145     16146
     16147     16148     16147     16149     16148     16149     16150     16151
     16150     16152     16151     16152     16153     16154     16153     16155
     16154     16155     16156     16157     16156     16158     16157     16158
     16159     16160     16159     16161     16160     16161     16162     16163
     16162     16164     16163     16164     16165     16166     16165     16167
     16166     16167     16168     16169     16168     16170     16169     16170
     16171     16172     16171     16173     16172     16173     16174     16175
     16174     16176     16175     16176     16177     16178     16177     16179
     16178     16179     16180     16181     16180     16182     16181     16182
     16183     16184     16183     16185     16184     16185     16186     16187
     16186     16188     16187     16188     16189     16190     16189     16191
     16190     16191     16192     16193     16192     16194     16193     16194
     16195     16196     16195     16197     16196     16197     16198     16199
     16198     16200     16199     16200     16201     16202     16201     16203
     16202     16203     16204     16205     16204     16206     16205     16206
     16207     16208     16207     16209     16208     16209     16210     16211
     16210     16212     16211     16212     16213     16214     16213     16215
     16214     16215     16216     16217     16216     16218     16217     16218
     16219     16220     16219     16221     16220     16221     16222     16223
     16222     16224     16223     16224     16225     16226     16225     16227
     16226     16227     16228     16229     16228     16230     16229     16230
     16231     16232     16231     16233     16232     16233     16234     16235
     16234     16236     16235     16236     16237     16238     16237     16239
     16238     16239     16240     16241     16240     16242     16241     16242
     16243     16244     16243     16245     16244     16245     16246     16247
     16246     16248     16247     16248     16249     16250     16249     16251
     16250     16251     16252     16253     16252     16254     16253     16254
     16255     16256     16255     16257     16256     16257     16258     16259
     16258     16260     16259     16260     16261     16262     16261     16263
     16262     16263     16264     16265     16264     16266     16265     16266
     16267     16268     16267     16269     16268     16269     16270     16271
     16270     16272     16271     16272     16273     16274     16273     16275
     16274     16275     16276     16277     16276     16278     16277     16278
     16279     16280     16279     16281     16280     16281     16282     16283
     16282     16284     16283     16284     16285     16286     16285     16287
     16286     16287     16288     16289     16288     16290     16289     16290
     16291     16292     16291     16293     16292     16293     16294     16295
     16294     16296     16295     16296     16297     16298     16297     16299
     16298     16299     16300     16301     16300     16302     16301     16302
     16303     16304     16303     16305     16304     16305     16306     16307
     16306     16308     16307     16308     16309     16310     16309     16311
     16310     16311     16312     16313     16312     16314     16313     16314
     16315     16316     16315     16317     16316     16317     16318     16319
     16318     16320     16319     16320     16321     16322     16321     16323
     16322     16323     16324     16325     16324     16326     16325     16326
     16327     16328     16327     16329     16328     16329     16330     16331
     16330     16332     16331     16332     16333     16334     16333     16335
     16334     16335     16336     16337     16336     16338     16337     16338
     16339     16340     16339     16341     16340     16341     16342     16343
     16342     16344     16343     16344     16345     16346     16345     16347
     16346     16347     16348     16349     16348     16350     16349     16350
     16351     16352     16351     16353     16352     16353     16354     16355
     16354     16356     16355     16356     16357     16358     16357     16359
     16358     16359     16360     16361     16360     16362     16361     16362
     16363     16364     16363     16365     16364     16365     16366     16367
     16366     16368     16367     16368     16369     16370     16369     16371
     16370     16371     16372     16373     16372     16374     16373     16374
     16375     16376     16375     16377     16376     16377     16378     16379
     16378     16380     16379     16380     16381     16382     16381     16383
     16382     16383     16384     16385     16384     16386     16385     16386
     16387     16388     16387     16389     16388     16389     16390     16391
     16390     16392     16391     16392     16393     16394     16393     16395
     16394     16395     16396     16397     16396     16398     16397     16398
     16399     16400     16399     16401     16400     16401     16402     16403
     16402     16404     16403     16404     16405     16406     16405     16407
     16406     16407     16408     16409     16408     16410     16409     16410
     16411     16412     16411     16413     16412     16413     16414     16415
     16414     16416     16415     16416     16417     16418     16417     16419
     16418     16419     16420     16421     16420     16422     16421     16422
     16423     16424     16423     16425     16424     16425     16426     16427
     16426     16428     16427     16428     16429     16430     16429     16431
     16430     16431     16432     16433     16432     16434     16433     16434
     16435     16436     16435     16437     16436     16437     16438     16439
     16438     16440     16439     16440     16441     16442     16441     16443
     16442     16443     16444     16445     16444     16446     16445     16446
     16447     16448     16447     16449     16448     16449     16450     16451
     16450     16452     16451     16452     16453     16454     16453     16455
     16454     16455     16456     16457     16456     16458     16457     16458
     16459     16460     16459     16461     16460     16461     16462     16463
     16462     16464     16463     16464     16465     16466     16465     16467
     16466     16467     16468     16469     16468     16470     16469     16470
     16471     16472     16471     16473     16472     16473     16474     16475
     16474     16476     16475     16476     16477     16478     16477     16479
     16478     16479     16480     16481     16480     16482     16481     16482
     16483     16484     16483     16485     16484     16485     16486     16487
     16486     16488     16487     16488     16489     16490     16489     16491
     16490     16491     16492     16493     16492     16494     16493     16494
     16495     16496     16495     16497     16496     16497     16498     16499
     16498     16500     16499     16500     16501     16502     16501     16503
     16502     16503     16504     16505     16504     16506     16505     16506
     16507     16508     16507     16509     16508     16509     16510     16511
     16510     16512     16511     16512     16513     16514     16513     16515
     16514     16515     16516     16517     16516     16518     16517     16518
     16519     16520     16519     16521     16520     16521     16522     16523
     16522     16524     16523     16524     16525     16526     16525     16527
     16526     16527     16528     16529     16528     16530     16529     16530
     16531     16532     16531     16533     16532     16533     16534     16535
     16534     16536     16535     16536     16537     16538     16537     16539
     16538     16539     16540     16541     16540     16542     16541     16542
     16543     16544     16543     16545     16544     16545     16546     16547
     16546     16548     16547     16548     16549     16550     16549     16551
     16550     16551     16552     16553     16552     16554     16553     16554
     16555     16556     16555     16557     16556     16557     16558     16559
     16558     16560     16559     16560     16561     16562     16561     16563
     16562     16563     16564     16565     16564     16566     16565     16566
     16567     16568     16567     16569     16568     16569     16570     16571
     16570     16572     16571     16572     16573     16574     16573     16575
     16574     16575     16576     16577     16576     16578     16577     16578
     16579     16580     16579     16581     16580     16581     16582     16583
     16582     16584     16583     16584     16585     16586     16585     16587
     16586     16587     16588     16589     16588     16590     16589     16590
     16591     16592     16591     16593     16592     16593     16594     16595
     16594     16596     16595     16596     16597     16598     16597     16599
     16598     16599     16600     16601     16600     16602     16601     16602
     16603     16604     16603     16605     16604     16605     16606     16607
     16606     16608     16607     16608     16609     16610     16609     16611
     16610     16611     16612     16613     16612     16614     16613     16614
     16615     16616     16615     16617     16616     16617     16618     16619
     16618     16620     16619     16620     16621     16622     16621     16623
     16622     16623     16624     16625     16624     16626     16625     16626
     16627     16628     16627     16629     16628     16629     16630     16631
     16630     16632     16631     16632     16633     16634     16633     16635
     16634     16635     16636     16637     16636     16638     16637     16638
     16639     16640     16639     16641     16640     16641     16642     16643
     16642     16644     16643     16644     16645     16646     16645     16647
     16646     16647     16648     16649     16648     16650     16649     16650
     16651     16652     16651     16653     16652     16653     16654     16655
     16654     16656     16655     16656     16657     16658     16657     16659
     16658     16659     16660     16661     16660     16662     16661     16662
     16663     16664     16663     16665     16664     16665     16666     16667
     16666     16668     16667     16668     16669     16670     16669     16671
     16670     16671     16672     16673     16672     16674     16673     16674
     16675     16676     16675     16677     16676     16677     16678     16679
     16678     16680     16679     16680     16681     16682     16681     16683
     16682     16683     16684     16685     16684     16686     16685     16686
     16687     16688     16687     16689     16688     16689     16690     16691
     16690     16692     16691     16692     16693     16694     16693     16695
     16694     16695     16696     16697     16696     16698     16697     16698
     16699     16700     16699     16701     16700     16701     16702     16703
     16702     16704     16703     16704     16705     16706     16705     16707
     16706     16707     16708     16709     16708     16710     16709     16710
     16711     16712     16711     16713     16712     16713     16714     16715
     16714     16716     16715     16716     16717     16718     16717     16719
     16718     16719     16720     16721     16720     16722     16721     16722
     16723     16724     16723     16725     16724     16725     16726     16727
     16726     16728     16727     16728     16729     16730     16729     16731
     16730     16731     16732     16733     16732     16734     16733     16734
     16735     16736     16735     16737     16736     16737     16738     16739
     16738     16740     16739     16740     16741     16742     16741     16743
     16742     16743     16744     16745     16744     16746     16745     16746
     16747     16748     16747     16749     16748     16749     16750     16751
     16750     16752     16751     16752     16753     16754     16753     16755
     16754     16755     16756     16757     16756     16758     16757     16758
     16759     16760     16759     16761     16760     16761     16762     16763
     16762     16764     16763     16764     16765     16766     16765     16767
     16766     16767     16768     16769     16768     16770     16769     16770
     16771     16772     16771     16773     16772     16773     16774     16775
     16774     16776     16775     16776     16777     16778     16777     16779
     16778     16779     16780     16781     16780     16782     16781     16782
     16783     16784     16783     16785     16784     16785     16786     16787
     16786     16788     16787     16788     16789     16790     16789     16791
     16790     16791     16792     16793     16792     16794     16793     16794
     16795     16796     16795     16797     16796     16797     16798     16799
     16798     16800     16799     16800     16801     16802     16801     16803
     16802     16803     16804     16805     16804     16806     16805     16806
     16807     16808     16807     16809     16808     16809     16810     16811
     16810     16812     16811     16812     16813     16814     16813     16815
     16814     16815     16816     16817     16816     16818     16817     16818
     16819     16820     16819     16821     16820     16821     16822     16823
     16822     16824     16823     16824     16825     16826     16825     16827
     16826     16827     16828     16829     16828     16830     16829     16830
     16831     16832     16831     16833     16832     16833     16834     16835
     16834     16836     16835     16836     16837     16838     16837     16839
     16838     16839     16840     16841     16840     16842     16841     16842
     16843     16844     16843     16845     16844     16845     16846     16847
     16846     16848     16847     16848     16849     16850     16849     16851
     16850     16851     16852     16853     16852     16854     16853     16854
     16855     16856     16855     16857     16856     16857     16858     16859
     16858     16860     16859     16860     16861     16862     16861     16863
     16862     16863     16864     16865     16864     16866     16865     16866
     16867     16868     16867     16869     16868     16869     16870     16871
     16870     16872     16871     16872     16873     16874     16873     16875
     16874     16875     16876     16877     16876     16878     16877     16878
     16879     16880     16879     16881     16880     16881     16882     16883
     16882     16884     16883     16884     16885     16886     16885     16887
     16886     16887     16888     16889     16888     16890     16889     16890
     16891     16892     16891     16893     16892     16893     16894     16895
     16894     16896     16895     16896     16897     16898     16897     16899
     16898     16899     16900     16901     16900     16902     16901     16902
     16903     16904     16903     16905     16904     16905     16906     16907
     16906     16908     16907     16908     16909     16910     16909     16911
     16910     16911     16912     16913     16912     16914     16913     16914
     16915     16916     16915     16917     16916     16917     16918     16919
     16918     16920     16919     16920     16921     16922     16921     16923
     16922     16923     16924     16925     16924     16926     16925     16926
     16927     16928     16927     16929     16928     16929     16930     16931
     16930     16932     16931     16932     16933     16934     16933     16935
     16934     16935     16936     16937     16936     16938     16937     16938
     16939     16940     16939     16941     16940     16941     16942     16943
     16942     16944     16943     16944     16945     16946     16945     16947
     16946     16947     16948     16949     16948     16950     16949     16950
     16951     16952     16951     16953     16952     16953     16954     16955
     16954     16956     16955     16956     16957     16958     16957     16959
     16958     16959     16960     16961     16960     16962     16961     16962
     16963     16964     16963     16965     16964     16965     16966     16967
     16966     16968     16967     16968     16969     16970     16969     16971
     16970     16971     16972     16973     16972     16974     16973     16974
     16975     16976     16975     16977     16976     16977     16978     16979
     16978     16980     16979     16980     16981     16982     16981     16983
     16982     16983     16984     16985     16984     16986     16985     16986
     16987     16988     16987     16989     16988     16989     16990     16991
     16990     16992     16991     16992     16993     16994     16993     16995
     16994     16995     16996     16997     16996     16998     16997     16998
     16999     17000     16999     17001     17000     17001     17002     17003
     17002     17004     17003     17004     17005     17006     17005     17007
     17006     17007     17008     17009     17008     17010     17009     17010
     17011     17012     17011     17013     17012     17013     17014     17015
     17014     17016     17015     17016     17017     17018     17017     17019
     17018     17019     17020     17021     17020     17022     17021     17022
     17023     17024     17023     17025     17024     17025     17026     17027
     17026     17028     17027     17028     17029     17030     17029     17031
     17030     17031     17032     17033     17032     17034     17033     17034
     17035     17036     17035     17037     17036     17037     17038     17039
     17038     17040     17039     17040     17041     17042     17041     17043
     17042     17043     17044     17045     17044     17046     17045     17046
     17047     17048     17047     17049     17048     17049     17050     17051
     17050     17052     17051     17052     17053     17054     17053     17055
     17054     17055     17056     17057     17056     17058     17057     17058
     17059     17060     17059     17061     17060     17061     17062     17063
     17062     17064     17063     17064     17065     17066     17065     17067
     17066     17067     17068     17069     17068     17070     17069     17070
     17071     17072     17071     17073     17072     17073     17074     17075
     17074     17076     17075     17076     17077     17078     17077     17079
     17078     17079     17080     17081     17080     17082     17081     17082
     17083     17084     17083     17085     17084     17085     17086     17087
     17086     17088     17087     17088     17089     17090     17089     17091
     17090     17091     17092     17093     17092     17094     17093     17094
     17095     17096     17095     17097     17096     17097     17098     17099
     17098     17100     17099     17100     17101     17102     17101     17103
     17102     17103     17104     17105     17104     17106     17105     17106
     17107     17108     17107     17109     17108     17109     17110     17111
     17110     17112     17111     17112     17113     17114     17113     17115
     17114     17115     17116     17117     17116     17118     17117     17118
     17119     17120     17119     17121     17120     17121     17122     17123
     17122     17124     17123     17124     17125     17126     17125     17127
     17126     17127     17128     17129     17128     17130     17129     17130
     17131     17132     17131     17133     17132     17133     17134     17135
     17134     17136     17135     17136     17137     17138     17137     17139
     17138     17139     17140     17141     17140     17142     17141     17142
     17143     17144     17143     17145     17144     17145     17146     17147
     17146     17148     17147     17148     17149     17150     17149     17151
     17150     17151     17152     17153     17152     17154     17153     17154
     17155     17156     17155     17157     17156     17157     17158     17159
     17158     17160     17159     17160     17161     17162     17161     17163
     17162     17163     17164     17165     17164     17166     17165     17166
     17167     17168     17167     17169     17168     17169     17170     17171
     17170     17172     17171     17172     17173     17174     17173     17175
     17174     17175     17176     17177     17176     17178     17177     17178
     17179     17180     17179     17181     17180     17181     17182     17183
     17182     17184     17183     17184     17185     17186     17185     17187
     17186     17187     17188     17189     17188     17190     17189     17190
     17191     17192     17191     17193     17192     17193     17194     17195
     17194     17196     17195     17196     17197     17198     17197     17199
     17198     17199     17200     17201     17200     17202     17201     17202
     17203     17204     17203     17205     17204     17205     17206     17207
     17206     17208     17207     17208     17209     17210     17209     17211
     17210     17211     17212     17213     17212     17214     17213     17214
     17215     17216     17215     17217     17216     17217     17218     17219
     17218     17220     17219     17220     17221     17222     17221     17223
     17222     17223     17224     17225     17224     17226     17225     17226
     17227     17228     17227     17229     17228     17229     17230     17231
     17230     17232     17231     17232     17233     17234     17233     17235
     17234     17235     17236     17237     17236     17238     17237     17238
     17239     17240     17239     17241     17240     17241     17242     17243
     17242     17244     17243     17244     17245     17246     17245     17247
     17246     17247     17248     17249     17248     17250     17249     17250
     17251     17252     17251     17253     17252     17253     17254     17255
     17254     17256     17255     17256     17257     17258     17257     17259
     17258     17259     17260     17261     17260     17262     17261     17262
     17263     17264     17263     17265     17264     17265     17266     17267
     17266     17268     17267     17268     17269     17270     17269     17271
     17270     17271     17272     17273     17272     17274     17273     17274
     17275     17276     17275     17277     17276     17277     17278     17279
     17278     17280     17279     17280     17281     17282     17281     17283
     17282     17283     17284     17285     17284     17286     17285     17286
     17287     17288     17287     17289     17288     17289     17290     17291
     17290     17292     17291     17292     17293     17294     17293     17295
     17294     17295     17296     17297     17296     17298     17297     17298
     17299     17300     17299     17301     17300     17301     17302     17303
     17302     17304     17303     17304     17305     17306     17305     17307
     17306     17307     17308     17309     17308     17310     17309     17310
     17311     17312     17311     17313     17312     17313     17314     17315
     17314     17316     17315     17316     17317     17318     17317     17319
     17318     17319     17320     17321     17320     17322     17321     17322
     17323     17324     17323     17325     17324     17325     17326     17327
     17326     17328     17327     17328     17329     17330     17329     17331
     17330     17331     17332     17333     17332     17334     17333     17334
     17335     17336     17335     17337     17336     17337     17338     17339
     17338     17340     17339     17340     17341     17342     17341     17343
     17342     17343     17344     17345     17344     17346     17345     17346
     17347     17348     17347     17349     17348     17349     17350     17351
     17350     17352     17351     17352     17353     17354     17353     17355
     17354     17355     17356     17357     17356     17358     17357     17358
     17359     17360     17359     17361     17360     17361     17362     17363
     17362     17364     17363     17364     17365     17366     17365     17367
     17366     17367     17368     17369     17368     17370     17369     17370
     17371     17372     17371     17373     17372     17373     17374     17375
     17374     17376     17375     17376     17377     17378     17377     17379
     17378     17379     17380     17381     17380     17382     17381     17382
     17383     17384     17383     17385     17384     17385     17386     17387
     17386     17388     17387     17388     17389     17390     17389     17391
     17390     17391     17392     17393     17392     17394     17393     17394
     17395     17396     17395     17397     17396     17397     17398     17399
     17398     17400     17399     17400     17401     17402     17401     17403
     17402     17403     17404     17405     17404     17406     17405     17406
     17407     17408     17407     17409     17408     17409     17410     17411
     17410     17412     17411     17412     17413     17414     17413     17415
     17414     17415     17416     17417     17416     17418     17417     17418
     17419     17420     17419     17421     17420     17421     17422     17423
     17422     17424     17423     17424     17425     17426     17425     17427
     17426     17427     17428     17429     17428     17430     17429     17430
     17431     17432     17431     17433     17432     17433     17434     17435
     17434     17436     17435     17436     17437     17438     17437     17439
     17438     17439     17440     17441     17440     17442     17441     17442
     17443     17444     17443     17445     17444     17445     17446     17447
     17446     17448     17447     17448     17449     17450     17449     17451
     17450     17451     17452     17453     17452     17454     17453     17454
     17455     17456     17455     17457     17456     17457     17458     17459
     17458     17460     17459     17460     17461     17462     17461     17463
     17462     17463     17464     17465     17464     17466     17465     17466
     17467     17468     17467     17469     17468     17469     17470     17471
     17470     17472     17471     17472     17473     17474     17473     17475
     17474     17475     17476     17477     17476     17478     17477     17478
     17479     17480     17479     17481     17480     17481     17482     17483
     17482     17484     17483     17484     17485     17486     17485     17487
     17486     17487     17488     17489     17488     17490     17489     17490
     17491     17492     17491     17493     17492     17493     17494     17495
     17494     17496     17495     17496     17497     17498     17497     17499
     17498     17499     17500     17501     17500     17502     17501     17502
     17503     17504     17503     17505     17504     17505     17506     17507
     17506     17508     17507     17508     17509     17510     17509     17511
     17510     17511     17512     17513     17512     17514     17513     17514
     17515     17516     17515     17517     17516     17517     17518     17519
     17518     17520     17519     17520     17521     17522     17521     17523
     17522     17523     17524     17525     17524     17526     17525     17526
     17527     17528     17527     17529     17528     17529     17530     17531
     17530     17532     17531     17532     17533     17534     17533     17535
     17534     17535     17536     17537     17536     17538     17537     17538
     17539     17540     17539     17541     17540     17541     17542     17543
     17542     17544     17543     17544     17545     17546     17545     17547
     17546     17547     17548     17549     17548     17550     17549     17550
     17551     17552     17551     17553     17552     17553     17554     17555
     17554     17556     17555     17556     17557     17558     17557     17559
     17558     17559     17560     17561     17560     17562     17561     17562
     17563     17564     17563     17565     17564     17565     17566     17567
     17566     17568     17567     17568     17569     17570     17569     17571
     17570     17571     17572     17573     17572     17574     17573     17574
     17575     17576     17575     17577     17576     17577     17578     17579
     17578     17580     17579     17580     17581     17582     17581     17583
     17582     17583     17584     17585     17584     17586     17585     17586
     17587     17588     17587     17589     17588     17589     17590     17591
     17590     17592     17591     17592     17593     17594     17593     17595
     17594     17595     17596     17597     17596     17598     17597     17598
     17599     17600     17599     17601     17600     17601     17602     17603
     17602     17604     17603     17604     17605     17606     17605     17607
     17606     17607     17608     17609     17608     17610     17609     17610
     17611     17612     17611     17613     17612     17613     17614     17615
     17614     17616     17615     17616     17617     17618     17617     17619
     17618     17619     17620     17621     17620     17622     17621     17622
     17623     17624     17623     17625     17624     17625     17626     17627
     17626     17628     17627     17628     17629     17630     17629     17631
     17630     17631     17632     17633     17632     17634     17633     17634
     17635     17636     17635     17637     17636     17637     17638     17639
     17638     17640     17639     17640     17641     17642     17641     17643
     17642     17643     17644     17645     17644     17646     17645     17646
     17647     17648     17647     17649     17648     17649     17650     17651
     17650     17652     17651     17652     17653     17654     17653     17655
     17654     17655     17656     17657     17656     17658     17657     17658
     17659     17660     17659     17661     17660     17661     17662     17663
     17662     17664     17663     17664     17665     17666     17665     17667
     17666     17667     17668     17669     17668     17670     17669     17670
     17671     17672     17671     17673     17672     17673     17674     17675
     17674     17676     17675     17676     17677     17678     17677     17679
     17678     17679     17680     17681     17680     17682     17681     17682
     17683     17684     17683     17685     17684     17685     17686     17687
     17686     17688     17687     17688     17689     17690     17689     17691
     17690     17691     17692     17693     17692     17694     17693     17694
     17695     17696     17695     17697     17696     17697     17698     17699
     17698     17700     17699     17700     17701     17702     17701     17703
     17702     17703     17704     17705     17704     17706     17705     17706
     17707     17708     17707     17709     17708     17709     17710     17711
     17710     17712     17711     17712     17713     17714     17713     17715
     17714     17715     17716     17717     17716     17718     17717     17718
     17719     17720     17719     17721     17720     17721     17722     17723
     17722     17724     17723     17724     17725     17726     17725     17727
     17726     17727     17728     17729     17728     17730     17729     17730
     17731     17732     17731     17733     17732     17733     17734     17735
     17734     17736     17735     17736     17737     17738     17737     17739
     17738     17739     17740     17741     17740     17742     17741     17742
     17743     17744     17743     17745     17744     17745     17746     17747
     17746     17748     17747     17748     17749     17750     17749     17751
     17750     17751     17752     17753     17752     17754     17753     17754
     17755     17756     17755     17757     17756     17757     17758     17759
     17758     17760     17759     17760     17761     17762     17761     17763
     17762     17763     17764     17765     17764     17766     17765     17766
     17767     17768     17767     17769     17768     17769     17770     17771
     17770     17772     17771     17772     17773     17774     17773     17775
     17774     17775     17776     17777     17776     17778     17777     17778
     17779     17780     17779     17781     17780     17781     17782     17783
     17782     17784     17783     17784     17785     17786     17785     17787
     17786     17787     17788     17789     17788     17790     17789     17790
     17791     17792     17791     17793     17792     17793     17794     17795
     17794     17796     17795     17796     17797     17798     17797     17799
     17798     17799     17800     17801     17800     17802     17801     17802
     17803     17804     17803     17805     17804     17805     17806     17807
     17806     17808     17807     17808     17809     17810     17809     17811
     17810     17811     17812     17813     17812     17814     17813     17814
     17815     17816     17815     17817     17816     17817     17818     17819
     17818     17820     17819     17820     17821     17822     17821     17823
     17822     17823     17824     17825     17824     17826     17825     17826
     17827     17828     17827     17829     17828     17829     17830     17831
     17830     17832     17831     17832     17833     17834     17833     17835
     17834     17835     17836     17837     17836     17838     17837     17838
     17839     17840     17839     17841     17840     17841     17842     17843
     17842     17844     17843     17844     17845     17846     17845     17847
     17846     17847     17848     17849     17848     17850     17849     17850
     17851     17852     17851     17853     17852     17853     17854     17855
     17854     17856     17855     17856     17857     17858     17857     17859
     17858     17859     17860     17861     17860     17862     17861     17862
     17863     17864     17863     17865     17864     17865     17866     17867
     17866     17868     17867     17868     17869     17870     17869     17871
     17870     17871     17872     17873     17872     17874     17873     17874
     17875     17876     17875     17877     17876     17877     17878     17879
     17878     17880     17879     17880     17881     17882     17881     17883
     17882     17883     17884     17885     17884     17886     17885     17886
     17887     17888     17887     17889     17888     17889     17890     17891
     17890     17892     17891     17892     17893     17894     17893     17895
     17894     17895     17896     17897     17896     17898     17897     17898
     17899     17900     17899     17901     17900     17901     17902     17903
     17902     17904     17903     17904     17905     17906     17905     17907
     17906     17907     17908     17909     17908     17910     17909     17910
     17911     17912     17911     17913     17912     17913     17914     17915
     17914     17916     17915     17916     17917     17918     17917     17919
     17918     17919     17920     17921     17920     17922     17921     17922
     17923     17924     17923     17925     17924     17925     17926     17927
     17926     17928     17927     17928     17929     17930     17929     17931
     17930     17931     17932     17933     17932     17934     17933     17934
     17935     17936     17935     17937     17936     17937     17938     17939
     17938     17940     17939     17940     17941     17942     17941     17943
     17942     17943     17944     17945     17944     17946     17945     17946
     17947     17948     17947     17949     17948     17949     17950     17951
     17950     17952     17951     17952     17953     17954     17953     17955
     17954     17955     17956     17957     17956     17958     17957     17958
     17959     17960     17959     17961     17960     17961     17962     17963
     17962     17964     17963     17964     17965     17966     17965     17967
     17966     17967     17968     17969     17968     17970     17969     17970
     17971     17972     17971     17973     17972     17973     17974     17975
     17974     17976     17975     17976     17977     17978     17977     17979
     17978     17979     17980     17981     17980     17982     17981     17982
     17983     17984     17983     17985     17984     17985     17986     17987
     17986     17988     17987     17988     17989     17990     17989     17991
     17990     17991     17992     17993     17992     17994     17993     17994
     17995     17996     17995     17997     17996     17997     17998     17999
     17998     18000     17999     18000     18001     18002     18001     18003
     18002     18003     18004     18005     18004     18006     18005     18006
     18007     18008     18007     18009     18008     18009     18010     18011
     18010     18012     18011     18012     18013     18014     18013     18015
     18014     18015     18016     18017     18016     18018     18017     18018
     18019     18020     18019     18021     18020     18021     18022     18023
     18022     18024     18023     18024     18025     18026     18025     18027
     18026     18027     18028     18029     18028     18030     18029     18030
     18031     18032     18031     18033     18032     18033     18034     18035
     18034     18036     18035     18036     18037     18038     18037     18039
     18038     18039     18040     18041     18040     18042     18041     18042
     18043     18044     18043     18045     18044     18045     18046     18047
     18046     18048     18047     18048     18049     18050     18049     18051
     18050     18051     18052     18053     18052     18054     18053     18054
     18055     18056     18055     18057     18056     18057     18058     18059
     18058     18060     18059     18060     18061     18062     18061     18063
     18062     18063     18064     18065     18064     18066     18065     18066
     18067     18068     18067     18069     18068     18069     18070     18071
     18070     18072     18071     18072     18073     18074     18073     18075
     18074     18075     18076     18077     18076     18078     18077     18078
     18079     18080     18079     18081     18080     18081     18082     18083
     18082     18084     18083     18084     18085     18086     18085     18087
     18086     18087     18088     18089     18088     18090     18089     18090
     18091     18092     18091     18093     18092     18093     18094     18095
     18094     18096     18095     18096     18097     18098     18097     18099
     18098     18099     18100     18101     18100     18102     18101     18102
     18103     18104     18103     18105     18104     18105     18106     18107
     18106     18108     18107     18108     18109     18110     18109     18111
     18110     18111     18112     18113     18112     18114     18113     18114
     18115     18116     18115     18117     18116     18117     18118     18119
     18118     18120     18119     18120     18121     18122     18121     18123
     18122     18123     18124     18125     18124     18126     18125     18126
     18127     18128     18127     18129     18128     18129     18130     18131
     18130     18132     18131     18132     18133     18134     18133     18135
     18134     18135     18136     18137     18136     18138     18137     18138
     18139     18140     18139     18141     18140     18141     18142     18143
     18142     18144     18143     18144     18145     18146     18145     18147
     18146     18147     18148     18149     18148     18150     18149     18150
     18151     18152     18151     18153     18152     18153     18154     18155
     18154     18156     18155     18156     18157     18158     18157     18159
     18158     18159     18160     18161     18160     18162     18161     18162
     18163     18164     18163     18165     18164     18165     18166     18167
     18166     18168     18167     18168     18169     18170     18169     18171
     18170     18171     18172     18173     18172     18174     18173     18174
     18175     18176     18175     18177     18176     18177     18178     18179
     18178     18180     18179     18180     18181     18182     18181     18183
     18182     18183     18184     18185     18184     18186     18185     18186
     18187     18188     18187     18189     18188     18189     18190     18191
     18190     18192     18191     18192     18193     18194     18193     18195
     18194     18195     18196     18197     18196     18198     18197     18198
     18199     18200     18199     18201     18200     18201     18202     18203
     18202     18204     18203     18204     18205     18206     18205     18207
     18206     18207     18208     18209     18208     18210     18209     18210
     18211     18212     18211     18213     18212     18213     18214     18215
     18214     18216     18215     18216     18217     18218     18217     18219
     18218     18219     18220     18221     18220     18222     18221     18222
     18223     18224     18223     18225     18224     18225     18226     18227
     18226     18228     18227     18228     18229     18230     18229     18231
     18230     18231     18232     18233     18232     18234     18233     18234
     18235     18236     18235     18237     18236     18237     18238     18239
     18238     18240     18239     18240     18241     18242     18241     18243
     18242     18243     18244     18245     18244     18246     18245     18246
     18247     18248     18247     18249     18248     18249     18250     18251
     18250     18252     18251     18252     18253     18254     18253     18255
     18254     18255     18256     18257     18256     18258     18257     18258
     18259     18260     18259     18261     18260     18261     18262     18263
     18262     18264     18263     18264     18265     18266     18265     18267
     18266     18267     18268     18269     18268     18270     18269     18270
     18271     18272     18271     18273     18272     18273     18274     18275
     18274     18276     18275     18276     18277     18278     18277     18279
     18278     18279     18280     18281     18280     18282     18281     18282
     18283     18284     18283     18285     18284     18285     18286     18287
     18286     18288     18287     18288     18289     18290     18289     18291
     18290     18291     18292     18293     18292     18294     18293     18294
     18295     18296     18295     18297     18296     18297     18298     18299
     18298     18300     18299     18300     18301     18302     18301     18303
     18302     18303     18304     18305     18304     18306     18305     18306
     18307     18308     18307     18309     18308     18309     18310     18311
     18310     18312     18311     18312     18313     18314     18313     18315
     18314     18315     18316     18317     18316     18318     18317     18318
     18319     18320     18319     18321     18320     18321     18322     18323
     18322     18324     18323     18324     18325     18326     18325     18327
     18326     18327     18328     18329     18328     18330     18329     18330
     18331     18332     18331     18333     18332     18333     18334     18335
     18334     18336     18335     18336     18337     18338     18337     18339
     18338     18339     18340     18341     18340     18342     18341     18342
     18343     18344     18343     18345     18344     18345     18346     18347
     18346     18348     18347     18348     18349     18350     18349     18351
     18350     18351     18352     18353     18352     18354     18353     18354
     18355     18356     18355     18357     18356     18357     18358     18359
     18358     18360     18359     18360     18361     18362     18361     18363
     18362     18363     18364     18365     18364     18366     18365     18366
     18367     18368     18367     18369     18368     18369     18370     18371
     18370     18372     18371     18372     18373     18374     18373     18375
     18374     18375     18376     18377     18376     18378     18377     18378
     18379     18380     18379     18381     18380     18381     18382     18383
     18382     18384     18383     18384     18385     18386     18385     18387
     18386     18387     18388     18389     18388     18390     18389     18390
     18391     18392     18391     18393     18392     18393     18394     18395
     18394     18396     18395     18396     18397     18398     18397     18399
     18398     18399     18400     18401     18400     18402     18401     18402
     18403     18404     18403     18405     18404     18405     18406     18407
     18406     18408     18407     18408     18409     18410     18409     18411
     18410     18411     18412     18413     18412     18414     18413     18414
     18415     18416     18415     18417     18416     18417     18418     18419
     18418     18420     18419     18420     18421     18422     18421     18423
     18422     18423     18424     18425     18424     18426     18425     18426
     18427     18428     18427     18429     18428     18429     18430     18431
     18430     18432     18431     18432     18433     18434     18433     18435
     18434     18435     18436     18437     18436     18438     18437     18438
     18439     18440     18439     18441     18440     18441     18442     18443
     18442     18444     18443     18444     18445     18446     18445     18447
     18446     18447     18448     18449     18448     18450     18449     18450
     18451     18452     18451     18453     18452     18453     18454     18455
     18454     18456     18455     18456     18457     18458     18457     18459
     18458     18459     18460     18461     18460     18462     18461     18462
     18463     18464     18463     18465     18464     18465     18466     18467
     18466     18468     18467     18468     18469     18470     18469     18471
     18470     18471     18472     18473     18472     18474     18473     18474
     18475     18476     18475     18477     18476     18477     18478     18479
     18478     18480     18479     18480     18481     18482     18481     18483
     18482     18483     18484     18485     18484     18486     18485     18486
     18487     18488     18487     18489     18488     18489     18490     18491
     18490     18492     18491     18492     18493     18494     18493     18495
     18494     18495     18496     18497     18496     18498     18497     18498
     18499     18500     18499     18501     18500     18501     18502     18503
     18502     18504     18503     18504     18505     18506     18505     18507
     18506     18507     18508     18509     18508     18510     18509     18510
     18511     18512     18511     18513     18512     18513     18514     18515
     18514     18516     18515     18516     18517     18518     18517     18519
     18518     18519     18520     18521     18520     18522     18521     18522
     18523     18524     18523     18525     18524     18525     18526     18527
     18526     18528     18527     18528     18529     18530     18529     18531
     18530     18531     18532     18533     18532     18534     18533     18534
     18535     18536     18535     18537     18536     18537     18538     18539
     18538     18540     18539     18540     18541     18542     18541     18543
     18542     18543     18544     18545     18544     18546     18545     18546
     18547     18548     18547     18549     18548     18549     18550     18551
     18550     18552     18551     18552     18553     18554     18553     18555
     18554     18555     18556     18557     18556     18558     18557     18558
     18559     18560     18559     18561     18560     18561     18562     18563
     18562     18564     18563     18564     18565     18566     18565     18567
     18566     18567     18568     18569     18568     18570     18569     18570
     18571     18572     18571     18573     18572     18573     18574     18575
     18574     18576     18575     18576     18577     18578     18577     18579
     18578     18579     18580     18581     18580     18582     18581     18582
     18583     18584     18583     18585     18584     18585     18586     18587
     18586     18588     18587     18588     18589     18590     18589     18591
     18590     18591     18592     18593     18592     18594     18593     18594
     18595     18596     18595     18597     18596     18597     18598     18599
     18598     18600     18599     18600     18601     18602     18601     18603
     18602     18603     18604     18605     18604     18606     18605     18606
     18607     18608     18607     18609     18608     18609     18610     18611
     18610     18612     18611     18612     18613     18614     18613     18615
     18614     18615     18616     18617     18616     18618     18617     18618
     18619     18620     18619     18621     18620     18621     18622     18623
     18622     18624     18623     18624     18625     18626     18625     18627
     18626     18627     18628     18629     18628     18630     18629     18630
     18631     18632     18631     18633     18632     18633     18634     18635
     18634     18636     18635     18636     18637     18638     18637     18639
     18638     18639     18640     18641     18640     18642     18641     18642
     18643     18644     18643     18645     18644     18645     18646     18647
     18646     18648     18647     18648     18649     18650     18649     18651
     18650     18651     18652     18653     18652     18654     18653     18654
     18655     18656     18655     18657     18656     18657     18658     18659
     18658     18660     18659     18660     18661     18662     18661     18663
     18662     18663     18664     18665     18664     18666     18665     18666
     18667     18668     18667     18669     18668     18669     18670     18671
     18670     18672     18671     18672     18673     18674     18673     18675
     18674     18675     18676     18677     18676     18678     18677     18678
     18679     18680     18679     18681     18680     18681     18682     18683
     18682     18684     18683     18684     18685     18686     18685     18687
     18686     18687     18688     18689     18688     18690     18689     18690
     18691     18692     18691     18693     18692     18693     18694     18695
     18694     18696     18695     18696     18697     18698     18697     18699
     18698     18699     18700     18701     18700     18702     18701     18702
     18703     18704     18703     18705     18704     18705     18706     18707
     18706     18708     18707     18708     18709     18710     18709     18711
     18710     18711     18712     18713     18712     18714     18713     18714
     18715     18716     18715     18717     18716     18717     18718     18719
     18718     18720     18719     18720     18721     18722     18721     18723
     18722     18723     18724     18725     18724     18726     18725     18726
     18727     18728     18727     18729     18728     18729     18730     18731
     18730     18732     18731     18732     18733     18734     18733     18735
     18734     18735     18736     18737     18736     18738     18737     18738
     18739     18740     18739     18741     18740     18741     18742     18743
     18742     18744     18743     18744     18745     18746     18745     18747
     18746     18747     18748     18749     18748     18750     18749     18750
     18751     18752     18751     18753     18752     18753     18754     18755
     18754     18756     18755     18756     18757     18758     18757     18759
     18758     18759     18760     18761     18760     18762     18761     18762
     18763     18764     18763     18765     18764     18765     18766     18767
     18766     18768     18767     18768     18769     18770     18769     18771
     18770     18771     18772     18773     18772     18774     18773     18774
     18775     18776     18775     18777     18776     18777     18778     18779
     18778     18780     18779     18780     18781     18782     18781     18783
     18782     18783     18784     18785     18784     18786     18785     18786
     18787     18788     18787     18789     18788     18789     18790     18791
     18790     18792     18791     18792     18793     18794     18793     18795
     18794     18795     18796     18797     18796     18798     18797     18798
     18799     18800     18799     18801     18800     18801     18802     18803
     18802     18804     18803     18804     18805     18806     18805     18807
     18806     18807     18808     18809     18808     18810     18809     18810
     18811     18812     18811     18813     18812     18813     18814     18815
     18814     18816     18815     18816     18817     18818     18817     18819
     18818     18819     18820     18821     18820     18822     18821     18822
     18823     18824     18823     18825     18824     18825     18826     18827
     18826     18828     18827     18828     18829     18830     18829     18831
     18830     18831     18832     18833     18832     18834     18833     18834
     18835     18836     18835     18837     18836     18837     18838     18839
     18838     18840     18839     18840     18841     18842     18841     18843
     18842     18843     18844     18845     18844     18846     18845     18846
     18847     18848     18847     18849     18848     18849     18850     18851
     18850     18852     18851     18852     18853     18854     18853     18855
     18854     18855     18856     18857     18856     18858     18857     18858
     18859     18860     18859     18861     18860     18861     18862     18863
     18862     18864     18863     18864     18865     18866     18865     18867
     18866     18867     18868     18869     18868     18870     18869     18870
     18871     18872     18871     18873     18872     18873     18874     18875
     18874     18876     18875     18876     18877     18878     18877     18879
     18878     18879     18880     18881     18880     18882     18881     18882
     18883     18884     18883     18885     18884     18885     18886     18887
     18886     18888     18887     18888     18889     18890     18889     18891
     18890     18891     18892     18893     18892     18894     18893     18894
     18895     18896     18895     18897     18896     18897     18898     18899
     18898     18900     18899     18900     18901     18902     18901     18903
     18902     18903     18904     18905     18904     18906     18905     18906
     18907     18908     18907     18909     18908     18909     18910     18911
     18910     18912     18911     18912     18913     18914     18913     18915
     18914     18915     18916     18917     18916     18918     18917     18918
     18919     18920     18919     18921     18920     18921     18922     18923
     18922     18924     18923     18924     18925     18926     18925     18927
     18926     18927     18928     18929     18928     18930     18929     18930
     18931     18932     18931     18933     18932     18933     18934     18935
     18934     18936     18935     18936     18937     18938     18937     18939
     18938     18939     18940     18941     18940     18942     18941     18942
     18943     18944     18943     18945     18944     18945     18946     18947
     18946     18948     18947     18948     18949     18950     18949     18951
     18950     18951     18952     18953     18952     18954     18953     18954
     18955     18956     18955     18957     18956     18957     18958     18959
     18958     18960     18959     18960     18961     18962     18961     18963
     18962     18963     18964     18965     18964     18966     18965     18966
     18967     18968     18967     18969     18968     18969     18970     18971
     18970     18972     18971     18972     18973     18974     18973     18975
     18974     18975     18976     18977     18976     18978     18977     18978
     18979     18980     18979     18981     18980     18981     18982     18983
     18982     18984     18983     18984     18985     18986     18985     18987
     18986     18987     18988     18989     18988     18990     18989     18990
     18991     18992     18991     18993     18992     18993     18994     18995
     18994     18996     18995     18996     18997     18998     18997     18999
     18998     18999     19000     19001     19000     19002     19001     19002
     19003     19004     19003     19005     19004     19005     19006     19007
     19006     19008     19007     19008     19009     19010     19009     19011
     19010     19011     19012     19013     19012     19014     19013     19014
     19015     19016     19015     19017     19016     19017     19018     19019
     19018     19020     19019     19020     19021     19022     19021     19023
     19022     19023     19024     19025     19024     19026     19025     19026
     19027     19028     19027     19029     19028     19029     19030     19031
     19030     19032     19031     19032     19033     19034     19033     19035
     19034     19035     19036     19037     19036     19038     19037     19038
     19039     19040     19039     19041     19040     19041     19042     19043
     19042     19044     19043     19044     19045     19046     19045     19047
     19046     19047     19048     19049     19048     19050     19049     19050
     19051     19052     19051     19053     19052     19053     19054     19055
     19054     19056     19055     19056     19057     19058     19057     19059
     19058     19059     19060     19061     19060     19062     19061     19062
     19063     19064     19063     19065     19064     19065     19066     19067
     19066     19068     19067     19068     19069     19070     19069     19071
     19070     19071     19072     19073     19072     19074     19073     19074
     19075     19076     19075     19077     19076     19077     19078     19079
     19078     19080     19079     19080     19081     19082     19081     19083
     19082     19083     19084     19085     19084     19086     19085     19086
     19087     19088     19087     19089     19088     19089     19090     19091
     19090     19092     19091     19092     19093     19094     19093     19095
     19094     19095     19096     19097     19096     19098     19097     19098
     19099     19100     19099     19101     19100     19101     19102     19103
     19102     19104     19103     19104     19105     19106     19105     19107
     19106     19107     19108     19109     19108     19110     19109     19110
     19111     19112     19111     19113     19112     19113     19114     19115
     19114     19116     19115     19116     19117     19118     19117     19119
     19118     19119     19120     19121     19120     19122     19121     19122
     19123     19124     19123     19125     19124     19125     19126     19127
     19126     19128     19127     19128     19129     19130     19129     19131
     19130     19131     19132     19133     19132     19134     19133     19134
     19135     19136     19135     19137     19136     19137     19138     19139
     19138     19140     19139     19140     19141     19142     19141     19143
     19142     19143     19144     19145     19144     19146     19145     19146
     19147     19148     19147     19149     19148     19149     19150     19151
     19150     19152     19151     19152     19153     19154     19153     19155
     19154     19155     19156     19157     19156     19158     19157     19158
     19159     19160     19159     19161     19160     19161     19162     19163
     19162     19164     19163     19164     19165     19166     19165     19167
     19166     19167     19168     19169     19168     19170     19169     19170
     19171     19172     19171     19173     19172     19173     19174     19175
     19174     19176     19175     19176     19177     19178     19177     19179
     19178     19179     19180     19181     19180     19182     19181     19182
     19183     19184     19183     19185     19184     19185     19186     19187
     19186     19188     19187     19188     19189     19190     19189     19191
     19190     19191     19192     19193     19192     19194     19193     19194
     19195     19196     19195     19197     19196     19197     19198     19199
     19198     19200     19199     19200     19201     19202     19201     19203
     19202     19203     19204     19205     19204     19206     19205     19206
     19207     19208     19207     19209     19208     19209     19210     19211
     19210     19212     19211     19212     19213     19214     19213     19215
     19214     19215     19216     19217     19216     19218     19217     19218
     19219     19220     19219     19221     19220     19221     19222     19223
     19222     19224     19223     19224     19225     19226     19225     19227
     19226     19227     19228     19229     19228     19230     19229     19230
     19231     19232     19231     19233     19232     19233     19234     19235
     19234     19236     19235     19236     19237     19238     19237     19239
     19238     19239     19240     19241     19240     19242     19241     19242
     19243     19244     19243     19245     19244     19245     19246     19247
     19246     19248     19247     19248     19249     19250     19249     19251
     19250     19251     19252     19253     19252     19254     19253     19254
     19255     19256     19255     19257     19256     19257     19258     19259
     19258     19260     19259     19260     19261     19262     19261     19263
     19262     19263     19264     19265     19264     19266     19265     19266
     19267     19268     19267     19269     19268     19269     19270     19271
     19270     19272     19271     19272     19273     19274     19273     19275
     19274     19275     19276     19277     19276     19278     19277     19278
     19279     19280     19279     19281     19280     19281     19282     19283
     19282     19284     19283     19284     19285     19286     19285     19287
     19286     19287     19288     19289     19288     19290     19289     19290
     19291     19292     19291     19293     19292     19293     19294     19295
     19294     19296     19295     19296     19297     19298     19297     19299
     19298     19299     19300     19301     19300     19302     19301     19302
     19303     19304     19303     19305     19304     19305     19306     19307
     19306     19308     19307     19308     19309     19310     19309     19311
     19310     19311     19312     19313     19312     19314     19313     19314
     19315     19316     19315     19317     19316     19317     19318     19319
     19318     19320     19319     19320     19321     19322     19321     19323
     19322     19323     19324     19325     19324     19326     19325     19326
     19327     19328     19327     19329     19328     19329     19330     19331
     19330     19332     19331     19332     19333     19334     19333     19335
     19334     19335     19336     19337     19336     19338     19337     19338
     19339     19340     19339     19341     19340     19341     19342     19343
     19342     19344     19343     19344     19345     19346     19345     19347
     19346     19347     19348     19349     19348     19350     19349     19350
     19351     19352     19351     19353     19352     19353     19354     19355
     19354     19356     19355     19356     19357     19358     19357     19359
     19358     19359     19360     19361     19360     19362     19361     19362
     19363     19364     19363     19365     19364     19365     19366     19367
     19366     19368     19367     19368     19369     19370     19369     19371
     19370     19371     19372     19373     19372     19374     19373     19374
     19375     19376     19375     19377     19376     19377     19378     19379
     19378     19380     19379     19380     19381     19382     19381     19383
     19382     19383     19384     19385     19384     19386     19385     19386
     19387     19388     19387     19389     19388     19389     19390     19391
     19390     19392     19391     19392     19393     19394     19393     19395
     19394     19395     19396     19397     19396     19398     19397     19398
     19399     19400     19399     19401     19400     19401     19402     19403
     19402     19404     19403     19404     19405     19406     19405     19407
     19406     19407     19408     19409     19408     19410     19409     19410
     19411     19412     19411     19413     19412     19413     19414     19415
     19414     19416     19415     19416     19417     19418     19417     19419
     19418     19419     19420     19421     19420     19422     19421     19422
     19423     19424     19423     19425     19424     19425     19426     19427
     19426     19428     19427     19428     19429     19430     19429     19431
     19430     19431     19432     19433     19432     19434     19433     19434
     19435     19436     19435     19437     19436     19437     19438     19439
     19438     19440     19439     19440     19441     19442     19441     19443
     19442     19443     19444     19445     19444     19446     19445     19446
     19447     19448     19447     19449     19448     19449     19450     19451
     19450     19452     19451     19452     19453     19454     19453     19455
     19454     19455     19456     19457     19456     19458     19457     19458
     19459     19460     19459     19461     19460     19461     19462     19463
     19462     19464     19463     19464     19465     19466     19465     19467
     19466     19467     19468     19469     19468     19470     19469     19470
     19471     19472     19471     19473     19472     19473     19474     19475
     19474     19476     19475     19476     19477     19478     19477     19479
     19478     19479     19480     19481     19480     19482     19481     19482
     19483     19484     19483     19485     19484     19485     19486     19487
     19486     19488     19487     19488     19489     19490     19489     19491
     19490     19491     19492     19493     19492     19494     19493     19494
     19495     19496     19495     19497     19496     19497     19498     19499
     19498     19500     19499     19500     19501     19502     19501     19503
     19502     19503     19504     19505     19504     19506     19505     19506
     19507     19508     19507     19509     19508     19509     19510     19511
     19510     19512     19511     19512     19513     19514     19513     19515
     19514     19515     19516     19517     19516     19518     19517     19518
     19519     19520     19519     19521     19520     19521     19522     19523
     19522     19524     19523     19524     19525     19526     19525     19527
     19526     19527     19528     19529     19528     19530     19529     19530
     19531     19532     19531     19533     19532     19533     19534     19535
     19534     19536     19535     19536     19537     19538     19537     19539
     19538     19539     19540     19541     19540     19542     19541     19542
     19543     19544     19543     19545     19544     19545     19546     19547
     19546     19548     19547     19548     19549     19550     19549     19551
     19550     19551     19552     19553     19552     19554     19553     19554
     19555     19556     19555     19557     19556     19557     19558     19559
     19558     19560     19559     19560     19561     19562     19561     19563
     19562     19563     19564     19565     19564     19566     19565     19566
     19567     19568     19567     19569     19568     19569     19570     19571
     19570     19572     19571     19572     19573     19574     19573     19575
     19574     19575     19576     19577     19576     19578     19577     19578
     19579     19580     19579     19581     19580     19581     19582     19583
     19582     19584     19583     19584     19585     19586     19585     19587
     19586     19587     19588     19589     19588     19590     19589     19590
     19591     19592     19591     19593     19592     19593     19594     19595
     19594     19596     19595     19596     19597     19598     19597     19599
     19598     19599     19600     19601     19600     19602     19601     19602
     19603     19604     19603     19605     19604     19605     19606     19607
     19606     19608     19607     19608     19609     19610     19609     19611
     19610     19611     19612     19613     19612     19614     19613     19614
     19615     19616     19615     19617     19616     19617     19618     19619
     19618     19620     19619     19620     19621     19622     19621     19623
     19622     19623     19624     19625     19624     19626     19625     19626
     19627     19628     19627     19629     19628     19629     19630     19631
     19630     19632     19631     19632     19633     19634     19633     19635
     19634     19635     19636     19637     19636     19638     19637     19638
     19639     19640     19639     19641     19640     19641     19642     19643
     19642     19644     19643     19644     19645     19646     19645     19647
     19646     19647     19648     19649     19648     19650     19649     19650
     19651     19652     19651     19653     19652     19653     19654     19655
     19654     19656     19655     19656     19657     19658     19657     19659
     19658     19659     19660     19661     19660     19662     19661     19662
     19663     19664     19663     19665     19664     19665     19666     19667
     19666     19668     19667     19668     19669     19670     19669     19671
     19670     19671     19672     19673     19672     19674     19673     19674
     19675     19676     19675     19677     19676     19677     19678     19679
     19678     19680     19679     19680     19681     19682     19681     19683
     19682     19683     19684     19685     19684     19686     19685     19686
     19687     19688     19687     19689     19688     19689     19690     19691
     19690     19692     19691     19692     19693     19694     19693     19695
     19694     19695     19696     19697     19696     19698     19697     19698
     19699     19700     19699     19701     19700     19701     19702     19703
     19702     19704     19703     19704     19705     19706     19705     19707
     19706     19707     19708     19709     19708     19710     19709     19710
     19711     19712     19711     19713     19712     19713     19714     19715
     19714     19716     19715     19716     19717     19718     19717     19719
     19718     19719     19720     19721     19720     19722     19721     19722
     19723     19724     19723     19725     19724     19725     19726     19727
     19726     19728     19727     19728     19729     19730     19729     19731
     19730     19731     19732     19733     19732     19734     19733     19734
     19735     19736     19735     19737     19736     19737     19738     19739
     19738     19740     19739     19740     19741     19742     19741     19743
     19742     19743     19744     19745     19744     19746     19745     19746
     19747     19748     19747     19749     19748     19749     19750     19751
     19750     19752     19751     19752     19753     19754     19753     19755
     19754     19755     19756     19757     19756     19758     19757     19758
     19759     19760     19759     19761     19760     19761     19762     19763
     19762     19764     19763     19764     19765     19766     19765     19767
     19766     19767     19768     19769     19768     19770     19769     19770
     19771     19772     19771     19773     19772     19773     19774     19775
     19774     19776     19775     19776     19777     19778     19777     19779
     19778     19779     19780     19781     19780     19782     19781     19782
     19783     19784     19783     19785     19784     19785     19786     19787
     19786     19788     19787     19788     19789     19790     19789     19791
     19790     19791     19792     19793     19792     19794     19793     19794
     19795     19796     19795     19797     19796     19797     19798     19799
     19798     19800     19799     19800     19801     19802     19801     19803
     19802     19803     19804     19805     19804     19806     19805     19806
     19807     19808     19807     19809     19808     19809     19810     19811
     19810     19812     19811     19812     19813     19814     19813     19815
     19814     19815     19816     19817     19816     19818     19817     19818
     19819     19820     19819     19821     19820     19821     19822     19823
     19822     19824     19823     19824     19825     19826     19825     19827
     19826     19827     19828     19829     19828     19830     19829     19830
     19831     19832     19831     19833     19832     19833     19834     19835
     19834     19836     19835     19836     19837     19838     19837     19839
     19838     19839     19840     19841     19840     19842     19841     19842
     19843     19844     19843     19845     19844     19845     19846     19847
     19846     19848     19847     19848     19849     19850     19849     19851
     19850     19851     19852     19853     19852     19854     19853     19854
     19855     19856     19855     19857     19856     19857     19858     19859
     19858     19860     19859     19860     19861     19862     19861     19863
     19862     19863     19864     19865     19864     19866     19865     19866
     19867     19868     19867     19869     19868     19869     19870     19871
     19870     19872     19871     19872     19873     19874     19873     19875
     19874     19875     19876     19877     19876     19878     19877     19878
     19879     19880     19879     19881     19880     19881     19882     19883
     19882     19884     19883     19884     19885     19886     19885     19887
     19886     19887     19888     19889     19888     19890     19889     19890
     19891     19892     19891     19893     19892     19893     19894     19895
     19894     19896     19895     19896     19897     19898     19897     19899
     19898     19899     19900     19901     19900     19902     19901     19902
     19903     19904     19903     19905     19904     19905     19906     19907
     19906     19908     19907     19908     19909     19910     19909     19911
     19910     19911     19912     19913     19912     19914     19913     19914
     19915     19916     19915     19917     19916     19917     19918     19919
     19918     19920     19919     19920     19921     19922     19921     19923
     19922     19923     19924     19925     19924     19926     19925     19926
     19927     19928     19927     19929     19928     19929     19930     19931
     19930     19932     19931     19932     19933     19934     19933     19935
     19934     19935     19936     19937     19936     19938     19937     19938
     19939     19940     19939     19941     19940     19941     19942     19943
     19942     19944     19943     19944     19945     19946     19945     19947
     19946     19947     19948     19949     19948     19950     19949     19950
     19951     19952     19951     19953     19952     19953     19954     19955
     19954     19956     19955     19956     19957     19958     19957     19959
     19958     19959     19960     19961     19960     19962     19961     19962
     19963     19964     19963     19965     19964     19965     19966     19967
     19966     19968     19967     19968     19969     19970     19969     19971
     19970     19971     19972     19973     19972     19974     19973     19974
     19975     19976     19975     19977     19976     19977     19978     19979
     19978     19980     19979     19980     19981     19982     19981     19983
     19982     19983     19984     19985     19984     19986     19985     19986
     19987     19988     19987     19989     19988     19989     19990     19991
     19990     19992     19991     19992     19993     19994     19993     19995
     19994     19995     19996     19997     19996     19998     19997     19998
     19999     20000     19999     20001     20000     20001     20002     20003
     20002     20004     20003     20004     20005     20006     20005     20007
     20006     20007     20008     20009     20008     20010     20009     20010
     20011     20012     20011     20013     20012     20013     20014     20015
     20014     20016     20015     20016     20017     20018     20017     20019
     20018     20019     20020     20021     20020     20022     20021     20022
     20023     20024     20023     20025     20024     20025     20026     20027
     20026     20028     20027     20028     20029     20030     20029     20031
     20030     20031     20032     20033     20032     20034     20033     20034
     20035     20036     20035     20037     20036     20037     20038     20039
     20038     20040     20039     20040     20041     20042     20041     20043
     20042     20043     20044     20045     20044     20046     20045     20046
     20047     20048     20047     20049     20048     20049     20050     20051
     20050     20052     20051     20052     20053     20054     20053     20055
     20054     20055     20056     20057     20056     20058     20057     20058
     20059     20060     20059     20061     20060     20061     20062     20063
     20062     20064     20063     20064     20065     20066     20065     20067
     20066     20067     20068     20069     20068     20070     20069     20070
     20071     20072     20071     20073     20072     20073     20074     20075
     20074     20076     20075     20076     20077     20078     20077     20079
     20078     20079     20080     20081     20080     20082     20081     20082
     20083     20084     20083     20085     20084     20085     20086     20087
     20086     20088     20087     20088     20089     20090     20089     20091
     20090     20091     20092     20093     20092     20094     20093     20094
     20095     20096     20095     20097     20096     20097     20098     20099
     20098     20100     20099     20100     20101     20102     20101     20103
     20102     20103     20104     20105     20104     20106     20105     20106
     20107     20108     20107     20109     20108     20109     20110     20111
     20110     20112     20111     20112     20113     20114     20113     20115
     20114     20115     20116     20117     20116     20118     20117     20118
     20119     20120     20119     20121     20120     20121     20122     20123
     20122     20124     20123     20124     20125     20126     20125     20127
     20126     20127     20128     20129     20128     20130     20129     20130
     20131     20132     20131     20133     20132     20133     20134     20135
     20134     20136     20135     20136     20137     20138     20137     20139
     20138     20139     20140     20141     20140     20142     20141     20142
     20143     20144     20143     20145     20144     20145     20146     20147
     20146     20148     20147     20148     20149     20150     20149     20151
     20150     20151     20152     20153     20152     20154     20153     20154
     20155     20156     20155     20157     20156     20157     20158     20159
     20158     20160     20159     20160     20161     20162     20161     20163
     20162     20163     20164     20165     20164     20166     20165     20166
     20167     20168     20167     20169     20168     20169     20170     20171
     20170     20172     20171     20172     20173     20174     20173     20175
     20174     20175     20176     20177     20176     20178     20177     20178
     20179     20180     20179     20181     20180     20181     20182     20183
     20182     20184     20183     20184     20185     20186     20185     20187
     20186     20187     20188     20189     20188     20190     20189     20190
     20191     20192     20191     20193     20192     20193     20194     20195
     20194     20196     20195     20196     20197     20198     20197     20199
     20198     20199     20200     20201     20200     20202     20201     20202
     20203     20204     20203     20205     20204     20205     20206     20207
     20206     20208     20207     20208     20209     20210     20209     20211
     20210     20211     20212     20213     20212     20214     20213     20214
     20215     20216     20215     20217     20216     20217     20218     20219
     20218     20220     20219     20220     20221     20222     20221     20223
     20222     20223     20224     20225     20224     20226     20225     20226
     20227     20228     20227     20229     20228     20229     20230     20231
     20230     20232     20231     20232     20233     20234     20233     20235
     20234     20235     20236     20237     20236     20238     20237     20238

     24538 !NTHETA: angles
         2         1         6         2         1        10         2         1        14
         6         1        10         6         1        14        10         1        14
         1         2         3         1         2         4         1         2         5
         3         2         4         3         2         5         4         2         5
         1         6         7         1         6         8         1         6         9
         7         6         8         7         6         9         8         6         9
         1        10        11         1        10        12         1        10        13
        11        10        12        11        10        13        12        10        13
         1        14        15         1        14        16         1        14        17
        15        14        16        15        14        17        16        14        17
        14        17        18        14        17        19        14        17        24
        18        17        19        18        17        24        19        17        24
        21        20        22        21        20        23        21        20        24
        22        20        23        22        20        24        23        20        24
        20        23        25        17        24        20        23        25        26
        23        25        27        23        25        30        26        25        27
        26        25        30        27        25        30        29        28        30
        29        28        80        30        28        80        25        30        28
        25        30        31        25        30        32        28        30        31
        28        30        32        31        30        32        30        32        33
        30        32        34        30        32        36        33        32        34
        33        32        36        34        32        36        32        34        35
        32        36        37        32        36        38        37        36        38
        36        38        39        36        38        40        39        38        40
        38        40        41        38        40        42        38        40        43
        41        40        42        41        40        43        42        40        43
        40        43        44        40        43        45        40        43        46
        44        43        45        44        43        46        45        43        46
        43        46        47        43        46        48        43        46        49
        47        46        48        47        46        49        48        46        49
        46        49        50        46        49        51        46        49        52
        50        49        51        50        49        52        51        49        52
        49        52        53        49        52        54        49        52        55
        53        52        54        53        52        55        54        52        55
        52        55        56        52        55        57        52        55        58
        56        55        57        56        55        58        57        55        58
        55        58        59        55        58        60        55        58        61
        59        58        60        59        58        61        60        58        61
        58        61        62        58        61        63        58        61        64
        62        61        63        62        61        64        63        61        64
        61        64        65        61        64        66        61        64        67
        65        64        66        65        64        67        66        64        67
        64        67        68        64        67        69        64        67        70
        68        67        69        68        67        70        69        67        70
        67        70        71        67        70        72        67        70        73
        71        70        72        71        70        73        72        70        73
        70        73        74        70        73        75        70        73        76
        74        73        75        74        73        76        75        73        76
        73        76        77        73        76        78        73        76        79
        77        76        78        77        76        79        78        76        79
        28        80        81        28        80        82        81        80        82
        80        82        83        80        82        84        80        82        85
        83        82        84        83        82        85        84        82        85
        82        85        86        82        85        87        82        85        88
        86        85        87        86        85        88        87        85        88
        85        88        89        85        88        90        85        88        91
        89        88        90        89        88        91        90        88        91
        88        91        92        88        91        93        88        91        94
        92        91        93        92        91        94        93        91        94
        91        94        95        91        94        96        91        94        97
        95        94        96        95        94        97        96        94        97
        94        97        98        94        97        99        94        97       100
        98        97        99        98        97       100        99        97       100
        97       100       101        97       100       102        97       100       103
       101       100       102       101       100       103       102       100       103
       100       103       104       100       103       105       104       103       105
       103       105       106       103       105       107       106       105       107
       105       107       108       105       107       109       105       107       110
       108       107       109       108       107       110       109       107       110
       107       110       111       107       110       112       107       110       113
       111       110       112       111       110       113       112       110       113
       110       113       114       110       113       115       110       113       116
       114       113       115       114       113       116       115       113       116
       113       116       117       113       116       118       113       116       119
       117       116       118       117       116       119       118       116       119
       116       119       120       116       119       121       116       119       122
       120       119       121       120       119       122       121       119       122
       119       122       123       119       122       124       119       122       125
       123       122       124       123       122       125       124       122       125
       122       125       126       122       125       127       122       125       128
       126       125       127       126       125       128       127       125       128
       125       128       129       125       128       130       125       128       131
       129       128       130       129       128       131       130       128       131
      2360      2359      2361      2360      2359      2362      2360      2359      2363
      2361      2359      2362      2361      2359      2363      2362      2359      2363
      2359      2363      2364      2359      2363      2365      2359      2363      2368
      2364      2363      2365      2364      2363      2368      2365      2363      2368
      2363      2365      2366      2363      2365      2367      2366      2365      2367
      2363      2368      2369      2363      2368      2370      2363      2368      2374
      2369      2368      2370      2369      2368      2374      2370      2368      2374
      2372      2371      2373      2372      2371      2374      2372      2371      2375
      2373      2371      2374      2373      2371      2375      2374      2371      2375
      2368      2374      2371      2371      2375      2376      2375      2376      2377
      2375      2376      2378      2375      2376      2379      2377      2376      2378
      2377      2376      2379      2378      2376      2379      2376      2379      2380
      2376      2379      2381      2376      2379      2387      2380      2379      2381
      2380      2379      2387      2381      2379      2387      2379      2381      2382
      2381      2382      2383      2381      2382      2384      2383      2382      2384
      2382      2384      2385      2382      2384      2386      2382      2384      2396
      2385      2384      2386      2385      2384      2396      2386      2384      2396
      2379      2387      2388      2379      2387      2389      2379      2387      2390
      2388      2387      2389      2388      2387      2390      2389      2387      2390
      2387      2390      2391      2390      2391      2392      2390      2391      2393
      2392      2391      2393      2391      2393      2394      2391      2393      2395
      2391      2393      2443      2394      2393      2395      2394      2393      2443
      2395      2393      2443      2384      2396      2397      2384      2396      2398
      2384      2396      2399      2397      2396      2398      2397      2396      2399
      2398      2396      2399      2396      2399      2400      2396      2399      2401
      2396      2399      2402      2400      2399      2401      2400      2399      2402
      2401      2399      2402      2399      2402      2403      2399      2402      2404
      2403      2402      2404      2402      2404      2405      2402      2404      2406
      2405      2404      2406      2404      2406      2407      2404      2406      2408
      2404      2406      2409      2407      2406      2408      2407      2406      2409
      2408      2406      2409      2406      2409      2410      2406      2409      2411
      2410      2409      2411      2409      2411      2412      2409      2411      2413
      2412      2411      2413      2411      2413      2414      2411      2413      2415
      2411      2413      2416      2414      2413      2415      2414      2413      2416
      2415      2413      2416      2413      2416      2417      2413      2416      2418
      2417      2416      2418      2416      2418      2419      2416      2418      2420
      2419      2418      2420      2418      2420      2421      2418      2420      2422
      2418      2420      2423      2421      2420      2422      2421      2420      2423
      2422      2420      2423      2420      2423      2424      2420      2423      2425
      2424      2423      2425      2423      2425      2426      2423      2425      2427
      2426      2425      2427      2425      2427      2428      2425      2427      2429
      2425      2427      2430      2428      2427      2429      2428      2427      2430
      2429      2427      2430      2427      2430      2431      2427      2430      2432
      2427      2430      2433      2431      2430      2432      2431      2430      2433
      2432      2430      2433      2430      2433      2434      2430      2433      2435
      2430      2433      2436      2434      2433      2435      2434      2433      2436
      2435      2433      2436      2433      2436      2437      2433      2436      2438
      2433      2436      2439      2437      2436      2438      2437      2436      2439
      2438      2436      2439      2436      2439      2440      2436      2439      2441
      2436      2439      2442      2440      2439      2441      2440      2439      2442
      2441      2439      2442      2393      2443      2444      2393      2443      2445
      2393      2443      2446      2444      2443      2445      2444      2443      2446
      2445      2443      2446      2443      2446      2447      2443      2446      2448
      2443      2446      2449      2447      2446      2448      2447      2446      2449
      2448      2446      2449      2446      2449      2450      2446      2449      2451
      2446      2449      2452      2450      2449      2451      2450      2449      2452
      2451      2449      2452      2449      2452      2453      2449      2452      2454
      2449      2452      2455      2453      2452      2454      2453      2452      2455
      2454      2452      2455      2452      2455      2456      2452      2455      2457
      2452      2455      2458      2456      2455      2457      2456      2455      2458
      2457      2455      2458      2455      2458      2459      2455      2458      2460
      2455      2458      2461      2459      2458      2460      2459      2458      2461
      2460      2458      2461      2458      2461      2462      2458      2461      2463
      2458      2461      2464      2462      2461      2463      2462      2461      2464
      2463      2461      2464      2461      2464      2465      2461      2464      2466
      2461      2464      2467      2465      2464      2466      2465      2464      2467
      2466      2464      2467      2464      2467      2468      2464      2467      2469
      2464      2467      2470      2468      2467      2469      2468      2467      2470
      2469      2467      2470      2467      2470      2471      2467      2470      2472
      2467      2470      2473      2471      2470      2472      2471      2470      2473
      2472      2470      2473      2470      2473      2474      2470      2473      2475
      2470      2473      2476      2474      2473      2475      2474      2473      2476
      2475      2473      2476      2473      2476      2477      2473      2476      2478
      2473      2476      2479      2477      2476      2478      2477      2476      2479
      2478      2476      2479      2476      2479      2480      2476      2479      2481
      2476      2479      2482      2480      2479      2481      2480      2479      2482
      2481      2479      2482      2479      2482      2483      2479      2482      2484
      2479      2482      2485      2483      2482      2484      2483      2482      2485
      2484      2482      2485      2482      2485      2486      2482      2485      2487
      2482      2485      2488      2486      2485      2487      2486      2485      2488
      2487      2485      2488      2485      2488      2489      2485      2488      2490
      2485      2488      2491      2489      2488      2490      2489      2488      2491
      2490      2488      2491      3424      3423      3425      3424      3423      3426
      3424      3423      3427      3425      3423      3426      3425      3423      3427
      3426      3423      3427      3423      3427      3428      3423      3427      3429
      3423      3427      3430      3428      3427      3429      3428      3427      3430
      3429      3427      3430      3427      3430      3431      3427      3430      3432
      3427      3430      3436      3431      3430      3432      3431      3430      3436
      3432      3430      3436      3434      3433      3435      3434      3433      3436
      3434      3433      3437      3435      3433      3436      3435      3433      3437
      3436      3433      3437      3430      3436      3433      3433      3437      3438
      3437      3438      3439      3437      3438      3440      3437      3438      3441
      3439      3438      3440      3439      3438      3441      3440      3438      3441
      3438      3441      3442      3438      3441      3443      3438      3441      3449
      3442      3441      3443      3442      3441      3449      3443      3441      3449
      3441      3443      3444      3443      3444      3445      3443      3444      3446
      3445      3444      3446      3444      3446      3447      3444      3446      3448
      3444      3446      3458      3447      3446      3448      3447      3446      3458
      3448      3446      3458      3441      3449      3450      3441      3449      3451
      3441      3449      3452      3450      3449      3451      3450      3449      3452
      3451      3449      3452      3449      3452      3453      3452      3453      3454
      3452      3453      3455      3454      3453      3455      3453      3455      3456
      3453      3455      3457      3453      3455      3505      3456      3455      3457
      3456      3455      3505      3457      3455      3505      3446      3458      3459
      3446      3458      3460      3446      3458      3461      3459      3458      3460
      3459      3458      3461      3460      3458      3461      3458      3461      3462
      3458      3461      3463      3458      3461      3464      3462      3461      3463
      3462      3461      3464      3463      3461      3464      3461      3464      3465
      3461      3464      3466      3465      3464      3466      3464      3466      3467
      3464      3466      3468      3467      3466      3468      3466      3468      3469
      3466      3468      3470      3466      3468      3471      3469      3468      3470
      3469      3468      3471      3470      3468      3471      3468      3471      3472
      3468      3471      3473      3472      3471      3473      3471      3473      3474
      3471      3473      3475      3474      3473      3475      3473      3475      3476
      3473      3475      3477      3473      3475      3478      3476      3475      3477
      3476      3475      3478      3477      3475      3478      3475      3478      3479
      3475      3478      3480      3479      3478      3480      3478      3480      3481
      3478      3480      3482      3481      3480      3482      3480      3482      3483
      3480      3482      3484      3480      3482      3485      3483      3482      3484
      3483      3482      3485      3484      3482      3485      3482      3485      3486
      3482      3485      3487      3486      3485      3487      3485      3487      3488
      3485      3487      3489      3488      3487      3489      3487      3489      3490
      3487      3489      3491      3487      3489      3492      3490      3489      3491
      3490      3489      3492      3491      3489      3492      3489      3492      3493
      3489      3492      3494      3489      3492      3495      3493      3492      3494
      3493      3492      3495      3494      3492      3495      3492      3495      3496
      3492      3495      3497      3492      3495      3498      3496      3495      3497
      3496      3495      3498      3497      3495      3498      3495      3498      3499
      3495      3498      3500      3495      3498      3501      3499      3498      3500
      3499      3498      3501      3500      3498      3501      3498      3501      3502
      3498      3501      3503      3498      3501      3504      3502      3501      3503
      3502      3501      3504      3503      3501      3504      3455      3505      3506
      3455      3505      3507      3455      3505      3508      3506      3505      3507
      3506      3505      3508      3507      3505      3508      3505      3508      3509
      3505      3508      3510      3505      3508      3511      3509      3508      3510
      3509      3508      3511      3510      3508      3511      3508      3511      3512
      3508      3511      3513      3508      3511      3514      3512      3511      3513
      3512      3511      3514      3513      3511      3514      3511      3514      3515
      3511      3514      3516      3511      3514      3517      3515      3514      3516
      3515      3514      3517      3516      3514      3517      3514      3517      3518
      3514      3517      3519      3514      3517      3520      3518      3517      3519
      3518      3517      3520      3519      3517      3520      3517      3520      3521
      3517      3520      3522      3517      3520      3523      3521      3520      3522
      3521      3520      3523      3522      3520      3523      3520      3523      3524
      3520      3523      3525      3520      3523      3526      3524      3523      3525
      3524      3523      3526      3525      3523      3526      3523      3526      3527
      3523      3526      3528      3523      3526      3529      3527      3526      3528
      3527      3526      3529      3528      3526      3529      3526      3529      3530
      3526      3529      3531      3526      3529      3532      3530      3529      3531
      3530      3529      3532      3531      3529      3532      3529      3532      3533
      3529      3532      3534      3529      3532      3535      3533      3532      3534
      3533      3532      3535      3534      3532      3535      3532      3535      3536
      3532      3535      3537      3532      3535      3538      3536      3535      3537
      3536      3535      3538      3537      3535      3538      3535      3538      3539
      3535      3538      3540      3535      3538      3541      3539      3538      3540
      3539      3538      3541      3540      3538      3541      3538      3541      3542
      3538      3541      3543      3538      3541      3544      3542      3541      3543
      3542      3541      3544      3543      3541      3544      3541      3544      3545
      3541      3544      3546      3541      3544      3547      3545      3544      3546
      3545      3544      3547      3546      3544      3547      3544      3547      3548
      3544      3547      3549      3544      3547      3550      3548      3547      3549
      3548      3547      3550      3549      3547      3550      3547      3550      3551
      3547      3550      3552      3547      3550      3553      3551      3550      3552
      3551      3550      3553      3552      3550      3553      5258      5257      5259
      5258      5257      5261      5258      5257      5303      5259      5257      5261
      5259      5257      5303      5261      5257      5303      5257      5259      5260
      5257      5261      5262      5257      5261      5263      5257      5261      5264
      5262      5261      5263      5262      5261      5264      5263      5261      5264
      5261      5264      5265      5261      5264      5295      5265      5264      5295
      5264      5265      5266      5264      5265      5267      5266      5265      5267
      5265      5267      5268      5265      5267      5269      5265      5267      5270
      5268      5267      5269      5268      5267      5270      5269      5267      5270
      5267      5270      5271      5267      5270      5272      5267      5270      5293
      5271      5270      5272      5271      5270      5293      5272      5270      5293
      5270      5272      5273      5270      5272      5274      5270      5272      5282
      5273      5272      5274      5273      5272      5282      5274      5272      5282
      5272      5274      5275      5272      5274      5276      5272      5274      5277
      5275      5274      5276      5275      5274      5277      5276      5274      5277
      5274      5277      5278      5274      5277      5279      5274      5277      5280
      5278      5277      5279      5278      5277      5280      5279      5277      5280
      5277      5280      5281      5277      5280      5282      5277      5280      5306
      5281      5280      5282      5281      5280      5306      5282      5280      5306
      5272      5282      5280      5272      5282      5283      5272      5282      5287
      5280      5282      5283      5280      5282      5287      5283      5282      5287
      5282      5283      5284      5282      5283      5285      5282      5283      5286
      5284      5283      5285      5284      5283      5286      5285      5283      5286
      5282      5287      5288      5282      5287      5289      5282      5287      5290
      5288      5287      5289      5288      5287      5290      5289      5287      5290
      5287      5290      5291      5287      5290      5292      5287      5290      5293
      5291      5290      5292      5291      5290      5293      5292      5290      5293
      5270      5293      5290      5270      5293      5294      5270      5293      5295
      5290      5293      5294      5290      5293      5295      5294      5293      5295
      5264      5295      5293      5264      5295      5296      5264      5295      5300
      5293      5295      5296      5293      5295      5300      5296      5295      5300
      5295      5296      5297      5295      5296      5298      5295      5296      5299
      5297      5296      5298      5297      5296      5299      5298      5296      5299
      5295      5300      5301      5295      5300      5302      5295      5300      5303
      5301      5300      5302      5301      5300      5303      5302      5300      5303
      5257      5303      5300      5257      5303      5304      5257      5303      5305
      5300      5303      5304      5300      5303      5305      5304      5303      5305
      5280      5306      5307      5280      5306      5308      5280      5306      5312
      5307      5306      5308      5307      5306      5312      5308      5306      5312
      5306      5308      5309      5306      5308      5310      5306      5308      5311
      5309      5308      5310      5309      5308      5311      5310      5308      5311
      5306      5312      5313      5306      5312      5314      5306      5312      5315
      5313      5312      5314      5313      5312      5315      5314      5312      5315
      5312      5315      5316      5312      5315      5317      5312      5315      5318
      5316      5315      5317      5316      5315      5318      5317      5315      5318
      5315      5318      5319      5315      5318      5320      5315      5318      5321
      5319      5318      5320      5319      5318      5321      5320      5318      5321
      5318      5321      5322      5318      5321      5323      5318      5321      5327
      5322      5321      5323      5322      5321      5327      5323      5321      5327
      5321      5323      5324      5321      5323      5325      5321      5323      5326
      5324      5323      5325      5324      5323      5326      5325      5323      5326
      5321      5327      5328      5321      5327      5329      5321      5327      5330
      5328      5327      5329      5328      5327      5330      5329      5327      5330
      3555      3554      3556      3555      3554      3557      3555      3554      3558
      3556      3554      3557      3556      3554      3558      3557      3554      3558
      3554      3558      3559      3554      3558      3560      3554      3558      3561
      3559      3558      3560      3559      3558      3561      3560      3558      3561
      3558      3561      3562      3558      3561      3563      3558      3561      3567
      3562      3561      3563      3562      3561      3567      3563      3561      3567
      3565      3564      3566      3565      3564      3567      3565      3564      3568
      3566      3564      3567      3566      3564      3568      3567      3564      3568
      3561      3567      3564      3564      3568      3569      3568      3569      3570
      3568      3569      3571      3568      3569      3572      3570      3569      3571
      3570      3569      3572      3571      3569      3572      3569      3572      3573
      3569      3572      3574      3569      3572      3580      3573      3572      3574
      3573      3572      3580      3574      3572      3580      3572      3574      3575
      3574      3575      3576      3574      3575      3577      3576      3575      3577
      3575      3577      3578      3575      3577      3579      3575      3577      3589
      3578      3577      3579      3578      3577      3589      3579      3577      3589
      3572      3580      3581      3572      3580      3582      3572      3580      3583
      3581      3580      3582      3581      3580      3583      3582      3580      3583
      3580      3583      3584      3583      3584      3585      3583      3584      3586
      3585      3584      3586      3584      3586      3587      3584      3586      3588
      3584      3586      3636      3587      3586      3588      3587      3586      3636
      3588      3586      3636      3577      3589      3590      3577      3589      3591
      3577      3589      3592      3590      3589      3591      3590      3589      3592
      3591      3589      3592      3589      3592      3593      3589      3592      3594
      3589      3592      3595      3593      3592      3594      3593      3592      3595
      3594      3592      3595      3592      3595      3596      3592      3595      3597
      3596      3595      3597      3595      3597      3598      3595      3597      3599
      3598      3597      3599      3597      3599      3600      3597      3599      3601
      3597      3599      3602      3600      3599      3601      3600      3599      3602
      3601      3599      3602      3599      3602      3603      3599      3602      3604
      3603      3602      3604      3602      3604      3605      3602      3604      3606
      3605      3604      3606      3604      3606      3607      3604      3606      3608
      3604      3606      3609      3607      3606      3608      3607      3606      3609
      3608      3606      3609      3606      3609      3610      3606      3609      3611
      3610      3609      3611      3609      3611      3612      3609      3611      3613
      3612      3611      3613      3611      3613      3614      3611      3613      3615
      3611      3613      3616      3614      3613      3615      3614      3613      3616
      3615      3613      3616      3613      3616      3617      3613      3616      3618
      3617      3616      3618      3616      3618      3619      3616      3618      3620
      3619      3618      3620      3618      3620      3621      3618      3620      3622
      3618      3620      3623      3621      3620      3622      3621      3620      3623
      3622      3620      3623      3620      3623      3624      3620      3623      3625
      3620      3623      3626      3624      3623      3625      3624      3623      3626
      3625      3623      3626      3623      3626      3627      3623      3626      3628
      3623      3626      3629      3627      3626      3628      3627      3626      3629
      3628      3626      3629      3626      3629      3630      3626      3629      3631
      3626      3629      3632      3630      3629      3631      3630      3629      3632
      3631      3629      3632      3629      3632      3633      3629      3632      3634
      3629      3632      3635      3633      3632      3634      3633      3632      3635
      3634      3632      3635      3586      3636      3637      3586      3636      3638
      3586      3636      3639      3637      3636      3638      3637      3636      3639
      3638      3636      3639      3636      3639      3640      3636      3639      3641
      3636      3639      3642      3640      3639      3641      3640      3639      3642
      3641      3639      3642      3639      3642      3643      3639      3642      3644
      3639      3642      3645      3643      3642      3644      3643      3642      3645
      3644      3642      3645      3642      3645      3646      3642      3645      3647
      3642      3645      3648      3646      3645      3647      3646      3645      3648
      3647      3645      3648      3645      3648      3649      3645      3648      3650
      3645      3648      3651      3649      3648      3650      3649      3648      3651
      3650      3648      3651      3648      3651      3652      3648      3651      3653
      3648      3651      3654      3652      3651      3653      3652      3651      3654
      3653      3651      3654      3651      3654      3655      3651      3654      3656
      3651      3654      3657      3655      3654      3656      3655      3654      3657
      3656      3654      3657      3654      3657      3658      3654      3657      3659
      3654      3657      3660      3658      3657      3659      3658      3657      3660
      3659      3657      3660      3657      3660      3661      3657      3660      3662
      3657      3660      3663      3661      3660      3662      3661      3660      3663
      3662      3660      3663      3660      3663      3664      3660      3663      3665
      3660      3663      3666      3664      3663      3665      3664      3663      3666
      3665      3663      3666      3663      3666      3667      3663      3666      3668
      3663      3666      3669      3667      3666      3668      3667      3666      3669
      3668      3666      3669      3666      3669      3670      3666      3669      3671
      3666      3669      3672      3670      3669      3671      3670      3669      3672
      3671      3669      3672      3669      3672      3673      3669      3672      3674
      3669      3672      3675      3673      3672      3674      3673      3672      3675
      3674      3672      3675      3672      3675      3676      3672      3675      3677
      3672      3675      3678      3676      3675      3677      3676      3675      3678
      3677      3675      3678      3675      3678      3679      3675      3678      3680
      3675      3678      3681      3679      3678      3680      3679      3678      3681
      3680      3678      3681      3678      3681      3682      3678      3681      3683
      3678      3681      3684      3682      3681      3683      3682      3681      3684
      3683      3681      3684      5332      5331      5333      5332      5331      5335
      5332      5331      5377      5333      5331      5335      5333      5331      5377
      5335      5331      5377      5331      5333      5334      5331      5335      5336
      5331      5335      5337      5331      5335      5338      5336      5335      5337
      5336      5335      5338      5337      5335      5338      5335      5338      5339
      5335      5338      5369      5339      5338      5369      5338      5339      5340
      5338      5339      5341      5340      5339      5341      5339      5341      5342
      5339      5341      5343      5339      5341      5344      5342      5341      5343
      5342      5341      5344      5343      5341      5344      5341      5344      5345
      5341      5344      5346      5341      5344      5367      5345      5344      5346
      5345      5344      5367      5346      5344      5367      5344      5346      5347
      5344      5346      5348      5344      5346      5356      5347      5346      5348
      5347      5346      5356      5348      5346      5356      5346      5348      5349
      5346      5348      5350      5346      5348      5351      5349      5348      5350
      5349      5348      5351      5350      5348      5351      5348      5351      5352
      5348      5351      5353      5348      5351      5354      5352      5351      5353
      5352      5351      5354      5353      5351      5354      5351      5354      5355
      5351      5354      5356      5351      5354      5380      5355      5354      5356
      5355      5354      5380      5356      5354      5380      5346      5356      5354
      5346      5356      5357      5346      5356      5361      5354      5356      5357
      5354      5356      5361      5357      5356      5361      5356      5357      5358
      5356      5357      5359      5356      5357      5360      5358      5357      5359
      5358      5357      5360      5359      5357      5360      5356      5361      5362
      5356      5361      5363      5356      5361      5364      5362      5361      5363
      5362      5361      5364      5363      5361      5364      5361      5364      5365
      5361      5364      5366      5361      5364      5367      5365      5364      5366
      5365      5364      5367      5366      5364      5367      5344      5367      5364
      5344      5367      5368      5344      5367      5369      5364      5367      5368
      5364      5367      5369      5368      5367      5369      5338      5369      5367
      5338      5369      5370      5338      5369      5374      5367      5369      5370
      5367      5369      5374      5370      5369      5374      5369      5370      5371
      5369      5370      5372      5369      5370      5373      5371      5370      5372
      5371      5370      5373      5372      5370      5373      5369      5374      5375
      5369      5374      5376      5369      5374      5377      5375      5374      5376
      5375      5374      5377      5376      5374      5377      5331      5377      5374
      5331      5377      5378      5331      5377      5379      5374      5377      5378
      5374      5377      5379      5378      5377      5379      5354      5380      5381
      5354      5380      5382      5354      5380      5386      5381      5380      5382
      5381      5380      5386      5382      5380      5386      5380      5382      5383
      5380      5382      5384      5380      5382      5385      5383      5382      5384
      5383      5382      5385      5384      5382      5385      5380      5386      5387
      5380      5386      5388      5380      5386      5389      5387      5386      5388
      5387      5386      5389      5388      5386      5389      5386      5389      5390
      5386      5389      5391      5386      5389      5392      5390      5389      5391
      5390      5389      5392      5391      5389      5392      5389      5392      5393
      5389      5392      5394      5389      5392      5395      5393      5392      5394
      5393      5392      5395      5394      5392      5395      5392      5395      5396
      5392      5395      5397      5392      5395      5401      5396      5395      5397
      5396      5395      5401      5397      5395      5401      5395      5397      5398
      5395      5397      5399      5395      5397      5400      5398      5397      5399
      5398      5397      5400      5399      5397      5400      5395      5401      5402
      5395      5401      5403      5395      5401      5404      5402      5401      5403
      5402      5401      5404      5403      5401      5404       133       132       137
       133       132       141       133       132       145       137       132       141
       137       132       145       141       132       145       132       133       134
       132       133       135       132       133       136       134       133       135
       134       133       136       135       133       136       132       137       138
       132       137       139       132       137       140       138       137       139
       138       137       140       139       137       140       132       141       142
       132       141       143       132       141       144       142       141       143
       142       141       144       143       141       144       132       145       146
       132       145       147       132       145       148       146       145       147
       146       145       148       147       145       148       145       148       149
       145       148       150       145       148       155       149       148       150
       149       148       155       150       148       155       152       151       153
       152       151       154       152       151       155       153       151       154
       153       151       155       154       151       155       151       154       156
       148       155       151       154       156       157       154       156       158
       154       156       161       157       156       158       157       156       161
       158       156       161       160       159       161       160       159       211
       161       159       211       156       161       159       156       161       162
       156       161       163       159       161       162       159       161       163
       162       161       163       161       163       164       161       163       165
       161       163       167       164       163       165       164       163       167
       165       163       167       163       165       166       163       167       168
       163       167       169       168       167       169       167       169       170
       167       169       171       170       169       171       169       171       172
       169       171       173       169       171       174       172       171       173
       172       171       174       173       171       174       171       174       175
       171       174       176       171       174       177       175       174       176
       175       174       177       176       174       177       174       177       178
       174       177       179       174       177       180       178       177       179
       178       177       180       179       177       180       177       180       181
       177       180       182       177       180       183       181       180       182
       181       180       183       182       180       183       180       183       184
       180       183       185       180       183       186       184       183       185
       184       183       186       185       183       186       183       186       187
       183       186       188       183       186       189       187       186       188
       187       186       189       188       186       189       186       189       190
       186       189       191       186       189       192       190       189       191
       190       189       192       191       189       192       189       192       193
       189       192       194       189       192       195       193       192       194
       193       192       195       194       192       195       192       195       196
       192       195       197       192       195       198       196       195       197
       196       195       198       197       195       198       195       198       199
       195       198       200       195       198       201       199       198       200
       199       198       201       200       198       201       198       201       202
       198       201       203       198       201       204       202       201       203
       202       201       204       203       201       204       201       204       205
       201       204       206       201       204       207       205       204       206
       205       204       207       206       204       207       204       207       208
       204       207       209       204       207       210       208       207       209
       208       207       210       209       207       210       159       211       212
       159       211       213       212       211       213       211       213       214
       211       213       215       211       213       216       214       213       215
       214       213       216       215       213       216       213       216       217
       213       216       218       213       216       219       217       216       218
       217       216       219       218       216       219       216       219       220
       216       219       221       216       219       222       220       219       221
       220       219       222       221       219       222       219       222       223
       219       222       224       219       222       225       223       222       224
       223       222       225       224       222       225       222       225       226
       222       225       227       222       225       228       226       225       227
       226       225       228       227       225       228       225       228       229
       225       228       230       225       228       231       229       228       230
       229       228       231       230       228       231       228       231       232
       228       231       233       228       231       234       232       231       233
       232       231       234       233       231       234       231       234       235
       231       234       236       235       234       236       234       236       237
       234       236       238       237       236       238       236       238       239
       236       238       240       236       238       241       239       238       240
       239       238       241       240       238       241       238       241       242
       238       241       243       238       241       244       242       241       243
       242       241       244       243       241       244       241       244       245
       241       244       246       241       244       247       245       244       246
       245       244       247       246       244       247       244       247       248
       244       247       249       244       247       250       248       247       249
       248       247       250       249       247       250       247       250       251
       247       250       252       247       250       253       251       250       252
       251       250       253       252       250       253       250       253       254
       250       253       255       250       253       256       254       253       255
       254       253       256       255       253       256       253       256       257
       253       256       258       253       256       259       257       256       258
       257       256       259       258       256       259       256       259       260
       256       259       261       256       259       262       260       259       261
       260       259       262       261       259       262      5406      5405      5407
      5406      5405      5409      5406      5405      5451      5407      5405      5409
      5407      5405      5451      5409      5405      5451      5405      5407      5408
      5405      5409      5410      5405      5409      5411      5405      5409      5412
      5410      5409      5411      5410      5409      5412      5411      5409      5412
      5409      5412      5413      5409      5412      5443      5413      5412      5443
      5412      5413      5414      5412      5413      5415      5414      5413      5415
      5413      5415      5416      5413      5415      5417      5413      5415      5418
      5416      5415      5417      5416      5415      5418      5417      5415      5418
      5415      5418      5419      5415      5418      5420      5415      5418      5441
      5419      5418      5420      5419      5418      5441      5420      5418      5441
      5418      5420      5421      5418      5420      5422      5418      5420      5430
      5421      5420      5422      5421      5420      5430      5422      5420      5430
      5420      5422      5423      5420      5422      5424      5420      5422      5425
      5423      5422      5424      5423      5422      5425      5424      5422      5425
      5422      5425      5426      5422      5425      5427      5422      5425      5428
      5426      5425      5427      5426      5425      5428      5427      5425      5428
      5425      5428      5429      5425      5428      5430      5425      5428      5454
      5429      5428      5430      5429      5428      5454      5430      5428      5454
      5420      5430      5428      5420      5430      5431      5420      5430      5435
      5428      5430      5431      5428      5430      5435      5431      5430      5435
      5430      5431      5432      5430      5431      5433      5430      5431      5434
      5432      5431      5433      5432      5431      5434      5433      5431      5434
      5430      5435      5436      5430      5435      5437      5430      5435      5438
      5436      5435      5437      5436      5435      5438      5437      5435      5438
      5435      5438      5439      5435      5438      5440      5435      5438      5441
      5439      5438      5440      5439      5438      5441      5440      5438      5441
      5418      5441      5438      5418      5441      5442      5418      5441      5443
      5438      5441      5442      5438      5441      5443      5442      5441      5443
      5412      5443      5441      5412      5443      5444      5412      5443      5448
      5441      5443      5444      5441      5443      5448      5444      5443      5448
      5443      5444      5445      5443      5444      5446      5443      5444      5447
      5445      5444      5446      5445      5444      5447      5446      5444      5447
      5443      5448      5449      5443      5448      5450      5443      5448      5451
      5449      5448      5450      5449      5448      5451      5450      5448      5451
      5405      5451      5448      5405      5451      5452      5405      5451      5453
      5448      5451      5452      5448      5451      5453      5452      5451      5453
      5428      5454      5455      5428      5454      5456      5428      5454      5460
      5455      5454      5456      5455      5454      5460      5456      5454      5460
      5454      5456      5457      5454      5456      5458      5454      5456      5459
      5457      5456      5458      5457      5456      5459      5458      5456      5459
      5454      5460      5461      5454      5460      5462      5454      5460      5463
      5461      5460      5462      5461      5460      5463      5462      5460      5463
      5460      5463      5464      5460      5463      5465      5460      5463      5466
      5464      5463      5465      5464      5463      5466      5465      5463      5466
      5463      5466      5467      5463      5466      5468      5463      5466      5469
      5467      5466      5468      5467      5466      5469      5468      5466      5469
      5466      5469      5470      5466      5469      5471      5466      5469      5475
      5470      5469      5471      5470      5469      5475      5471      5469      5475
      5469      5471      5472      5469      5471      5473      5469      5471      5474
      5472      5471      5473      5472      5471      5474      5473      5471      5474
      5469      5475      5476      5469      5475      5477      5469      5475      5478
      5476      5475      5477      5476      5475      5478      5477      5475      5478
       264       263       268       264       263       272       264       263       276
       268       263       272       268       263       276       272       263       276
       263       264       265       263       264       266       263       264       267
       265       264       266       265       264       267       266       264       267
       263       268       269       263       268       270       263       268       271
       269       268       270       269       268       271       270       268       271
       263       272       273       263       272       274       263       272       275
       273       272       274       273       272       275       274       272       275
       263       276       277       263       276       278       263       276       279
       277       276       278       277       276       279       278       276       279
       276       279       280       276       279       281       276       279       286
       280       279       281       280       279       286       281       279       286
       283       282       284       283       282       285       283       282       286
       284       282       285       284       282       286       285       282       286
       282       285       287       279       286       282       285       287       288
       285       287       289       285       287       292       288       287       289
       288       287       292       289       287       292       291       290       292
       291       290       342       292       290       342       287       292       290
       287       292       293       287       292       294       290       292       293
       290       292       294       293       292       294       292       294       295
       292       294       296       292       294       298       295       294       296
       295       294       298       296       294       298       294       296       297
       294       298       299       294       298       300       299       298       300
       298       300       301       298       300       302       301       300       302
       300       302       303       300       302       304       300       302       305
       303       302       304       303       302       305       304       302       305
       302       305       306       302       305       307       302       305       308
       306       305       307       306       305       308       307       305       308
       305       308       309       305       308       310       305       308       311
       309       308       310       309       308       311       310       308       311
       308       311       312       308       311       313       308       311       314
       312       311       313       312       311       314       313       311       314
       311       314       315       311       314       316       311       314       317
       315       314       316       315       314       317       316       314       317
       314       317       318       314       317       319       314       317       320
       318       317       319       318       317       320       319       317       320
       317       320       321       317       320       322       317       320       323
       321       320       322       321       320       323       322       320       323
       320       323       324       320       323       325       320       323       326
       324       323       325       324       323       326       325       323       326
       323       326       327       323       326       328       323       326       329
       327       326       328       327       326       329       328       326       329
       326       329       330       326       329       331       326       329       332
       330       329       331       330       329       332       331       329       332
       329       332       333       329       332       334       329       332       335
       333       332       334       333       332       335       334       332       335
       332       335       336       332       335       337       332       335       338
       336       335       337       336       335       338       337       335       338
       335       338       339       335       338       340       335       338       341
       339       338       340       339       338       341       340       338       341
       290       342       343       290       342       344       343       342       344
       342       344       345       342       344       346       342       344       347
       345       344       346       345       344       347       346       344       347
       344       347       348       344       347       349       344       347       350
       348       347       349       348       347       350       349       347       350
       347       350       351       347       350       352       347       350       353
       351       350       352       351       350       353       352       350       353
       350       353       354       350       353       355       350       353       356
       354       353       355       354       353       356       355       353       356
       353       356       357       353       356       358       353       356       359
       357       356       358       357       356       359       358       356       359
       356       359       360       356       359       361       356       359       362
       360       359       361       360       359       362       361       359       362
       359       362       363       359       362       364       359       362       365
       363       362       364       363       362       365       364       362       365
       362       365       366       362       365       367       366       365       367
       365       367       368       365       367       369       368       367       369
       367       369       370       367       369       371       367       369       372
       370       369       371       370       369       372       371       369       372
       369       372       373       369       372       374       369       372       375
       373       372       374       373       372       375       374       372       375
       372       375       376       372       375       377       372       375       378
       376       375       377       376       375       378       377       375       378
       375       378       379       375       378       380       375       378       381
       379       378       380       379       378       381       380       378       381
       378       381       382       378       381       383       378       381       384
       382       381       383       382       381       384       383       381       384
       381       384       385       381       384       386       381       384       387
       385       384       386       385       384       387       386       384       387
       384       387       388       384       387       389       384       387       390
       388       387       389       388       387       390       389       387       390
       387       390       391       387       390       392       387       390       393
       391       390       392       391       390       393       392       390       393
      5480      5479      5481      5480      5479      5483      5480      5479      5525
      5481      5479      5483      5481      5479      5525      5483      5479      5525
      5479      5481      5482      5479      5483      5484      5479      5483      5485
      5479      5483      5486      5484      5483      5485      5484      5483      5486
      5485      5483      5486      5483      5486      5487      5483      5486      5517
      5487      5486      5517      5486      5487      5488      5486      5487      5489
      5488      5487      5489      5487      5489      5490      5487      5489      5491
      5487      5489      5492      5490      5489      5491      5490      5489      5492
      5491      5489      5492      5489      5492      5493      5489      5492      5494
      5489      5492      5515      5493      5492      5494      5493      5492      5515
      5494      5492      5515      5492      5494      5495      5492      5494      5496
      5492      5494      5504      5495      5494      5496      5495      5494      5504
      5496      5494      5504      5494      5496      5497      5494      5496      5498
      5494      5496      5499      5497      5496      5498      5497      5496      5499
      5498      5496      5499      5496      5499      5500      5496      5499      5501
      5496      5499      5502      5500      5499      5501      5500      5499      5502
      5501      5499      5502      5499      5502      5503      5499      5502      5504
      5499      5502      5528      5503      5502      5504      5503      5502      5528
      5504      5502      5528      5494      5504      5502      5494      5504      5505
      5494      5504      5509      5502      5504      5505      5502      5504      5509
      5505      5504      5509      5504      5505      5506      5504      5505      5507
      5504      5505      5508      5506      5505      5507      5506      5505      5508
      5507      5505      5508      5504      5509      5510      5504      5509      5511
      5504      5509      5512      5510      5509      5511      5510      5509      5512
      5511      5509      5512      5509      5512      5513      5509      5512      5514
      5509      5512      5515      5513      5512      5514      5513      5512      5515
      5514      5512      5515      5492      5515      5512      5492      5515      5516
      5492      5515      5517      5512      5515      5516      5512      5515      5517
      5516      5515      5517      5486      5517      5515      5486      5517      5518
      5486      5517      5522      5515      5517      5518      5515      5517      5522
      5518      5517      5522      5517      5518      5519      5517      5518      5520
      5517      5518      5521      5519      5518      5520      5519      5518      5521
      5520      5518      5521      5517      5522      5523      5517      5522      5524
      5517      5522      5525      5523      5522      5524      5523      5522      5525
      5524      5522      5525      5479      5525      5522      5479      5525      5526
      5479      5525      5527      5522      5525      5526      5522      5525      5527
      5526      5525      5527      5502      5528      5529      5502      5528      5530
      5502      5528      5534      5529      5528      5530      5529      5528      5534
      5530      5528      5534      5528      5530      5531      5528      5530      5532
      5528      5530      5533      5531      5530      5532      5531      5530      5533
      5532      5530      5533      5528      5534      5535      5528      5534      5536
      5528      5534      5537      5535      5534      5536      5535      5534      5537
      5536      5534      5537      5534      5537      5538      5534      5537      5539
      5534      5537      5540      5538      5537      5539      5538      5537      5540
      5539      5537      5540      5537      5540      5541      5537      5540      5542
      5537      5540      5543      5541      5540      5542      5541      5540      5543
      5542      5540      5543      5540      5543      5544      5540      5543      5545
      5540      5543      5549      5544      5543      5545      5544      5543      5549
      5545      5543      5549      5543      5545      5546      5543      5545      5547
      5543      5545      5548      5546      5545      5547      5546      5545      5548
      5547      5545      5548      5543      5549      5550      5543      5549      5551
      5543      5549      5552      5550      5549      5551      5550      5549      5552
      5551      5549      5552      5554      5553      5555      5554      5553      5557
      5554      5553      5599      5555      5553      5557      5555      5553      5599
      5557      5553      5599      5553      5555      5556      5553      5557      5558
      5553      5557      5559      5553      5557      5560      5558      5557      5559
      5558      5557      5560      5559      5557      5560      5557      5560      5561
      5557      5560      5591      5561      5560      5591      5560      5561      5562
      5560      5561      5563      5562      5561      5563      5561      5563      5564
      5561      5563      5565      5561      5563      5566      5564      5563      5565
      5564      5563      5566      5565      5563      5566      5563      5566      5567
      5563      5566      5568      5563      5566      5589      5567      5566      5568
      5567      5566      5589      5568      5566      5589      5566      5568      5569
      5566      5568      5570      5566      5568      5578      5569      5568      5570
      5569      5568      5578      5570      5568      5578      5568      5570      5571
      5568      5570      5572      5568      5570      5573      5571      5570      5572
      5571      5570      5573      5572      5570      5573      5570      5573      5574
      5570      5573      5575      5570      5573      5576      5574      5573      5575
      5574      5573      5576      5575      5573      5576      5573      5576      5577
      5573      5576      5578      5573      5576      5602      5577      5576      5578
      5577      5576      5602      5578      5576      5602      5568      5578      5576
      5568      5578      5579      5568      5578      5583      5576      5578      5579
      5576      5578      5583      5579      5578      5583      5578      5579      5580
      5578      5579      5581      5578      5579      5582      5580      5579      5581
      5580      5579      5582      5581      5579      5582      5578      5583      5584
      5578      5583      5585      5578      5583      5586      5584      5583      5585
      5584      5583      5586      5585      5583      5586      5583      5586      5587
      5583      5586      5588      5583      5586      5589      5587      5586      5588
      5587      5586      5589      5588      5586      5589      5566      5589      5586
      5566      5589      5590      5566      5589      5591      5586      5589      5590
      5586      5589      5591      5590      5589      5591      5560      5591      5589
      5560      5591      5592      5560      5591      5596      5589      5591      5592
      5589      5591      5596      5592      5591      5596      5591      5592      5593
      5591      5592      5594      5591      5592      5595      5593      5592      5594
      5593      5592      5595      5594      5592      5595      5591      5596      5597
      5591      5596      5598      5591      5596      5599      5597      5596      5598
      5597      5596      5599      5598      5596      5599      5553      5599      5596
      5553      5599      5600      5553      5599      5601      5596      5599      5600
      5596      5599      5601      5600      5599      5601      5576      5602      5603
      5576      5602      5604      5576      5602      5608      5603      5602      5604
      5603      5602      5608      5604      5602      5608      5602      5604      5605
      5602      5604      5606      5602      5604      5607      5605      5604      5606
      5605      5604      5607      5606      5604      5607      5602      5608      5609
      5602      5608      5610      5602      5608      5611      5609      5608      5610
      5609      5608      5611      5610      5608      5611      5608      5611      5612
      5608      5611      5613      5608      5611      5614      5612      5611      5613
      5612      5611      5614      5613      5611      5614      5611      5614      5615
      5611      5614      5616      5611      5614      5617      5615      5614      5616
      5615      5614      5617      5616      5614      5617      5614      5617      5618
      5614      5617      5619      5614      5617      5623      5618      5617      5619
      5618      5617      5623      5619      5617      5623      5617      5619      5620
      5617      5619      5621      5617      5619      5622      5620      5619      5621
      5620      5619      5622      5621      5619      5622      5617      5623      5624
      5617      5623      5625      5617      5623      5626      5624      5623      5625
      5624      5623      5626      5625      5623      5626      3686      3685      3687
      3686      3685      3688      3686      3685      3689      3687      3685      3688
      3687      3685      3689      3688      3685      3689      3685      3689      3690
      3685      3689      3691      3685      3689      3692      3690      3689      3691
      3690      3689      3692      3691      3689      3692      3689      3692      3693
      3689      3692      3694      3689      3692      3698      3693      3692      3694
      3693      3692      3698      3694      3692      3698      3696      3695      3697
      3696      3695      3698      3696      3695      3699      3697      3695      3698
      3697      3695      3699      3698      3695      3699      3692      3698      3695
      3695      3699      3700      3699      3700      3701      3699      3700      3702
      3699      3700      3703      3701      3700      3702      3701      3700      3703
      3702      3700      3703      3700      3703      3704      3700      3703      3705
      3700      3703      3711      3704      3703      3705      3704      3703      3711
      3705      3703      3711      3703      3705      3706      3705      3706      3707
      3705      3706      3708      3707      3706      3708      3706      3708      3709
      3706      3708      3710      3706      3708      3720      3709      3708      3710
      3709      3708      3720      3710      3708      3720      3703      3711      3712
      3703      3711      3713      3703      3711      3714      3712      3711      3713
      3712      3711      3714      3713      3711      3714      3711      3714      3715
      3714      3715      3716      3714      3715      3717      3716      3715      3717
      3715      3717      3718      3715      3717      3719      3715      3717      3767
      3718      3717      3719      3718      3717      3767      3719      3717      3767
      3708      3720      3721      3708      3720      3722      3708      3720      3723
      3721      3720      3722      3721      3720      3723      3722      3720      3723
      3720      3723      3724      3720      3723      3725      3720      3723      3726
      3724      3723      3725      3724      3723      3726      3725      3723      3726
      3723      3726      3727      3723      3726      3728      3727      3726      3728
      3726      3728      3729      3726      3728      3730      3729      3728      3730
      3728      3730      3731      3728      3730      3732      3728      3730      3733
      3731      3730      3732      3731      3730      3733      3732      3730      3733
      3730      3733      3734      3730      3733      3735      3734      3733      3735
      3733      3735      3736      3733      3735      3737      3736      3735      3737
      3735      3737      3738      3735      3737      3739      3735      3737      3740
      3738      3737      3739      3738      3737      3740      3739      3737      3740
      3737      3740      3741      3737      3740      3742      3741      3740      3742
      3740      3742      3743      3740      3742      3744      3743      3742      3744
      3742      3744      3745      3742      3744      3746      3742      3744      3747
      3745      3744      3746      3745      3744      3747      3746      3744      3747
      3744      3747      3748      3744      3747      3749      3748      3747      3749
      3747      3749      3750      3747      3749      3751      3750      3749      3751
      3749      3751      3752      3749      3751      3753      3749      3751      3754
      3752      3751      3753      3752      3751      3754      3753      3751      3754
      3751      3754      3755      3751      3754      3756      3751      3754      3757
      3755      3754      3756      3755      3754      3757      3756      3754      3757
      3754      3757      3758      3754      3757      3759      3754      3757      3760
      3758      3757      3759      3758      3757      3760      3759      3757      3760
      3757      3760      3761      3757      3760      3762      3757      3760      3763
      3761      3760      3762      3761      3760      3763      3762      3760      3763
      3760      3763      3764      3760      3763      3765      3760      3763      3766
      3764      3763      3765      3764      3763      3766      3765      3763      3766
      3717      3767      3768      3717      3767      3769      3717      3767      3770
      3768      3767      3769      3768      3767      3770      3769      3767      3770
      3767      3770      3771      3767      3770      3772      3767      3770      3773
      3771      3770      3772      3771      3770      3773      3772      3770      3773
      3770      3773      3774      3770      3773      3775      3770      3773      3776
      3774      3773      3775      3774      3773      3776      3775      3773      3776
      3773      3776      3777      3773      3776      3778      3773      3776      3779
      3777      3776      3778      3777      3776      3779      3778      3776      3779
      3776      3779      3780      3776      3779      3781      3776      3779      3782
      3780      3779      3781      3780      3779      3782      3781      3779      3782
      3779      3782      3783      3779      3782      3784      3779      3782      3785
      3783      3782      3784      3783      3782      3785      3784      3782      3785
      3782      3785      3786      3782      3785      3787      3782      3785      3788
      3786      3785      3787      3786      3785      3788      3787      3785      3788
      3785      3788      3789      3785      3788      3790      3785      3788      3791
      3789      3788      3790      3789      3788      3791      3790      3788      3791
      3788      3791      3792      3788      3791      3793      3788      3791      3794
      3792      3791      3793      3792      3791      3794      3793      3791      3794
      3791      3794      3795      3791      3794      3796      3791      3794      3797
      3795      3794      3796      3795      3794      3797      3796      3794      3797
      3794      3797      3798      3794      3797      3799      3794      3797      3800
      3798      3797      3799      3798      3797      3800      3799      3797      3800
      3797      3800      3801      3797      3800      3802      3797      3800      3803
      3801      3800      3802      3801      3800      3803      3802      3800      3803
      3800      3803      3804      3800      3803      3805      3800      3803      3806
      3804      3803      3805      3804      3803      3806      3805      3803      3806
      3803      3806      3807      3803      3806      3808      3803      3806      3809
      3807      3806      3808      3807      3806      3809      3808      3806      3809
      3806      3809      3810      3806      3809      3811      3806      3809      3812
      3810      3809      3811      3810      3809      3812      3811      3809      3812
      3809      3812      3813      3809      3812      3814      3809      3812      3815
      3813      3812      3814      3813      3812      3815      3814      3812      3815
      5628      5627      5629      5628      5627      5631      5628      5627      5673
      5629      5627      5631      5629      5627      5673      5631      5627      5673
      5627      5629      5630      5627      5631      5632      5627      5631      5633
      5627      5631      5634      5632      5631      5633      5632      5631      5634
      5633      5631      5634      5631      5634      5635      5631      5634      5665
      5635      5634      5665      5634      5635      5636      5634      5635      5637
      5636      5635      5637      5635      5637      5638      5635      5637      5639
      5635      5637      5640      5638      5637      5639      5638      5637      5640
      5639      5637      5640      5637      5640      5641      5637      5640      5642
      5637      5640      5663      5641      5640      5642      5641      5640      5663
      5642      5640      5663      5640      5642      5643      5640      5642      5644
      5640      5642      5652      5643      5642      5644      5643      5642      5652
      5644      5642      5652      5642      5644      5645      5642      5644      5646
      5642      5644      5647      5645      5644      5646      5645      5644      5647
      5646      5644      5647      5644      5647      5648      5644      5647      5649
      5644      5647      5650      5648      5647      5649      5648      5647      5650
      5649      5647      5650      5647      5650      5651      5647      5650      5652
      5647      5650      5676      5651      5650      5652      5651      5650      5676
      5652      5650      5676      5642      5652      5650      5642      5652      5653
      5642      5652      5657      5650      5652      5653      5650      5652      5657
      5653      5652      5657      5652      5653      5654      5652      5653      5655
      5652      5653      5656      5654      5653      5655      5654      5653      5656
      5655      5653      5656      5652      5657      5658      5652      5657      5659
      5652      5657      5660      5658      5657      5659      5658      5657      5660
      5659      5657      5660      5657      5660      5661      5657      5660      5662
      5657      5660      5663      5661      5660      5662      5661      5660      5663
      5662      5660      5663      5640      5663      5660      5640      5663      5664
      5640      5663      5665      5660      5663      5664      5660      5663      5665
      5664      5663      5665      5634      5665      5663      5634      5665      5666
      5634      5665      5670      5663      5665      5666      5663      5665      5670
      5666      5665      5670      5665      5666      5667      5665      5666      5668
      5665      5666      5669      5667      5666      5668      5667      5666      5669
      5668      5666      5669      5665      5670      5671      5665      5670      5672
      5665      5670      5673      5671      5670      5672      5671      5670      5673
      5672      5670      5673      5627      5673      5670      5627      5673      5674
      5627      5673      5675      5670      5673      5674      5670      5673      5675
      5674      5673      5675      5650      5676      5677      5650      5676      5678
      5650      5676      5682      5677      5676      5678      5677      5676      5682
      5678      5676      5682      5676      5678      5679      5676      5678      5680
      5676      5678      5681      5679      5678      5680      5679      5678      5681
      5680      5678      5681      5676      5682      5683      5676      5682      5684
      5676      5682      5685      5683      5682      5684      5683      5682      5685
      5684      5682      5685      5682      5685      5686      5682      5685      5687
      5682      5685      5688      5686      5685      5687      5686      5685      5688
      5687      5685      5688      5685      5688      5689      5685      5688      5690
      5685      5688      5691      5689      5688      5690      5689      5688      5691
      5690      5688      5691      5688      5691      5692      5688      5691      5693
      5688      5691      5697      5692      5691      5693      5692      5691      5697
      5693      5691      5697      5691      5693      5694      5691      5693      5695
      5691      5693      5696      5694      5693      5695      5694      5693      5696
      5695      5693      5696      5691      5697      5698      5691      5697      5699
      5691      5697      5700      5698      5697      5699      5698      5697      5700
      5699      5697      5700      7330      7329      7334      7330      7329      7338
      7330      7329      7342      7334      7329      7338      7334      7329      7342
      7338      7329      7342      7329      7330      7331      7329      7330      7332
      7329      7330      7333      7331      7330      7332      7331      7330      7333
      7332      7330      7333      7329      7334      7335      7329      7334      7336
      7329      7334      7337      7335      7334      7336      7335      7334      7337
      7336      7334      7337      7329      7338      7339      7329      7338      7340
      7329      7338      7341      7339      7338      7340      7339      7338      7341
      7340      7338      7341      7329      7342      7343      7329      7342      7344
      7329      7342      7345      7343      7342      7344      7343      7342      7345
      7344      7342      7345      7342      7345      7346      7342      7345      7347
      7342      7345      7351      7346      7345      7347      7346      7345      7351
      7347      7345      7351      7349      7348      7350      7349      7348      7351
      7349      7348      7352      7350      7348      7351      7350      7348      7352
      7351      7348      7352      7345      7351      7348      7348      7352      7353
      7352      7353      7354      7352      7353      7355      7352      7353      7356
      7354      7353      7355      7354      7353      7356      7355      7353      7356
      7353      7356      7357      7353      7356      7358      7353      7356      7364
      7357      7356      7358      7357      7356      7364      7358      7356      7364
      7356      7358      7359      7358      7359      7360      7358      7359      7361
      7360      7359      7361      7359      7361      7362      7359      7361      7363
      7359      7361      7373      7362      7361      7363      7362      7361      7373
      7363      7361      7373      7356      7364      7365      7356      7364      7366
      7356      7364      7367      7365      7364      7366      7365      7364      7367
      7366      7364      7367      7364      7367      7368      7367      7368      7369
      7367      7368      7370      7369      7368      7370      7368      7370      7371
      7368      7370      7372      7368      7370      7418      7371      7370      7372
      7371      7370      7418      7372      7370      7418      7361      7373      7374
      7361      7373      7375      7361      7373      7376      7374      7373      7375
      7374      7373      7376      7375      7373      7376      7373      7376      7377
      7373      7376      7378      7373      7376      7379      7377      7376      7378
      7377      7376      7379      7378      7376      7379      7376      7379      7380
      7376      7379      7381      7376      7379      7382      7380      7379      7381
      7380      7379      7382      7381      7379      7382      7379      7382      7383
      7379      7382      7384      7379      7382      7385      7383      7382      7384
      7383      7382      7385      7384      7382      7385      7382      7385      7386
      7382      7385      7387      7382      7385      7388      7386      7385      7387
      7386      7385      7388      7387      7385      7388      7385      7388      7389
      7385      7388      7390      7385      7388      7391      7389      7388      7390
      7389      7388      7391      7390      7388      7391      7388      7391      7392
      7388      7391      7393      7392      7391      7393      7391      7393      7394
      7391      7393      7395      7394      7393      7395      7393      7395      7396
      7393      7395      7397      7393      7395      7398      7396      7395      7397
      7396      7395      7398      7397      7395      7398      7395      7398      7399
      7395      7398      7400      7399      7398      7400      7398      7400      7401
      7398      7400      7402      7401      7400      7402      7400      7402      7403
      7400      7402      7404      7400      7402      7405      7403      7402      7404
      7403      7402      7405      7404      7402      7405      7402      7405      7406
      7402      7405      7407      7402      7405      7408      7406      7405      7407
      7406      7405      7408      7407      7405      7408      7405      7408      7409
      7405      7408      7410      7405      7408      7411      7409      7408      7410
      7409      7408      7411      7410      7408      7411      7408      7411      7412
      7408      7411      7413      7408      7411      7414      7412      7411      7413
      7412      7411      7414      7413      7411      7414      7411      7414      7415
      7411      7414      7416      7411      7414      7417      7415      7414      7416
      7415      7414      7417      7416      7414      7417      7370      7418      7419
      7370      7418      7420      7370      7418      7421      7419      7418      7420
      7419      7418      7421      7420      7418      7421      7418      7421      7422
      7418      7421      7423      7418      7421      7424      7422      7421      7423
      7422      7421      7424      7423      7421      7424      7421      7424      7425
      7421      7424      7426      7421      7424      7427      7425      7424      7426
      7425      7424      7427      7426      7424      7427      7424      7427      7428
      7424      7427      7429      7424      7427      7430      7428      7427      7429
      7428      7427      7430      7429      7427      7430      7427      7430      7431
      7427      7430      7432      7427      7430      7433      7431      7430      7432
      7431      7430      7433      7432      7430      7433      7430      7433      7434
      7430      7433      7435      7430      7433      7436      7434      7433      7435
      7434      7433      7436      7435      7433      7436      7433      7436      7437
      7433      7436      7438      7433      7436      7439      7437      7436      7438
      7437      7436      7439      7438      7436      7439      7436      7439      7440
      7436      7439      7441      7436      7439      7442      7440      7439      7441
      7440      7439      7442      7441      7439      7442      7439      7442      7443
      7439      7442      7444      7439      7442      7445      7443      7442      7444
      7443      7442      7445      7444      7442      7445      7442      7445      7446
      7442      7445      7447      7442      7445      7448      7446      7445      7447
      7446      7445      7448      7447      7445      7448      7445      7448      7449
      7445      7448      7450      7445      7448      7451      7449      7448      7450
      7449      7448      7451      7450      7448      7451      7448      7451      7452
      7448      7451      7453      7448      7451      7454      7452      7451      7453
      7452      7451      7454      7453      7451      7454      7451      7454      7455
      7451      7454      7456      7451      7454      7457      7455      7454      7456
      7455      7454      7457      7456      7454      7457      7454      7457      7458
      7454      7457      7459      7454      7457      7460      7458      7457      7459
      7458      7457      7460      7459      7457      7460      7457      7460      7461
      7457      7460      7462      7457      7460      7463      7461      7460      7462
      7461      7460      7463      7462      7460      7463      7460      7463      7464
      7460      7463      7465      7460      7463      7466      7464      7463      7465
      7464      7463      7466      7465      7463      7466      8434      8433      8437
      8434      8433      8441      8434      8433      8445      8437      8433      8441
      8437      8433      8445      8441      8433      8445      8433      8434      8435
      8433      8434      8436      8433      8434      8449      8435      8434      8436
      8435      8434      8449      8436      8434      8449      8433      8437      8438
      8433      8437      8439      8433      8437      8440      8438      8437      8439
      8438      8437      8440      8439      8437      8440      8433      8441      8442
      8433      8441      8443      8433      8441      8444      8442      8441      8443
      8442      8441      8444      8443      8441      8444      8433      8445      8446
      8433      8445      8447      8433      8445      8448      8446      8445      8447
      8446      8445      8448      8447      8445      8448      8434      8449      8450
      8434      8449      8451      8434      8449      8455      8450      8449      8451
      8450      8449      8455      8451      8449      8455      8453      8452      8454
      8453      8452      8455      8453      8452      8456      8454      8452      8455
      8454      8452      8456      8455      8452      8456      8449      8455      8452
      8452      8456      8457      8456      8457      8458      8456      8457      8459
      8456      8457      8460      8458      8457      8459      8458      8457      8460
      8459      8457      8460      8457      8460      8461      8457      8460      8462
      8457      8460      8468      8461      8460      8462      8461      8460      8468
      8462      8460      8468      8460      8462      8463      8462      8463      8464
      8462      8463      8465      8464      8463      8465      8463      8465      8466
      8463      8465      8467      8463      8465      8477      8466      8465      8467
      8466      8465      8477      8467      8465      8477      8460      8468      8469
      8460      8468      8470      8460      8468      8471      8469      8468      8470
      8469      8468      8471      8470      8468      8471      8468      8471      8472
      8471      8472      8473      8471      8472      8474      8473      8472      8474
      8472      8474      8475      8472      8474      8476      8472      8474      8524
      8475      8474      8476      8475      8474      8524      8476      8474      8524
      8465      8477      8478      8465      8477      8479      8465      8477      8480
      8478      8477      8479      8478      8477      8480      8479      8477      8480
      8477      8480      8481      8477      8480      8482      8477      8480      8483
      8481      8480      8482      8481      8480      8483      8482      8480      8483
      8480      8483      8484      8480      8483      8485      8484      8483      8485
      8483      8485      8486      8483      8485      8487      8486      8485      8487
      8485      8487      8488      8485      8487      8489      8485      8487      8490
      8488      8487      8489      8488      8487      8490      8489      8487      8490
      8487      8490      8491      8487      8490      8492      8491      8490      8492
      8490      8492      8493      8490      8492      8494      8493      8492      8494
      8492      8494      8495      8492      8494      8496      8492      8494      8497
      8495      8494      8496      8495      8494      8497      8496      8494      8497
      8494      8497      8498      8494      8497      8499      8498      8497      8499
      8497      8499      8500      8497      8499      8501      8500      8499      8501
      8499      8501      8502      8499      8501      8503      8499      8501      8504
      8502      8501      8503      8502      8501      8504      8503      8501      8504
      8501      8504      8505      8501      8504      8506      8505      8504      8506
      8504      8506      8507      8504      8506      8508      8507      8506      8508
      8506      8508      8509      8506      8508      8510      8506      8508      8511
      8509      8508      8510      8509      8508      8511      8510      8508      8511
      8508      8511      8512      8508      8511      8513      8508      8511      8514
      8512      8511      8513      8512      8511      8514      8513      8511      8514
      8511      8514      8515      8511      8514      8516      8511      8514      8517
      8515      8514      8516      8515      8514      8517      8516      8514      8517
      8514      8517      8518      8514      8517      8519      8514      8517      8520
      8518      8517      8519      8518      8517      8520      8519      8517      8520
      8517      8520      8521      8517      8520      8522      8517      8520      8523
      8521      8520      8522      8521      8520      8523      8522      8520      8523
      8474      8524      8525      8474      8524      8526      8474      8524      8527
      8525      8524      8526      8525      8524      8527      8526      8524      8527
      8524      8527      8528      8524      8527      8529      8524      8527      8530
      8528      8527      8529      8528      8527      8530      8529      8527      8530
      8527      8530      8531      8527      8530      8532      8527      8530      8533
      8531      8530      8532      8531      8530      8533      8532      8530      8533
      8530      8533      8534      8530      8533      8535      8530      8533      8536
      8534      8533      8535      8534      8533      8536      8535      8533      8536
      8533      8536      8537      8533      8536      8538      8533      8536      8539
      8537      8536      8538      8537      8536      8539      8538      8536      8539
      8536      8539      8540      8536      8539      8541      8536      8539      8542
      8540      8539      8541      8540      8539      8542      8541      8539      8542
      8539      8542      8543      8539      8542      8544      8539      8542      8545
      8543      8542      8544      8543      8542      8545      8544      8542      8545
      8542      8545      8546      8542      8545      8547      8542      8545      8548
      8546      8545      8547      8546      8545      8548      8547      8545      8548
      8545      8548      8549      8545      8548      8550      8545      8548      8551
      8549      8548      8550      8549      8548      8551      8550      8548      8551
      8548      8551      8552      8548      8551      8553      8548      8551      8554
      8552      8551      8553      8552      8551      8554      8553      8551      8554
      8551      8554      8555      8551      8554      8556      8551      8554      8557
      8555      8554      8556      8555      8554      8557      8556      8554      8557
      8554      8557      8558      8554      8557      8559      8554      8557      8560
      8558      8557      8559      8558      8557      8560      8559      8557      8560
      8557      8560      8561      8557      8560      8562      8557      8560      8563
      8561      8560      8562      8561      8560      8563      8562      8560      8563
      8560      8563      8564      8560      8563      8565      8560      8563      8566
      8564      8563      8565      8564      8563      8566      8565      8563      8566
      8563      8566      8567      8563      8566      8568      8563      8566      8569
      8567      8566      8568      8567      8566      8569      8568      8566      8569
      8566      8569      8570      8566      8569      8571      8566      8569      8572
      8570      8569      8571      8570      8569      8572      8571      8569      8572
      8574      8573      8577      8574      8573      8581      8574      8573      8585
      8577      8573      8581      8577      8573      8585      8581      8573      8585
      8573      8574      8575      8573      8574      8576      8573      8574      8589
      8575      8574      8576      8575      8574      8589      8576      8574      8589
      8573      8577      8578      8573      8577      8579      8573      8577      8580
      8578      8577      8579      8578      8577      8580      8579      8577      8580
      8573      8581      8582      8573      8581      8583      8573      8581      8584
      8582      8581      8583      8582      8581      8584      8583      8581      8584
      8573      8585      8586      8573      8585      8587      8573      8585      8588
      8586      8585      8587      8586      8585      8588      8587      8585      8588
      8574      8589      8590      8574      8589      8591      8574      8589      8595
      8590      8589      8591      8590      8589      8595      8591      8589      8595
      8593      8592      8594      8593      8592      8595      8593      8592      8596
      8594      8592      8595      8594      8592      8596      8595      8592      8596
      8589      8595      8592      8592      8596      8597      8596      8597      8598
      8596      8597      8599      8596      8597      8600      8598      8597      8599
      8598      8597      8600      8599      8597      8600      8597      8600      8601
      8597      8600      8602      8597      8600      8608      8601      8600      8602
      8601      8600      8608      8602      8600      8608      8600      8602      8603
      8602      8603      8604      8602      8603      8605      8604      8603      8605
      8603      8605      8606      8603      8605      8607      8603      8605      8617
      8606      8605      8607      8606      8605      8617      8607      8605      8617
      8600      8608      8609      8600      8608      8610      8600      8608      8611
      8609      8608      8610      8609      8608      8611      8610      8608      8611
      8608      8611      8612      8611      8612      8613      8611      8612      8614
      8613      8612      8614      8612      8614      8615      8612      8614      8616
      8612      8614      8664      8615      8614      8616      8615      8614      8664
      8616      8614      8664      8605      8617      8618      8605      8617      8619
      8605      8617      8620      8618      8617      8619      8618      8617      8620
      8619      8617      8620      8617      8620      8621      8617      8620      8622
      8617      8620      8623      8621      8620      8622      8621      8620      8623
      8622      8620      8623      8620      8623      8624      8620      8623      8625
      8624      8623      8625      8623      8625      8626      8623      8625      8627
      8626      8625      8627      8625      8627      8628      8625      8627      8629
      8625      8627      8630      8628      8627      8629      8628      8627      8630
      8629      8627      8630      8627      8630      8631      8627      8630      8632
      8631      8630      8632      8630      8632      8633      8630      8632      8634
      8633      8632      8634      8632      8634      8635      8632      8634      8636
      8632      8634      8637      8635      8634      8636      8635      8634      8637
      8636      8634      8637      8634      8637      8638      8634      8637      8639
      8638      8637      8639      8637      8639      8640      8637      8639      8641
      8640      8639      8641      8639      8641      8642      8639      8641      8643
      8639      8641      8644      8642      8641      8643      8642      8641      8644
      8643      8641      8644      8641      8644      8645      8641      8644      8646
      8645      8644      8646      8644      8646      8647      8644      8646      8648
      8647      8646      8648      8646      8648      8649      8646      8648      8650
      8646      8648      8651      8649      8648      8650      8649      8648      8651
      8650      8648      8651      8648      8651      8652      8648      8651      8653
      8648      8651      8654      8652      8651      8653      8652      8651      8654
      8653      8651      8654      8651      8654      8655      8651      8654      8656
      8651      8654      8657      8655      8654      8656      8655      8654      8657
      8656      8654      8657      8654      8657      8658      8654      8657      8659
      8654      8657      8660      8658      8657      8659      8658      8657      8660
      8659      8657      8660      8657      8660      8661      8657      8660      8662
      8657      8660      8663      8661      8660      8662      8661      8660      8663
      8662      8660      8663      8614      8664      8665      8614      8664      8666
      8614      8664      8667      8665      8664      8666      8665      8664      8667
      8666      8664      8667      8664      8667      8668      8664      8667      8669
      8664      8667      8670      8668      8667      8669      8668      8667      8670
      8669      8667      8670      8667      8670      8671      8667      8670      8672
      8667      8670      8673      8671      8670      8672      8671      8670      8673
      8672      8670      8673      8670      8673      8674      8670      8673      8675
      8670      8673      8676      8674      8673      8675      8674      8673      8676
      8675      8673      8676      8673      8676      8677      8673      8676      8678
      8673      8676      8679      8677      8676      8678      8677      8676      8679
      8678      8676      8679      8676      8679      8680      8676      8679      8681
      8676      8679      8682      8680      8679      8681      8680      8679      8682
      8681      8679      8682      8679      8682      8683      8679      8682      8684
      8679      8682      8685      8683      8682      8684      8683      8682      8685
      8684      8682      8685      8682      8685      8686      8682      8685      8687
      8682      8685      8688      8686      8685      8687      8686      8685      8688
      8687      8685      8688      8685      8688      8689      8685      8688      8690
      8685      8688      8691      8689      8688      8690      8689      8688      8691
      8690      8688      8691      8688      8691      8692      8688      8691      8693
      8688      8691      8694      8692      8691      8693      8692      8691      8694
      8693      8691      8694      8691      8694      8695      8691      8694      8696
      8691      8694      8697      8695      8694      8696      8695      8694      8697
      8696      8694      8697      8694      8697      8698      8694      8697      8699
      8694      8697      8700      8698      8697      8699      8698      8697      8700
      8699      8697      8700      8697      8700      8701      8697      8700      8702
      8697      8700      8703      8701      8700      8702      8701      8700      8703
      8702      8700      8703      8700      8703      8704      8700      8703      8705
      8700      8703      8706      8704      8703      8705      8704      8703      8706
      8705      8703      8706      8703      8706      8707      8703      8706      8708
      8703      8706      8709      8707      8706      8708      8707      8706      8709
      8708      8706      8709      8706      8709      8710      8706      8709      8711
      8706      8709      8712      8710      8709      8711      8710      8709      8712
      8711      8709      8712      7468      7467      7472      7468      7467      7476
      7468      7467      7480      7472      7467      7476      7472      7467      7480
      7476      7467      7480      7467      7468      7469      7467      7468      7470
      7467      7468      7471      7469      7468      7470      7469      7468      7471
      7470      7468      7471      7467      7472      7473      7467      7472      7474
      7467      7472      7475      7473      7472      7474      7473      7472      7475
      7474      7472      7475      7467      7476      7477      7467      7476      7478
      7467      7476      7479      7477      7476      7478      7477      7476      7479
      7478      7476      7479      7467      7480      7481      7467      7480      7482
      7467      7480      7483      7481      7480      7482      7481      7480      7483
      7482      7480      7483      7480      7483      7484      7480      7483      7485
      7480      7483      7489      7484      7483      7485      7484      7483      7489
      7485      7483      7489      7487      7486      7488      7487      7486      7489
      7487      7486      7490      7488      7486      7489      7488      7486      7490
      7489      7486      7490      7483      7489      7486      7486      7490      7491
      7490      7491      7492      7490      7491      7493      7490      7491      7494
      7492      7491      7493      7492      7491      7494      7493      7491      7494
      7491      7494      7495      7491      7494      7496      7491      7494      7502
      7495      7494      7496      7495      7494      7502      7496      7494      7502
      7494      7496      7497      7496      7497      7498      7496      7497      7499
      7498      7497      7499      7497      7499      7500      7497      7499      7501
      7497      7499      7511      7500      7499      7501      7500      7499      7511
      7501      7499      7511      7494      7502      7503      7494      7502      7504
      7494      7502      7505      7503      7502      7504      7503      7502      7505
      7504      7502      7505      7502      7505      7506      7505      7506      7507
      7505      7506      7508      7507      7506      7508      7506      7508      7509
      7506      7508      7510      7506      7508      7556      7509      7508      7510
      7509      7508      7556      7510      7508      7556      7499      7511      7512
      7499      7511      7513      7499      7511      7514      7512      7511      7513
      7512      7511      7514      7513      7511      7514      7511      7514      7515
      7511      7514      7516      7511      7514      7517      7515      7514      7516
      7515      7514      7517      7516      7514      7517      7514      7517      7518
      7514      7517      7519      7514      7517      7520      7518      7517      7519
      7518      7517      7520      7519      7517      7520      7517      7520      7521
      7517      7520      7522      7517      7520      7523      7521      7520      7522
      7521      7520      7523      7522      7520      7523      7520      7523      7524
      7520      7523      7525      7520      7523      7526      7524      7523      7525
      7524      7523      7526      7525      7523      7526      7523      7526      7527
      7523      7526      7528      7523      7526      7529      7527      7526      7528
      7527      7526      7529      7528      7526      7529      7526      7529      7530
      7526      7529      7531      7530      7529      7531      7529      7531      7532
      7529      7531      7533      7532      7531      7533      7531      7533      7534
      7531      7533      7535      7531      7533      7536      7534      7533      7535
      7534      7533      7536      7535      7533      7536      7533      7536      7537
      7533      7536      7538      7537      7536      7538      7536      7538      7539
      7536      7538      7540      7539      7538      7540      7538      7540      7541
      7538      7540      7542      7538      7540      7543      7541      7540      7542
      7541      7540      7543      7542      7540      7543      7540      7543      7544
      7540      7543      7545      7540      7543      7546      7544      7543      7545
      7544      7543      7546      7545      7543      7546      7543      7546      7547
      7543      7546      7548      7543      7546      7549      7547      7546      7548
      7547      7546      7549      7548      7546      7549      7546      7549      7550
      7546      7549      7551      7546      7549      7552      7550      7549      7551
      7550      7549      7552      7551      7549      7552      7549      7552      7553
      7549      7552      7554      7549      7552      7555      7553      7552      7554
      7553      7552      7555      7554      7552      7555      7508      7556      7557
      7508      7556      7558      7508      7556      7559      7557      7556      7558
      7557      7556      7559      7558      7556      7559      7556      7559      7560
      7556      7559      7561      7556      7559      7562      7560      7559      7561
      7560      7559      7562      7561      7559      7562      7559      7562      7563
      7559      7562      7564      7559      7562      7565      7563      7562      7564
      7563      7562      7565      7564      7562      7565      7562      7565      7566
      7562      7565      7567      7562      7565      7568      7566      7565      7567
      7566      7565      7568      7567      7565      7568      7565      7568      7569
      7565      7568      7570      7565      7568      7571      7569      7568      7570
      7569      7568      7571      7570      7568      7571      7568      7571      7572
      7568      7571      7573      7568      7571      7574      7572      7571      7573
      7572      7571      7574      7573      7571      7574      7571      7574      7575
      7571      7574      7576      7571      7574      7577      7575      7574      7576
      7575      7574      7577      7576      7574      7577      7574      7577      7578
      7574      7577      7579      7574      7577      7580      7578      7577      7579
      7578      7577      7580      7579      7577      7580      7577      7580      7581
      7577      7580      7582      7577      7580      7583      7581      7580      7582
      7581      7580      7583      7582      7580      7583      7580      7583      7584
      7580      7583      7585      7580      7583      7586      7584      7583      7585
      7584      7583      7586      7585      7583      7586      7583      7586      7587
      7583      7586      7588      7583      7586      7589      7587      7586      7588
      7587      7586      7589      7588      7586      7589      7586      7589      7590
      7586      7589      7591      7586      7589      7592      7590      7589      7591
      7590      7589      7592      7591      7589      7592      7589      7592      7593
      7589      7592      7594      7589      7592      7595      7593      7592      7594
      7593      7592      7595      7594      7592      7595      7592      7595      7596
      7592      7595      7597      7592      7595      7598      7596      7595      7597
      7596      7595      7598      7597      7595      7598      7595      7598      7599
      7595      7598      7600      7595      7598      7601      7599      7598      7600
      7599      7598      7601      7600      7598      7601      7598      7601      7602
      7598      7601      7603      7598      7601      7604      7602      7601      7603
      7602      7601      7604      7603      7601      7604      3817      3816      3818
      3817      3816      3819      3817      3816      3820      3818      3816      3819
      3818      3816      3820      3819      3816      3820      3816      3820      3821
      3816      3820      3822      3816      3820      3823      3821      3820      3822
      3821      3820      3823      3822      3820      3823      3820      3823      3824
      3820      3823      3825      3820      3823      3829      3824      3823      3825
      3824      3823      3829      3825      3823      3829      3827      3826      3828
      3827      3826      3829      3827      3826      3830      3828      3826      3829
      3828      3826      3830      3829      3826      3830      3823      3829      3826
      3826      3830      3831      3830      3831      3832      3830      3831      3833
      3830      3831      3834      3832      3831      3833      3832      3831      3834
      3833      3831      3834      3831      3834      3835      3831      3834      3836
      3831      3834      3842      3835      3834      3836      3835      3834      3842
      3836      3834      3842      3834      3836      3837      3836      3837      3838
      3836      3837      3839      3838      3837      3839      3837      3839      3840
      3837      3839      3841      3837      3839      3851      3840      3839      3841
      3840      3839      3851      3841      3839      3851      3834      3842      3843
      3834      3842      3844      3834      3842      3845      3843      3842      3844
      3843      3842      3845      3844      3842      3845      3842      3845      3846
      3845      3846      3847      3845      3846      3848      3847      3846      3848
      3846      3848      3849      3846      3848      3850      3846      3848      3898
      3849      3848      3850      3849      3848      3898      3850      3848      3898
      3839      3851      3852      3839      3851      3853      3839      3851      3854
      3852      3851      3853      3852      3851      3854      3853      3851      3854
      3851      3854      3855      3851      3854      3856      3851      3854      3857
      3855      3854      3856      3855      3854      3857      3856      3854      3857
      3854      3857      3858      3854      3857      3859      3858      3857      3859
      3857      3859      3860      3857      3859      3861      3860      3859      3861
      3859      3861      3862      3859      3861      3863      3859      3861      3864
      3862      3861      3863      3862      3861      3864      3863      3861      3864
      3861      3864      3865      3861      3864      3866      3865      3864      3866
      3864      3866      3867      3864      3866      3868      3867      3866      3868
      3866      3868      3869      3866      3868      3870      3866      3868      3871
      3869      3868      3870      3869      3868      3871      3870      3868      3871
      3868      3871      3872      3868      3871      3873      3872      3871      3873
      3871      3873      3874      3871      3873      3875      3874      3873      3875
      3873      3875      3876      3873      3875      3877      3873      3875      3878
      3876      3875      3877      3876      3875      3878      3877      3875      3878
      3875      3878      3879      3875      3878      3880      3879      3878      3880
      3878      3880      3881      3878      3880      3882      3881      3880      3882
      3880      3882      3883      3880      3882      3884      3880      3882      3885
      3883      3882      3884      3883      3882      3885      3884      3882      3885
      3882      3885      3886      3882      3885      3887      3882      3885      3888
      3886      3885      3887      3886      3885      3888      3887      3885      3888
      3885      3888      3889      3885      3888      3890      3885      3888      3891
      3889      3888      3890      3889      3888      3891      3890      3888      3891
      3888      3891      3892      3888      3891      3893      3888      3891      3894
      3892      3891      3893      3892      3891      3894      3893      3891      3894
      3891      3894      3895      3891      3894      3896      3891      3894      3897
      3895      3894      3896      3895      3894      3897      3896      3894      3897
      3848      3898      3899      3848      3898      3900      3848      3898      3901
      3899      3898      3900      3899      3898      3901      3900      3898      3901
      3898      3901      3902      3898      3901      3903      3898      3901      3904
      3902      3901      3903      3902      3901      3904      3903      3901      3904
      3901      3904      3905      3901      3904      3906      3901      3904      3907
      3905      3904      3906      3905      3904      3907      3906      3904      3907
      3904      3907      3908      3904      3907      3909      3904      3907      3910
      3908      3907      3909      3908      3907      3910      3909      3907      3910
      3907      3910      3911      3907      3910      3912      3907      3910      3913
      3911      3910      3912      3911      3910      3913      3912      3910      3913
      3910      3913      3914      3910      3913      3915      3910      3913      3916
      3914      3913      3915      3914      3913      3916      3915      3913      3916
      3913      3916      3917      3913      3916      3918      3913      3916      3919
      3917      3916      3918      3917      3916      3919      3918      3916      3919
      3916      3919      3920      3916      3919      3921      3916      3919      3922
      3920      3919      3921      3920      3919      3922      3921      3919      3922
      3919      3922      3923      3919      3922      3924      3919      3922      3925
      3923      3922      3924      3923      3922      3925      3924      3922      3925
      3922      3925      3926      3922      3925      3927      3922      3925      3928
      3926      3925      3927      3926      3925      3928      3927      3925      3928
      3925      3928      3929      3925      3928      3930      3925      3928      3931
      3929      3928      3930      3929      3928      3931      3930      3928      3931
      3928      3931      3932      3928      3931      3933      3928      3931      3934
      3932      3931      3933      3932      3931      3934      3933      3931      3934
      3931      3934      3935      3931      3934      3936      3931      3934      3937
      3935      3934      3936      3935      3934      3937      3936      3934      3937
      3934      3937      3938      3934      3937      3939      3934      3937      3940
      3938      3937      3939      3938      3937      3940      3939      3937      3940
      3937      3940      3941      3937      3940      3942      3937      3940      3943
      3941      3940      3942      3941      3940      3943      3942      3940      3943
      3940      3943      3944      3940      3943      3945      3940      3943      3946
      3944      3943      3945      3944      3943      3946      3945      3943      3946
      5702      5701      5703      5702      5701      5705      5702      5701      5747
      5703      5701      5705      5703      5701      5747      5705      5701      5747
      5701      5703      5704      5701      5705      5706      5701      5705      5707
      5701      5705      5708      5706      5705      5707      5706      5705      5708
      5707      5705      5708      5705      5708      5709      5705      5708      5739
      5709      5708      5739      5708      5709      5710      5708      5709      5711
      5710      5709      5711      5709      5711      5712      5709      5711      5713
      5709      5711      5714      5712      5711      5713      5712      5711      5714
      5713      5711      5714      5711      5714      5715      5711      5714      5716
      5711      5714      5737      5715      5714      5716      5715      5714      5737
      5716      5714      5737      5714      5716      5717      5714      5716      5718
      5714      5716      5726      5717      5716      5718      5717      5716      5726
      5718      5716      5726      5716      5718      5719      5716      5718      5720
      5716      5718      5721      5719      5718      5720      5719      5718      5721
      5720      5718      5721      5718      5721      5722      5718      5721      5723
      5718      5721      5724      5722      5721      5723      5722      5721      5724
      5723      5721      5724      5721      5724      5725      5721      5724      5726
      5721      5724      5750      5725      5724      5726      5725      5724      5750
      5726      5724      5750      5716      5726      5724      5716      5726      5727
      5716      5726      5731      5724      5726      5727      5724      5726      5731
      5727      5726      5731      5726      5727      5728      5726      5727      5729
      5726      5727      5730      5728      5727      5729      5728      5727      5730
      5729      5727      5730      5726      5731      5732      5726      5731      5733
      5726      5731      5734      5732      5731      5733      5732      5731      5734
      5733      5731      5734      5731      5734      5735      5731      5734      5736
      5731      5734      5737      5735      5734      5736      5735      5734      5737
      5736      5734      5737      5714      5737      5734      5714      5737      5738
      5714      5737      5739      5734      5737      5738      5734      5737      5739
      5738      5737      5739      5708      5739      5737      5708      5739      5740
      5708      5739      5744      5737      5739      5740      5737      5739      5744
      5740      5739      5744      5739      5740      5741      5739      5740      5742
      5739      5740      5743      5741      5740      5742      5741      5740      5743
      5742      5740      5743      5739      5744      5745      5739      5744      5746
      5739      5744      5747      5745      5744      5746      5745      5744      5747
      5746      5744      5747      5701      5747      5744      5701      5747      5748
      5701      5747      5749      5744      5747      5748      5744      5747      5749
      5748      5747      5749      5724      5750      5751      5724      5750      5752
      5724      5750      5756      5751      5750      5752      5751      5750      5756
      5752      5750      5756      5750      5752      5753      5750      5752      5754
      5750      5752      5755      5753      5752      5754      5753      5752      5755
      5754      5752      5755      5750      5756      5757      5750      5756      5758
      5750      5756      5759      5757      5756      5758      5757      5756      5759
      5758      5756      5759      5756      5759      5760      5756      5759      5761
      5756      5759      5762      5760      5759      5761      5760      5759      5762
      5761      5759      5762      5759      5762      5763      5759      5762      5764
      5759      5762      5765      5763      5762      5764      5763      5762      5765
      5764      5762      5765      5762      5765      5766      5762      5765      5767
      5762      5765      5771      5766      5765      5767      5766      5765      5771
      5767      5765      5771      5765      5767      5768      5765      5767      5769
      5765      5767      5770      5768      5767      5769      5768      5767      5770
      5769      5767      5770      5765      5771      5772      5765      5771      5773
      5765      5771      5774      5772      5771      5773      5772      5771      5774
      5773      5771      5774      5776      5775      5777      5776      5775      5779
      5776      5775      5821      5777      5775      5779      5777      5775      5821
      5779      5775      5821      5775      5777      5778      5775      5779      5780
      5775      5779      5781      5775      5779      5782      5780      5779      5781
      5780      5779      5782      5781      5779      5782      5779      5782      5783
      5779      5782      5813      5783      5782      5813      5782      5783      5784
      5782      5783      5785      5784      5783      5785      5783      5785      5786
      5783      5785      5787      5783      5785      5788      5786      5785      5787
      5786      5785      5788      5787      5785      5788      5785      5788      5789
      5785      5788      5790      5785      5788      5811      5789      5788      5790
      5789      5788      5811      5790      5788      5811      5788      5790      5791
      5788      5790      5792      5788      5790      5800      5791      5790      5792
      5791      5790      5800      5792      5790      5800      5790      5792      5793
      5790      5792      5794      5790      5792      5795      5793      5792      5794
      5793      5792      5795      5794      5792      5795      5792      5795      5796
      5792      5795      5797      5792      5795      5798      5796      5795      5797
      5796      5795      5798      5797      5795      5798      5795      5798      5799
      5795      5798      5800      5795      5798      5824      5799      5798      5800
      5799      5798      5824      5800      5798      5824      5790      5800      5798
      5790      5800      5801      5790      5800      5805      5798      5800      5801
      5798      5800      5805      5801      5800      5805      5800      5801      5802
      5800      5801      5803      5800      5801      5804      5802      5801      5803
      5802      5801      5804      5803      5801      5804      5800      5805      5806
      5800      5805      5807      5800      5805      5808      5806      5805      5807
      5806      5805      5808      5807      5805      5808      5805      5808      5809
      5805      5808      5810      5805      5808      5811      5809      5808      5810
      5809      5808      5811      5810      5808      5811      5788      5811      5808
      5788      5811      5812      5788      5811      5813      5808      5811      5812
      5808      5811      5813      5812      5811      5813      5782      5813      5811
      5782      5813      5814      5782      5813      5818      5811      5813      5814
      5811      5813      5818      5814      5813      5818      5813      5814      5815
      5813      5814      5816      5813      5814      5817      5815      5814      5816
      5815      5814      5817      5816      5814      5817      5813      5818      5819
      5813      5818      5820      5813      5818      5821      5819      5818      5820
      5819      5818      5821      5820      5818      5821      5775      5821      5818
      5775      5821      5822      5775      5821      5823      5818      5821      5822
      5818      5821      5823      5822      5821      5823      5798      5824      5825
      5798      5824      5826      5798      5824      5830      5825      5824      5826
      5825      5824      5830      5826      5824      5830      5824      5826      5827
      5824      5826      5828      5824      5826      5829      5827      5826      5828
      5827      5826      5829      5828      5826      5829      5824      5830      5831
      5824      5830      5832      5824      5830      5833      5831      5830      5832
      5831      5830      5833      5832      5830      5833      5830      5833      5834
      5830      5833      5835      5830      5833      5836      5834      5833      5835
      5834      5833      5836      5835      5833      5836      5833      5836      5837
      5833      5836      5838      5833      5836      5839      5837      5836      5838
      5837      5836      5839      5838      5836      5839      5836      5839      5840
      5836      5839      5841      5836      5839      5845      5840      5839      5841
      5840      5839      5845      5841      5839      5845      5839      5841      5842
      5839      5841      5843      5839      5841      5844      5842      5841      5843
      5842      5841      5844      5843      5841      5844      5839      5845      5846
      5839      5845      5847      5839      5845      5848      5846      5845      5847
      5846      5845      5848      5847      5845      5848       395       394       399
       395       394       403       395       394       407       399       394       403
       399       394       407       403       394       407       394       395       396
       394       395       397       394       395       398       396       395       397
       396       395       398       397       395       398       394       399       400
       394       399       401       394       399       402       400       399       401
       400       399       402       401       399       402       394       403       404
       394       403       405       394       403       406       404       403       405
       404       403       406       405       403       406       394       407       408
       394       407       409       394       407       410       408       407       409
       408       407       410       409       407       410       407       410       411
       407       410       412       407       410       417       411       410       412
       411       410       417       412       410       417       414       413       415
       414       413       416       414       413       417       415       413       416
       415       413       417       416       413       417       413       416       418
       410       417       413       416       418       419       416       418       420
       416       418       423       419       418       420       419       418       423
       420       418       423       422       421       423       422       421       473
       423       421       473       418       423       421       418       423       424
       418       423       425       421       423       424       421       423       425
       424       423       425       423       425       426       423       425       427
       423       425       429       426       425       427       426       425       429
       427       425       429       425       427       428       425       429       430
       425       429       431       430       429       431       429       431       432
       429       431       433       432       431       433       431       433       434
       431       433       435       431       433       436       434       433       435
       434       433       436       435       433       436       433       436       437
       433       436       438       433       436       439       437       436       438
       437       436       439       438       436       439       436       439       440
       436       439       441       436       439       442       440       439       441
       440       439       442       441       439       442       439       442       443
       439       442       444       439       442       445       443       442       444
       443       442       445       444       442       445       442       445       446
       442       445       447       442       445       448       446       445       447
       446       445       448       447       445       448       445       448       449
       445       448       450       445       448       451       449       448       450
       449       448       451       450       448       451       448       451       452
       448       451       453       448       451       454       452       451       453
       452       451       454       453       451       454       451       454       455
       451       454       456       451       454       457       455       454       456
       455       454       457       456       454       457       454       457       458
       454       457       459       454       457       460       458       457       459
       458       457       460       459       457       460       457       460       461
       457       460       462       457       460       463       461       460       462
       461       460       463       462       460       463       460       463       464
       460       463       465       460       463       466       464       463       465
       464       463       466       465       463       466       463       466       467
       463       466       468       463       466       469       467       466       468
       467       466       469       468       466       469       466       469       470
       466       469       471       466       469       472       470       469       471
       470       469       472       471       469       472       421       473       474
       421       473       475       474       473       475       473       475       476
       473       475       477       473       475       478       476       475       477
       476       475       478       477       475       478       475       478       479
       475       478       480       475       478       481       479       478       480
       479       478       481       480       478       481       478       481       482
       478       481       483       478       481       484       482       481       483
       482       481       484       483       481       484       481       484       485
       481       484       486       481       484       487       485       484       486
       485       484       487       486       484       487       484       487       488
       484       487       489       484       487       490       488       487       489
       488       487       490       489       487       490       487       490       491
       487       490       492       487       490       493       491       490       492
       491       490       493       492       490       493       490       493       494
       490       493       495       490       493       496       494       493       495
       494       493       496       495       493       496       493       496       497
       493       496       498       497       496       498       496       498       499
       496       498       500       499       498       500       498       500       501
       498       500       502       498       500       503       501       500       502
       501       500       503       502       500       503       500       503       504
       500       503       505       500       503       506       504       503       505
       504       503       506       505       503       506       503       506       507
       503       506       508       503       506       509       507       506       508
       507       506       509       508       506       509       506       509       510
       506       509       511       506       509       512       510       509       511
       510       509       512       511       509       512       509       512       513
       509       512       514       509       512       515       513       512       514
       513       512       515       514       512       515       512       515       516
       512       515       517       512       515       518       516       515       517
       516       515       518       517       515       518       515       518       519
       515       518       520       515       518       521       519       518       520
       519       518       521       520       518       521       518       521       522
       518       521       523       518       521       524       522       521       523
       522       521       524       523       521       524      9554      9553      9557
      9554      9553      9561      9554      9553      9565      9557      9553      9561
      9557      9553      9565      9561      9553      9565      9553      9554      9555
      9553      9554      9556      9553      9554      9569      9555      9554      9556
      9555      9554      9569      9556      9554      9569      9553      9557      9558
      9553      9557      9559      9553      9557      9560      9558      9557      9559
      9558      9557      9560      9559      9557      9560      9553      9561      9562
      9553      9561      9563      9553      9561      9564      9562      9561      9563
      9562      9561      9564      9563      9561      9564      9553      9565      9566
      9553      9565      9567      9553      9565      9568      9566      9565      9567
      9566      9565      9568      9567      9565      9568      9554      9569      9570
      9554      9569      9571      9554      9569      9575      9570      9569      9571
      9570      9569      9575      9571      9569      9575      9573      9572      9574
      9573      9572      9575      9573      9572      9576      9574      9572      9575
      9574      9572      9576      9575      9572      9576      9569      9575      9572
      9572      9576      9577      9576      9577      9578      9576      9577      9579
      9576      9577      9580      9578      9577      9579      9578      9577      9580
      9579      9577      9580      9577      9580      9581      9577      9580      9582
      9577      9580      9588      9581      9580      9582      9581      9580      9588
      9582      9580      9588      9580      9582      9583      9582      9583      9584
      9582      9583      9585      9584      9583      9585      9583      9585      9586
      9583      9585      9587      9583      9585      9597      9586      9585      9587
      9586      9585      9597      9587      9585      9597      9580      9588      9589
      9580      9588      9590      9580      9588      9591      9589      9588      9590
      9589      9588      9591      9590      9588      9591      9588      9591      9592
      9591      9592      9593      9591      9592      9594      9593      9592      9594
      9592      9594      9595      9592      9594      9596      9592      9594      9644
      9595      9594      9596      9595      9594      9644      9596      9594      9644
      9585      9597      9598      9585      9597      9599      9585      9597      9600
      9598      9597      9599      9598      9597      9600      9599      9597      9600
      9597      9600      9601      9597      9600      9602      9597      9600      9603
      9601      9600      9602      9601      9600      9603      9602      9600      9603
      9600      9603      9604      9600      9603      9605      9600      9603      9606
      9604      9603      9605      9604      9603      9606      9605      9603      9606
      9603      9606      9607      9603      9606      9608      9603      9606      9609
      9607      9606      9608      9607      9606      9609      9608      9606      9609
      9606      9609      9610      9606      9609      9611      9606      9609      9612
      9610      9609      9611      9610      9609      9612      9611      9609      9612
      9609      9612      9613      9609      9612      9614      9609      9612      9615
      9613      9612      9614      9613      9612      9615      9614      9612      9615
      9612      9615      9616      9612      9615      9617      9616      9615      9617
      9615      9617      9618      9615      9617      9619      9618      9617      9619
      9617      9619      9620      9617      9619      9621      9617      9619      9622
      9620      9619      9621      9620      9619      9622      9621      9619      9622
      9619      9622      9623      9619      9622      9624      9619      9622      9625
      9623      9622      9624      9623      9622      9625      9624      9622      9625
      9622      9625      9626      9622      9625      9627      9622      9625      9628
      9626      9625      9627      9626      9625      9628      9627      9625      9628
      9625      9628      9629      9625      9628      9630      9625      9628      9631
      9629      9628      9630      9629      9628      9631      9630      9628      9631
      9628      9631      9632      9628      9631      9633      9628      9631      9634
      9632      9631      9633      9632      9631      9634      9633      9631      9634
      9631      9634      9635      9631      9634      9636      9631      9634      9637
      9635      9634      9636      9635      9634      9637      9636      9634      9637
      9634      9637      9638      9634      9637      9639      9634      9637      9640
      9638      9637      9639      9638      9637      9640      9639      9637      9640
      9637      9640      9641      9637      9640      9642      9637      9640      9643
      9641      9640      9642      9641      9640      9643      9642      9640      9643
      9594      9644      9645      9594      9644      9646      9594      9644      9647
      9645      9644      9646      9645      9644      9647      9646      9644      9647
      9644      9647      9648      9644      9647      9649      9644      9647      9650
      9648      9647      9649      9648      9647      9650      9649      9647      9650
      9647      9650      9651      9647      9650      9652      9647      9650      9653
      9651      9650      9652      9651      9650      9653      9652      9650      9653
      9650      9653      9654      9650      9653      9655      9650      9653      9656
      9654      9653      9655      9654      9653      9656      9655      9653      9656
      9653      9656      9657      9653      9656      9658      9653      9656      9659
      9657      9656      9658      9657      9656      9659      9658      9656      9659
      9656      9659      9660      9656      9659      9661      9656      9659      9662
      9660      9659      9661      9660      9659      9662      9661      9659      9662
      9659      9662      9663      9659      9662      9664      9659      9662      9665
      9663      9662      9664      9663      9662      9665      9664      9662      9665
      9662      9665      9666      9662      9665      9667      9662      9665      9668
      9666      9665      9667      9666      9665      9668      9667      9665      9668
      9665      9668      9669      9665      9668      9670      9665      9668      9671
      9669      9668      9670      9669      9668      9671      9670      9668      9671
      9668      9671      9672      9668      9671      9673      9668      9671      9674
      9672      9671      9673      9672      9671      9674      9673      9671      9674
      9671      9674      9675      9671      9674      9676      9671      9674      9677
      9675      9674      9676      9675      9674      9677      9676      9674      9677
      9674      9677      9678      9674      9677      9679      9674      9677      9680
      9678      9677      9679      9678      9677      9680      9679      9677      9680
      9677      9680      9681      9677      9680      9682      9677      9680      9683
      9681      9680      9682      9681      9680      9683      9682      9680      9683
      9680      9683      9684      9680      9683      9685      9680      9683      9686
      9684      9683      9685      9684      9683      9686      9685      9683      9686
      2493      2492      2494      2493      2492      2495      2493      2492      2496
      2494      2492      2495      2494      2492      2496      2495      2492      2496
      2492      2496      2497      2492      2496      2498      2492      2496      2501
      2497      2496      2498      2497      2496      2501      2498      2496      2501
      2496      2498      2499      2496      2498      2500      2499      2498      2500
      2496      2501      2502      2496      2501      2503      2496      2501      2507
      2502      2501      2503      2502      2501      2507      2503      2501      2507
      2505      2504      2506      2505      2504      2507      2505      2504      2508
      2506      2504      2507      2506      2504      2508      2507      2504      2508
      2501      2507      2504      2504      2508      2509      2508      2509      2510
      2508      2509      2511      2508      2509      2512      2510      2509      2511
      2510      2509      2512      2511      2509      2512      2509      2512      2513
      2509      2512      2514      2509      2512      2520      2513      2512      2514
      2513      2512      2520      2514      2512      2520      2512      2514      2515
      2514      2515      2516      2514      2515      2517      2516      2515      2517
      2515      2517      2518      2515      2517      2519      2515      2517      2529
      2518      2517      2519      2518      2517      2529      2519      2517      2529
      2512      2520      2521      2512      2520      2522      2512      2520      2523
      2521      2520      2522      2521      2520      2523      2522      2520      2523
      2520      2523      2524      2523      2524      2525      2523      2524      2526
      2525      2524      2526      2524      2526      2527      2524      2526      2528
      2524      2526      2576      2527      2526      2528      2527      2526      2576
      2528      2526      2576      2517      2529      2530      2517      2529      2531
      2517      2529      2532      2530      2529      2531      2530      2529      2532
      2531      2529      2532      2529      2532      2533      2529      2532      2534
      2529      2532      2535      2533      2532      2534      2533      2532      2535
      2534      2532      2535      2532      2535      2536      2532      2535      2537
      2536      2535      2537      2535      2537      2538      2535      2537      2539
      2538      2537      2539      2537      2539      2540      2537      2539      2541
      2537      2539      2542      2540      2539      2541      2540      2539      2542
      2541      2539      2542      2539      2542      2543      2539      2542      2544
      2543      2542      2544      2542      2544      2545      2542      2544      2546
      2545      2544      2546      2544      2546      2547      2544      2546      2548
      2544      2546      2549      2547      2546      2548      2547      2546      2549
      2548      2546      2549      2546      2549      2550      2546      2549      2551
      2550      2549      2551      2549      2551      2552      2549      2551      2553
      2552      2551      2553      2551      2553      2554      2551      2553      2555
      2551      2553      2556      2554      2553      2555      2554      2553      2556
      2555      2553      2556      2553      2556      2557      2553      2556      2558
      2557      2556      2558      2556      2558      2559      2556      2558      2560
      2559      2558      2560      2558      2560      2561      2558      2560      2562
      2558      2560      2563      2561      2560      2562      2561      2560      2563
      2562      2560      2563      2560      2563      2564      2560      2563      2565
      2560      2563      2566      2564      2563      2565      2564      2563      2566
      2565      2563      2566      2563      2566      2567      2563      2566      2568
      2563      2566      2569      2567      2566      2568      2567      2566      2569
      2568      2566      2569      2566      2569      2570      2566      2569      2571
      2566      2569      2572      2570      2569      2571      2570      2569      2572
      2571      2569      2572      2569      2572      2573      2569      2572      2574
      2569      2572      2575      2573      2572      2574      2573      2572      2575
      2574      2572      2575      2526      2576      2577      2526      2576      2578
      2526      2576      2579      2577      2576      2578      2577      2576      2579
      2578      2576      2579      2576      2579      2580      2576      2579      2581
      2576      2579      2582      2580      2579      2581      2580      2579      2582
      2581      2579      2582      2579      2582      2583      2579      2582      2584
      2579      2582      2585      2583      2582      2584      2583      2582      2585
      2584      2582      2585      2582      2585      2586      2582      2585      2587
      2582      2585      2588      2586      2585      2587      2586      2585      2588
      2587      2585      2588      2585      2588      2589      2585      2588      2590
      2585      2588      2591      2589      2588      2590      2589      2588      2591
      2590      2588      2591      2588      2591      2592      2588      2591      2593
      2588      2591      2594      2592      2591      2593      2592      2591      2594
      2593      2591      2594      2591      2594      2595      2591      2594      2596
      2591      2594      2597      2595      2594      2596      2595      2594      2597
      2596      2594      2597      2594      2597      2598      2594      2597      2599
      2594      2597      2600      2598      2597      2599      2598      2597      2600
      2599      2597      2600      2597      2600      2601      2597      2600      2602
      2597      2600      2603      2601      2600      2602      2601      2600      2603
      2602      2600      2603      2600      2603      2604      2600      2603      2605
      2600      2603      2606      2604      2603      2605      2604      2603      2606
      2605      2603      2606      2603      2606      2607      2603      2606      2608
      2603      2606      2609      2607      2606      2608      2607      2606      2609
      2608      2606      2609      2606      2609      2610      2606      2609      2611
      2606      2609      2612      2610      2609      2611      2610      2609      2612
      2611      2609      2612      2609      2612      2613      2609      2612      2614
      2609      2612      2615      2613      2612      2614      2613      2612      2615
      2614      2612      2615      2612      2615      2616      2612      2615      2617
      2612      2615      2618      2616      2615      2617      2616      2615      2618
      2617      2615      2618      2615      2618      2619      2615      2618      2620
      2615      2618      2621      2619      2618      2620      2619      2618      2621
      2620      2618      2621      2618      2621      2622      2618      2621      2623
      2618      2621      2624      2622      2621      2623      2622      2621      2624
      2623      2621      2624       526       525       530       526       525       534
       526       525       538       530       525       534       530       525       538
       534       525       538       525       526       527       525       526       528
       525       526       529       527       526       528       527       526       529
       528       526       529       525       530       531       525       530       532
       525       530       533       531       530       532       531       530       533
       532       530       533       525       534       535       525       534       536
       525       534       537       535       534       536       535       534       537
       536       534       537       525       538       539       525       538       540
       525       538       541       539       538       540       539       538       541
       540       538       541       538       541       542       538       541       543
       538       541       548       542       541       543       542       541       548
       543       541       548       545       544       546       545       544       547
       545       544       548       546       544       547       546       544       548
       547       544       548       544       547       549       541       548       544
       547       549       550       547       549       551       547       549       554
       550       549       551       550       549       554       551       549       554
       553       552       554       553       552       604       554       552       604
       549       554       552       549       554       555       549       554       556
       552       554       555       552       554       556       555       554       556
       554       556       557       554       556       558       554       556       560
       557       556       558       557       556       560       558       556       560
       556       558       559       556       560       561       556       560       562
       561       560       562       560       562       563       560       562       564
       563       562       564       562       564       565       562       564       566
       562       564       567       565       564       566       565       564       567
       566       564       567       564       567       568       564       567       569
       564       567       570       568       567       569       568       567       570
       569       567       570       567       570       571       567       570       572
       567       570       573       571       570       572       571       570       573
       572       570       573       570       573       574       570       573       575
       570       573       576       574       573       575       574       573       576
       575       573       576       573       576       577       573       576       578
       573       576       579       577       576       578       577       576       579
       578       576       579       576       579       580       576       579       581
       576       579       582       580       579       581       580       579       582
       581       579       582       579       582       583       579       582       584
       579       582       585       583       582       584       583       582       585
       584       582       585       582       585       586       582       585       587
       582       585       588       586       585       587       586       585       588
       587       585       588       585       588       589       585       588       590
       585       588       591       589       588       590       589       588       591
       590       588       591       588       591       592       588       591       593
       588       591       594       592       591       593       592       591       594
       593       591       594       591       594       595       591       594       596
       591       594       597       595       594       596       595       594       597
       596       594       597       594       597       598       594       597       599
       594       597       600       598       597       599       598       597       600
       599       597       600       597       600       601       597       600       602
       597       600       603       601       600       602       601       600       603
       602       600       603       552       604       605       552       604       606
       605       604       606       604       606       607       604       606       608
       604       606       609       607       606       608       607       606       609
       608       606       609       606       609       610       606       609       611
       606       609       612       610       609       611       610       609       612
       611       609       612       609       612       613       609       612       614
       609       612       615       613       612       614       613       612       615
       614       612       615       612       615       616       612       615       617
       612       615       618       616       615       617       616       615       618
       617       615       618       615       618       619       615       618       620
       615       618       621       619       618       620       619       618       621
       620       618       621       618       621       622       618       621       623
       618       621       624       622       621       623       622       621       624
       623       621       624       621       624       625       621       624       626
       621       624       627       625       624       626       625       624       627
       626       624       627       624       627       628       624       627       629
       628       627       629       627       629       630       627       629       631
       630       629       631       629       631       632       629       631       633
       629       631       634       632       631       633       632       631       634
       633       631       634       631       634       635       631       634       636
       631       634       637       635       634       636       635       634       637
       636       634       637       634       637       638       634       637       639
       634       637       640       638       637       639       638       637       640
       639       637       640       637       640       641       637       640       642
       637       640       643       641       640       642       641       640       643
       642       640       643       640       643       644       640       643       645
       640       643       646       644       643       645       644       643       646
       645       643       646       643       646       647       643       646       648
       643       646       649       647       646       648       647       646       649
       648       646       649       646       649       650       646       649       651
       646       649       652       650       649       651       650       649       652
       651       649       652       649       652       653       649       652       654
       649       652       655       653       652       654       653       652       655
       654       652       655      3948      3947      3949      3948      3947      3950
      3948      3947      3951      3949      3947      3950      3949      3947      3951
      3950      3947      3951      3947      3951      3952      3947      3951      3953
      3947      3951      3954      3952      3951      3953      3952      3951      3954
      3953      3951      3954      3951      3954      3955      3951      3954      3956
      3951      3954      3960      3955      3954      3956      3955      3954      3960
      3956      3954      3960      3958      3957      3959      3958      3957      3960
      3958      3957      3961      3959      3957      3960      3959      3957      3961
      3960      3957      3961      3954      3960      3957      3957      3961      3962
      3961      3962      3963      3961      3962      3964      3961      3962      3965
      3963      3962      3964      3963      3962      3965      3964      3962      3965
      3962      3965      3966      3962      3965      3967      3962      3965      3973
      3966      3965      3967      3966      3965      3973      3967      3965      3973
      3965      3967      3968      3967      3968      3969      3967      3968      3970
      3969      3968      3970      3968      3970      3971      3968      3970      3972
      3968      3970      3982      3971      3970      3972      3971      3970      3982
      3972      3970      3982      3965      3973      3974      3965      3973      3975
      3965      3973      3976      3974      3973      3975      3974      3973      3976
      3975      3973      3976      3973      3976      3977      3976      3977      3978
      3976      3977      3979      3978      3977      3979      3977      3979      3980
      3977      3979      3981      3977      3979      4029      3980      3979      3981
      3980      3979      4029      3981      3979      4029      3970      3982      3983
      3970      3982      3984      3970      3982      3985      3983      3982      3984
      3983      3982      3985      3984      3982      3985      3982      3985      3986
      3982      3985      3987      3982      3985      3988      3986      3985      3987
      3986      3985      3988      3987      3985      3988      3985      3988      3989
      3985      3988      3990      3989      3988      3990      3988      3990      3991
      3988      3990      3992      3991      3990      3992      3990      3992      3993
      3990      3992      3994      3990      3992      3995      3993      3992      3994
      3993      3992      3995      3994      3992      3995      3992      3995      3996
      3992      3995      3997      3996      3995      3997      3995      3997      3998
      3995      3997      3999      3998      3997      3999      3997      3999      4000
      3997      3999      4001      3997      3999      4002      4000      3999      4001
      4000      3999      4002      4001      3999      4002      3999      4002      4003
      3999      4002      4004      4003      4002      4004      4002      4004      4005
      4002      4004      4006      4005      4004      4006      4004      4006      4007
      4004      4006      4008      4004      4006      4009      4007      4006      4008
      4007      4006      4009      4008      4006      4009      4006      4009      4010
      4006      4009      4011      4010      4009      4011      4009      4011      4012
      4009      4011      4013      4012      4011      4013      4011      4013      4014
      4011      4013      4015      4011      4013      4016      4014      4013      4015
      4014      4013      4016      4015      4013      4016      4013      4016      4017
      4013      4016      4018      4013      4016      4019      4017      4016      4018
      4017      4016      4019      4018      4016      4019      4016      4019      4020
      4016      4019      4021      4016      4019      4022      4020      4019      4021
      4020      4019      4022      4021      4019      4022      4019      4022      4023
      4019      4022      4024      4019      4022      4025      4023      4022      4024
      4023      4022      4025      4024      4022      4025      4022      4025      4026
      4022      4025      4027      4022      4025      4028      4026      4025      4027
      4026      4025      4028      4027      4025      4028      3979      4029      4030
      3979      4029      4031      3979      4029      4032      4030      4029      4031
      4030      4029      4032      4031      4029      4032      4029      4032      4033
      4029      4032      4034      4029      4032      4035      4033      4032      4034
      4033      4032      4035      4034      4032      4035      4032      4035      4036
      4032      4035      4037      4032      4035      4038      4036      4035      4037
      4036      4035      4038      4037      4035      4038      4035      4038      4039
      4035      4038      4040      4035      4038      4041      4039      4038      4040
      4039      4038      4041      4040      4038      4041      4038      4041      4042
      4038      4041      4043      4038      4041      4044      4042      4041      4043
      4042      4041      4044      4043      4041      4044      4041      4044      4045
      4041      4044      4046      4041      4044      4047      4045      4044      4046
      4045      4044      4047      4046      4044      4047      4044      4047      4048
      4044      4047      4049      4044      4047      4050      4048      4047      4049
      4048      4047      4050      4049      4047      4050      4047      4050      4051
      4047      4050      4052      4047      4050      4053      4051      4050      4052
      4051      4050      4053      4052      4050      4053      4050      4053      4054
      4050      4053      4055      4050      4053      4056      4054      4053      4055
      4054      4053      4056      4055      4053      4056      4053      4056      4057
      4053      4056      4058      4053      4056      4059      4057      4056      4058
      4057      4056      4059      4058      4056      4059      4056      4059      4060
      4056      4059      4061      4056      4059      4062      4060      4059      4061
      4060      4059      4062      4061      4059      4062      4059      4062      4063
      4059      4062      4064      4059      4062      4065      4063      4062      4064
      4063      4062      4065      4064      4062      4065      4062      4065      4066
      4062      4065      4067      4062      4065      4068      4066      4065      4067
      4066      4065      4068      4067      4065      4068      4065      4068      4069
      4065      4068      4070      4065      4068      4071      4069      4068      4070
      4069      4068      4071      4070      4068      4071      4068      4071      4072
      4068      4071      4073      4068      4071      4074      4072      4071      4073
      4072      4071      4074      4073      4071      4074      4071      4074      4075
      4071      4074      4076      4071      4074      4077      4075      4074      4076
      4075      4074      4077      4076      4074      4077     10090     10089     10091
     10090     10089     10092     10090     10089     10093     10091     10089     10092
     10091     10089     10093     10092     10089     10093     10089     10093     10094
     10089     10093     10095     10089     10093     10096     10094     10093     10095
     10094     10093     10096     10095     10093     10096     10093     10096     10097
     10093     10096     10098     10093     10096     10102     10097     10096     10098
     10097     10096     10102     10098     10096     10102     10100     10099     10101
     10100     10099     10102     10100     10099     10103     10101     10099     10102
     10101     10099     10103     10102     10099     10103     10096     10102     10099
     10099     10103     10104     10103     10104     10105     10103     10104     10106
     10103     10104     10107     10105     10104     10106     10105     10104     10107
     10106     10104     10107     10104     10107     10108     10104     10107     10109
     10104     10107     10115     10108     10107     10109     10108     10107     10115
     10109     10107     10115     10107     10109     10110     10109     10110     10111
     10109     10110     10112     10111     10110     10112     10110     10112     10113
     10110     10112     10114     10110     10112     10124     10113     10112     10114
     10113     10112     10124     10114     10112     10124     10107     10115     10116
     10107     10115     10117     10107     10115     10118     10116     10115     10117
     10116     10115     10118     10117     10115     10118     10115     10118     10119
     10118     10119     10120     10118     10119     10121     10120     10119     10121
     10119     10121     10122     10119     10121     10123     10119     10121     10171
     10122     10121     10123     10122     10121     10171     10123     10121     10171
     10112     10124     10125     10112     10124     10126     10112     10124     10127
     10125     10124     10126     10125     10124     10127     10126     10124     10127
     10124     10127     10128     10124     10127     10129     10124     10127     10130
     10128     10127     10129     10128     10127     10130     10129     10127     10130
     10127     10130     10131     10127     10130     10132     10127     10130     10133
     10131     10130     10132     10131     10130     10133     10132     10130     10133
     10130     10133     10134     10130     10133     10135     10130     10133     10136
     10134     10133     10135     10134     10133     10136     10135     10133     10136
     10133     10136     10137     10133     10136     10138     10133     10136     10139
     10137     10136     10138     10137     10136     10139     10138     10136     10139
     10136     10139     10140     10136     10139     10141     10136     10139     10142
     10140     10139     10141     10140     10139     10142     10141     10139     10142
     10139     10142     10143     10139     10142     10144     10143     10142     10144
     10142     10144     10145     10142     10144     10146     10145     10144     10146
     10144     10146     10147     10144     10146     10148     10144     10146     10149
     10147     10146     10148     10147     10146     10149     10148     10146     10149
     10146     10149     10150     10146     10149     10151     10146     10149     10152
     10150     10149     10151     10150     10149     10152     10151     10149     10152
     10149     10152     10153     10149     10152     10154     10149     10152     10155
     10153     10152     10154     10153     10152     10155     10154     10152     10155
     10152     10155     10156     10152     10155     10157     10152     10155     10158
     10156     10155     10157     10156     10155     10158     10157     10155     10158
     10155     10158     10159     10155     10158     10160     10155     10158     10161
     10159     10158     10160     10159     10158     10161     10160     10158     10161
     10158     10161     10162     10158     10161     10163     10158     10161     10164
     10162     10161     10163     10162     10161     10164     10163     10161     10164
     10161     10164     10165     10161     10164     10166     10161     10164     10167
     10165     10164     10166     10165     10164     10167     10166     10164     10167
     10164     10167     10168     10164     10167     10169     10164     10167     10170
     10168     10167     10169     10168     10167     10170     10169     10167     10170
     10121     10171     10172     10121     10171     10173     10121     10171     10174
     10172     10171     10173     10172     10171     10174     10173     10171     10174
     10171     10174     10175     10171     10174     10176     10171     10174     10177
     10175     10174     10176     10175     10174     10177     10176     10174     10177
     10174     10177     10178     10174     10177     10179     10174     10177     10180
     10178     10177     10179     10178     10177     10180     10179     10177     10180
     10177     10180     10181     10177     10180     10182     10177     10180     10183
     10181     10180     10182     10181     10180     10183     10182     10180     10183
     10180     10183     10184     10180     10183     10185     10180     10183     10186
     10184     10183     10185     10184     10183     10186     10185     10183     10186
     10183     10186     10187     10183     10186     10188     10183     10186     10189
     10187     10186     10188     10187     10186     10189     10188     10186     10189
     10186     10189     10190     10186     10189     10191     10186     10189     10192
     10190     10189     10191     10190     10189     10192     10191     10189     10192
     10189     10192     10193     10189     10192     10194     10189     10192     10195
     10193     10192     10194     10193     10192     10195     10194     10192     10195
     10192     10195     10196     10192     10195     10197     10192     10195     10198
     10196     10195     10197     10196     10195     10198     10197     10195     10198
     10195     10198     10199     10195     10198     10200     10195     10198     10201
     10199     10198     10200     10199     10198     10201     10200     10198     10201
     10198     10201     10202     10198     10201     10203     10198     10201     10204
     10202     10201     10203     10202     10201     10204     10203     10201     10204
     10201     10204     10205     10201     10204     10206     10201     10204     10207
     10205     10204     10206     10205     10204     10207     10206     10204     10207
     10204     10207     10208     10204     10207     10209     10204     10207     10210
     10208     10207     10209     10208     10207     10210     10209     10207     10210
     10207     10210     10211     10207     10210     10212     10207     10210     10213
     10211     10210     10212     10211     10210     10213     10212     10210     10213
     10210     10213     10214     10210     10213     10215     10210     10213     10216
     10214     10213     10215     10214     10213     10216     10215     10213     10216
     10213     10216     10217     10213     10216     10218     10213     10216     10219
     10217     10216     10218     10217     10216     10219     10218     10216     10219
       657       656       661       657       656       665       657       656       669
       661       656       665       661       656       669       665       656       669
       656       657       658       656       657       659       656       657       660
       658       657       659       658       657       660       659       657       660
       656       661       662       656       661       663       656       661       664
       662       661       663       662       661       664       663       661       664
       656       665       666       656       665       667       656       665       668
       666       665       667       666       665       668       667       665       668
       656       669       670       656       669       671       656       669       672
       670       669       671       670       669       672       671       669       672
       669       672       673       669       672       674       669       672       679
       673       672       674       673       672       679       674       672       679
       676       675       677       676       675       678       676       675       679
       677       675       678       677       675       679       678       675       679
       675       678       680       672       679       675       678       680       681
       678       680       682       678       680       685       681       680       682
       681       680       685       682       680       685       684       683       685
       684       683       735       685       683       735       680       685       683
       680       685       686       680       685       687       683       685       686
       683       685       687       686       685       687       685       687       688
       685       687       689       685       687       691       688       687       689
       688       687       691       689       687       691       687       689       690
       687       691       692       687       691       693       692       691       693
       691       693       694       691       693       695       694       693       695
       693       695       696       693       695       697       693       695       698
       696       695       697       696       695       698       697       695       698
       695       698       699       695       698       700       695       698       701
       699       698       700       699       698       701       700       698       701
       698       701       702       698       701       703       698       701       704
       702       701       703       702       701       704       703       701       704
       701       704       705       701       704       706       701       704       707
       705       704       706       705       704       707       706       704       707
       704       707       708       704       707       709       704       707       710
       708       707       709       708       707       710       709       707       710
       707       710       711       707       710       712       707       710       713
       711       710       712       711       710       713       712       710       713
       710       713       714       710       713       715       710       713       716
       714       713       715       714       713       716       715       713       716
       713       716       717       713       716       718       713       716       719
       717       716       718       717       716       719       718       716       719
       716       719       720       716       719       721       716       719       722
       720       719       721       720       719       722       721       719       722
       719       722       723       719       722       724       719       722       725
       723       722       724       723       722       725       724       722       725
       722       725       726       722       725       727       722       725       728
       726       725       727       726       725       728       727       725       728
       725       728       729       725       728       730       725       728       731
       729       728       730       729       728       731       730       728       731
       728       731       732       728       731       733       728       731       734
       732       731       733       732       731       734       733       731       734
       683       735       736       683       735       737       736       735       737
       735       737       738       735       737       739       735       737       740
       738       737       739       738       737       740       739       737       740
       737       740       741       737       740       742       737       740       743
       741       740       742       741       740       743       742       740       743
       740       743       744       740       743       745       740       743       746
       744       743       745       744       743       746       745       743       746
       743       746       747       743       746       748       743       746       749
       747       746       748       747       746       749       748       746       749
       746       749       750       746       749       751       746       749       752
       750       749       751       750       749       752       751       749       752
       749       752       753       749       752       754       749       752       755
       753       752       754       753       752       755       754       752       755
       752       755       756       752       755       757       752       755       758
       756       755       757       756       755       758       757       755       758
       755       758       759       755       758       760       759       758       760
       758       760       761       758       760       762       761       760       762
       760       762       763       760       762       764       760       762       765
       763       762       764       763       762       765       764       762       765
       762       765       766       762       765       767       762       765       768
       766       765       767       766       765       768       767       765       768
       765       768       769       765       768       770       765       768       771
       769       768       770       769       768       771       770       768       771
       768       771       772       768       771       773       768       771       774
       772       771       773       772       771       774       773       771       774
       771       774       775       771       774       776       771       774       777
       775       774       776       775       774       777       776       774       777
       774       777       778       774       777       779       774       777       780
       778       777       779       778       777       780       779       777       780
       777       780       781       777       780       782       777       780       783
       781       780       782       781       780       783       782       780       783
       780       783       784       780       783       785       780       783       786
       784       783       785       784       783       786       785       783       786
       788       787       792       788       787       796       788       787       800
       792       787       796       792       787       800       796       787       800
       787       788       789       787       788       790       787       788       791
       789       788       790       789       788       791       790       788       791
       787       792       793       787       792       794       787       792       795
       793       792       794       793       792       795       794       792       795
       787       796       797       787       796       798       787       796       799
       797       796       798       797       796       799       798       796       799
       787       800       801       787       800       802       787       800       803
       801       800       802       801       800       803       802       800       803
       800       803       804       800       803       805       800       803       810
       804       803       805       804       803       810       805       803       810
       807       806       808       807       806       809       807       806       810
       808       806       809       808       806       810       809       806       810
       806       809       811       803       810       806       809       811       812
       809       811       813       809       811       816       812       811       813
       812       811       816       813       811       816       815       814       816
       815       814       866       816       814       866       811       816       814
       811       816       817       811       816       818       814       816       817
       814       816       818       817       816       818       816       818       819
       816       818       820       816       818       822       819       818       820
       819       818       822       820       818       822       818       820       821
       818       822       823       818       822       824       823       822       824
       822       824       825       822       824       826       825       824       826
       824       826       827       824       826       828       824       826       829
       827       826       828       827       826       829       828       826       829
       826       829       830       826       829       831       826       829       832
       830       829       831       830       829       832       831       829       832
       829       832       833       829       832       834       829       832       835
       833       832       834       833       832       835       834       832       835
       832       835       836       832       835       837       832       835       838
       836       835       837       836       835       838       837       835       838
       835       838       839       835       838       840       835       838       841
       839       838       840       839       838       841       840       838       841
       838       841       842       838       841       843       838       841       844
       842       841       843       842       841       844       843       841       844
       841       844       845       841       844       846       841       844       847
       845       844       846       845       844       847       846       844       847
       844       847       848       844       847       849       844       847       850
       848       847       849       848       847       850       849       847       850
       847       850       851       847       850       852       847       850       853
       851       850       852       851       850       853       852       850       853
       850       853       854       850       853       855       850       853       856
       854       853       855       854       853       856       855       853       856
       853       856       857       853       856       858       853       856       859
       857       856       858       857       856       859       858       856       859
       856       859       860       856       859       861       856       859       862
       860       859       861       860       859       862       861       859       862
       859       862       863       859       862       864       859       862       865
       863       862       864       863       862       865       864       862       865
       814       866       867       814       866       868       867       866       868
       866       868       869       866       868       870       866       868       871
       869       868       870       869       868       871       870       868       871
       868       871       872       868       871       873       868       871       874
       872       871       873       872       871       874       873       871       874
       871       874       875       871       874       876       871       874       877
       875       874       876       875       874       877       876       874       877
       874       877       878       874       877       879       874       877       880
       878       877       879       878       877       880       879       877       880
       877       880       881       877       880       882       877       880       883
       881       880       882       881       880       883       882       880       883
       880       883       884       880       883       885       880       883       886
       884       883       885       884       883       886       885       883       886
       883       886       887       883       886       888       883       886       889
       887       886       888       887       886       889       888       886       889
       886       889       890       886       889       891       890       889       891
       889       891       892       889       891       893       892       891       893
       891       893       894       891       893       895       891       893       896
       894       893       895       894       893       896       895       893       896
       893       896       897       893       896       898       893       896       899
       897       896       898       897       896       899       898       896       899
       896       899       900       896       899       901       896       899       902
       900       899       901       900       899       902       901       899       902
       899       902       903       899       902       904       899       902       905
       903       902       904       903       902       905       904       902       905
       902       905       906       902       905       907       902       905       908
       906       905       907       906       905       908       907       905       908
       905       908       909       905       908       910       905       908       911
       909       908       910       909       908       911       910       908       911
       908       911       912       908       911       913       908       911       914
       912       911       913       912       911       914       913       911       914
       911       914       915       911       914       916       911       914       917
       915       914       916       915       914       917       916       914       917
       919       918       923       919       918       927       919       918       931
       923       918       927       923       918       931       927       918       931
       918       919       920       918       919       921       918       919       922
       920       919       921       920       919       922       921       919       922
       918       923       924       918       923       925       918       923       926
       924       923       925       924       923       926       925       923       926
       918       927       928       918       927       929       918       927       930
       928       927       929       928       927       930       929       927       930
       918       931       932       918       931       933       918       931       934
       932       931       933       932       931       934       933       931       934
       931       934       935       931       934       936       931       934       941
       935       934       936       935       934       941       936       934       941
       938       937       939       938       937       940       938       937       941
       939       937       940       939       937       941       940       937       941
       937       940       942       934       941       937       940       942       943
       940       942       944       940       942       947       943       942       944
       943       942       947       944       942       947       946       945       947
       946       945       997       947       945       997       942       947       945
       942       947       948       942       947       949       945       947       948
       945       947       949       948       947       949       947       949       950
       947       949       951       947       949       953       950       949       951
       950       949       953       951       949       953       949       951       952
       949       953       954       949       953       955       954       953       955
       953       955       956       953       955       957       956       955       957
       955       957       958       955       957       959       955       957       960
       958       957       959       958       957       960       959       957       960
       957       960       961       957       960       962       957       960       963
       961       960       962       961       960       963       962       960       963
       960       963       964       960       963       965       960       963       966
       964       963       965       964       963       966       965       963       966
       963       966       967       963       966       968       963       966       969
       967       966       968       967       966       969       968       966       969
       966       969       970       966       969       971       966       969       972
       970       969       971       970       969       972       971       969       972
       969       972       973       969       972       974       969       972       975
       973       972       974       973       972       975       974       972       975
       972       975       976       972       975       977       972       975       978
       976       975       977       976       975       978       977       975       978
       975       978       979       975       978       980       975       978       981
       979       978       980       979       978       981       980       978       981
       978       981       982       978       981       983       978       981       984
       982       981       983       982       981       984       983       981       984
       981       984       985       981       984       986       981       984       987
       985       984       986       985       984       987       986       984       987
       984       987       988       984       987       989       984       987       990
       988       987       989       988       987       990       989       987       990
       987       990       991       987       990       992       987       990       993
       991       990       992       991       990       993       992       990       993
       990       993       994       990       993       995       990       993       996
       994       993       995       994       993       996       995       993       996
       945       997       998       945       997       999       998       997       999
       997       999      1000       997       999      1001       997       999      1002
      1000       999      1001      1000       999      1002      1001       999      1002
       999      1002      1003       999      1002      1004       999      1002      1005
      1003      1002      1004      1003      1002      1005      1004      1002      1005
      1002      1005      1006      1002      1005      1007      1002      1005      1008
      1006      1005      1007      1006      1005      1008      1007      1005      1008
      1005      1008      1009      1005      1008      1010      1005      1008      1011
      1009      1008      1010      1009      1008      1011      1010      1008      1011
      1008      1011      1012      1008      1011      1013      1008      1011      1014
      1012      1011      1013      1012      1011      1014      1013      1011      1014
      1011      1014      1015      1011      1014      1016      1011      1014      1017
      1015      1014      1016      1015      1014      1017      1016      1014      1017
      1014      1017      1018      1014      1017      1019      1014      1017      1020
      1018      1017      1019      1018      1017      1020      1019      1017      1020
      1017      1020      1021      1017      1020      1022      1021      1020      1022
      1020      1022      1023      1020      1022      1024      1023      1022      1024
      1022      1024      1025      1022      1024      1026      1022      1024      1027
      1025      1024      1026      1025      1024      1027      1026      1024      1027
      1024      1027      1028      1024      1027      1029      1024      1027      1030
      1028      1027      1029      1028      1027      1030      1029      1027      1030
      1027      1030      1031      1027      1030      1032      1027      1030      1033
      1031      1030      1032      1031      1030      1033      1032      1030      1033
      1030      1033      1034      1030      1033      1035      1030      1033      1036
      1034      1033      1035      1034      1033      1036      1035      1033      1036
      1033      1036      1037      1033      1036      1038      1033      1036      1039
      1037      1036      1038      1037      1036      1039      1038      1036      1039
      1036      1039      1040      1036      1039      1041      1036      1039      1042
      1040      1039      1041      1040      1039      1042      1041      1039      1042
      1039      1042      1043      1039      1042      1044      1039      1042      1045
      1043      1042      1044      1043      1042      1045      1044      1042      1045
      1042      1045      1046      1042      1045      1047      1042      1045      1048
      1046      1045      1047      1046      1045      1048      1047      1045      1048
     10221     10220     10222     10221     10220     10223     10221     10220     10224
     10222     10220     10223     10222     10220     10224     10223     10220     10224
     10220     10224     10225     10220     10224     10226     10220     10224     10227
     10225     10224     10226     10225     10224     10227     10226     10224     10227
     10224     10227     10228     10224     10227     10229     10224     10227     10233
     10228     10227     10229     10228     10227     10233     10229     10227     10233
     10231     10230     10232     10231     10230     10233     10231     10230     10234
     10232     10230     10233     10232     10230     10234     10233     10230     10234
     10227     10233     10230     10230     10234     10235     10234     10235     10236
     10234     10235     10237     10234     10235     10238     10236     10235     10237
     10236     10235     10238     10237     10235     10238     10235     10238     10239
     10235     10238     10240     10235     10238     10246     10239     10238     10240
     10239     10238     10246     10240     10238     10246     10238     10240     10241
     10240     10241     10242     10240     10241     10243     10242     10241     10243
     10241     10243     10244     10241     10243     10245     10241     10243     10255
     10244     10243     10245     10244     10243     10255     10245     10243     10255
     10238     10246     10247     10238     10246     10248     10238     10246     10249
     10247     10246     10248     10247     10246     10249     10248     10246     10249
     10246     10249     10250     10249     10250     10251     10249     10250     10252
     10251     10250     10252     10250     10252     10253     10250     10252     10254
     10250     10252     10302     10253     10252     10254     10253     10252     10302
     10254     10252     10302     10243     10255     10256     10243     10255     10257
     10243     10255     10258     10256     10255     10257     10256     10255     10258
     10257     10255     10258     10255     10258     10259     10255     10258     10260
     10255     10258     10261     10259     10258     10260     10259     10258     10261
     10260     10258     10261     10258     10261     10262     10258     10261     10263
     10258     10261     10264     10262     10261     10263     10262     10261     10264
     10263     10261     10264     10261     10264     10265     10261     10264     10266
     10261     10264     10267     10265     10264     10266     10265     10264     10267
     10266     10264     10267     10264     10267     10268     10264     10267     10269
     10264     10267     10270     10268     10267     10269     10268     10267     10270
     10269     10267     10270     10267     10270     10271     10267     10270     10272
     10267     10270     10273     10271     10270     10272     10271     10270     10273
     10272     10270     10273     10270     10273     10274     10270     10273     10275
     10274     10273     10275     10273     10275     10276     10273     10275     10277
     10276     10275     10277     10275     10277     10278     10275     10277     10279
     10275     10277     10280     10278     10277     10279     10278     10277     10280
     10279     10277     10280     10277     10280     10281     10277     10280     10282
     10277     10280     10283     10281     10280     10282     10281     10280     10283
     10282     10280     10283     10280     10283     10284     10280     10283     10285
     10280     10283     10286     10284     10283     10285     10284     10283     10286
     10285     10283     10286     10283     10286     10287     10283     10286     10288
     10283     10286     10289     10287     10286     10288     10287     10286     10289
     10288     10286     10289     10286     10289     10290     10286     10289     10291
     10286     10289     10292     10290     10289     10291     10290     10289     10292
     10291     10289     10292     10289     10292     10293     10289     10292     10294
     10289     10292     10295     10293     10292     10294     10293     10292     10295
     10294     10292     10295     10292     10295     10296     10292     10295     10297
     10292     10295     10298     10296     10295     10297     10296     10295     10298
     10297     10295     10298     10295     10298     10299     10295     10298     10300
     10295     10298     10301     10299     10298     10300     10299     10298     10301
     10300     10298     10301     10252     10302     10303     10252     10302     10304
     10252     10302     10305     10303     10302     10304     10303     10302     10305
     10304     10302     10305     10302     10305     10306     10302     10305     10307
     10302     10305     10308     10306     10305     10307     10306     10305     10308
     10307     10305     10308     10305     10308     10309     10305     10308     10310
     10305     10308     10311     10309     10308     10310     10309     10308     10311
     10310     10308     10311     10308     10311     10312     10308     10311     10313
     10308     10311     10314     10312     10311     10313     10312     10311     10314
     10313     10311     10314     10311     10314     10315     10311     10314     10316
     10311     10314     10317     10315     10314     10316     10315     10314     10317
     10316     10314     10317     10314     10317     10318     10314     10317     10319
     10314     10317     10320     10318     10317     10319     10318     10317     10320
     10319     10317     10320     10317     10320     10321     10317     10320     10322
     10317     10320     10323     10321     10320     10322     10321     10320     10323
     10322     10320     10323     10320     10323     10324     10320     10323     10325
     10320     10323     10326     10324     10323     10325     10324     10323     10326
     10325     10323     10326     10323     10326     10327     10323     10326     10328
     10323     10326     10329     10327     10326     10328     10327     10326     10329
     10328     10326     10329     10326     10329     10330     10326     10329     10331
     10326     10329     10332     10330     10329     10331     10330     10329     10332
     10331     10329     10332     10329     10332     10333     10329     10332     10334
     10329     10332     10335     10333     10332     10334     10333     10332     10335
     10334     10332     10335     10332     10335     10336     10332     10335     10337
     10332     10335     10338     10336     10335     10337     10336     10335     10338
     10337     10335     10338     10335     10338     10339     10335     10338     10340
     10335     10338     10341     10339     10338     10340     10339     10338     10341
     10340     10338     10341     10338     10341     10342     10338     10341     10343
     10338     10341     10344     10342     10341     10343     10342     10341     10344
     10343     10341     10344     10341     10344     10345     10341     10344     10346
     10341     10344     10347     10345     10344     10346     10345     10344     10347
     10346     10344     10347     10344     10347     10348     10344     10347     10349
     10344     10347     10350     10348     10347     10349     10348     10347     10350
     10349     10347     10350      1050      1049      1054      1050      1049      1058
      1050      1049      1062      1054      1049      1058      1054      1049      1062
      1058      1049      1062      1049      1050      1051      1049      1050      1052
      1049      1050      1053      1051      1050      1052      1051      1050      1053
      1052      1050      1053      1049      1054      1055      1049      1054      1056
      1049      1054      1057      1055      1054      1056      1055      1054      1057
      1056      1054      1057      1049      1058      1059      1049      1058      1060
      1049      1058      1061      1059      1058      1060      1059      1058      1061
      1060      1058      1061      1049      1062      1063      1049      1062      1064
      1049      1062      1065      1063      1062      1064      1063      1062      1065
      1064      1062      1065      1062      1065      1066      1062      1065      1067
      1062      1065      1072      1066      1065      1067      1066      1065      1072
      1067      1065      1072      1069      1068      1070      1069      1068      1071
      1069      1068      1072      1070      1068      1071      1070      1068      1072
      1071      1068      1072      1068      1071      1073      1065      1072      1068
      1071      1073      1074      1071      1073      1075      1071      1073      1078
      1074      1073      1075      1074      1073      1078      1075      1073      1078
      1077      1076      1078      1077      1076      1128      1078      1076      1128
      1073      1078      1076      1073      1078      1079      1073      1078      1080
      1076      1078      1079      1076      1078      1080      1079      1078      1080
      1078      1080      1081      1078      1080      1082      1078      1080      1084
      1081      1080      1082      1081      1080      1084      1082      1080      1084
      1080      1082      1083      1080      1084      1085      1080      1084      1086
      1085      1084      1086      1084      1086      1087      1084      1086      1088
      1087      1086      1088      1086      1088      1089      1086      1088      1090
      1086      1088      1091      1089      1088      1090      1089      1088      1091
      1090      1088      1091      1088      1091      1092      1088      1091      1093
      1088      1091      1094      1092      1091      1093      1092      1091      1094
      1093      1091      1094      1091      1094      1095      1091      1094      1096
      1091      1094      1097      1095      1094      1096      1095      1094      1097
      1096      1094      1097      1094      1097      1098      1094      1097      1099
      1094      1097      1100      1098      1097      1099      1098      1097      1100
      1099      1097      1100      1097      1100      1101      1097      1100      1102
      1097      1100      1103      1101      1100      1102      1101      1100      1103
      1102      1100      1103      1100      1103      1104      1100      1103      1105
      1100      1103      1106      1104      1103      1105      1104      1103      1106
      1105      1103      1106      1103      1106      1107      1103      1106      1108
      1103      1106      1109      1107      1106      1108      1107      1106      1109
      1108      1106      1109      1106      1109      1110      1106      1109      1111
      1106      1109      1112      1110      1109      1111      1110      1109      1112
      1111      1109      1112      1109      1112      1113      1109      1112      1114
      1109      1112      1115      1113      1112      1114      1113      1112      1115
      1114      1112      1115      1112      1115      1116      1112      1115      1117
      1112      1115      1118      1116      1115      1117      1116      1115      1118
      1117      1115      1118      1115      1118      1119      1115      1118      1120
      1115      1118      1121      1119      1118      1120      1119      1118      1121
      1120      1118      1121      1118      1121      1122      1118      1121      1123
      1118      1121      1124      1122      1121      1123      1122      1121      1124
      1123      1121      1124      1121      1124      1125      1121      1124      1126
      1121      1124      1127      1125      1124      1126      1125      1124      1127
      1126      1124      1127      1076      1128      1129      1076      1128      1130
      1129      1128      1130      1128      1130      1131      1128      1130      1132
      1128      1130      1133      1131      1130      1132      1131      1130      1133
      1132      1130      1133      1130      1133      1134      1130      1133      1135
      1130      1133      1136      1134      1133      1135      1134      1133      1136
      1135      1133      1136      1133      1136      1137      1133      1136      1138
      1133      1136      1139      1137      1136      1138      1137      1136      1139
      1138      1136      1139      1136      1139      1140      1136      1139      1141
      1136      1139      1142      1140      1139      1141      1140      1139      1142
      1141      1139      1142      1139      1142      1143      1139      1142      1144
      1139      1142      1145      1143      1142      1144      1143      1142      1145
      1144      1142      1145      1142      1145      1146      1142      1145      1147
      1142      1145      1148      1146      1145      1147      1146      1145      1148
      1147      1145      1148      1145      1148      1149      1145      1148      1150
      1145      1148      1151      1149      1148      1150      1149      1148      1151
      1150      1148      1151      1148      1151      1152      1148      1151      1153
      1152      1151      1153      1151      1153      1154      1151      1153      1155
      1154      1153      1155      1153      1155      1156      1153      1155      1157
      1153      1155      1158      1156      1155      1157      1156      1155      1158
      1157      1155      1158      1155      1158      1159      1155      1158      1160
      1155      1158      1161      1159      1158      1160      1159      1158      1161
      1160      1158      1161      1158      1161      1162      1158      1161      1163
      1158      1161      1164      1162      1161      1163      1162      1161      1164
      1163      1161      1164      1161      1164      1165      1161      1164      1166
      1161      1164      1167      1165      1164      1166      1165      1164      1167
      1166      1164      1167      1164      1167      1168      1164      1167      1169
      1164      1167      1170      1168      1167      1169      1168      1167      1170
      1169      1167      1170      1167      1170      1171      1167      1170      1172
      1167      1170      1173      1171      1170      1172      1171      1170      1173
      1172      1170      1173      1170      1173      1174      1170      1173      1175
      1170      1173      1176      1174      1173      1175      1174      1173      1176
      1175      1173      1176      1173      1176      1177      1173      1176      1178
      1173      1176      1179      1177      1176      1178      1177      1176      1179
      1178      1176      1179      5850      5849      5851      5850      5849      5853
      5850      5849      5895      5851      5849      5853      5851      5849      5895
      5853      5849      5895      5849      5851      5852      5849      5853      5854
      5849      5853      5855      5849      5853      5856      5854      5853      5855
      5854      5853      5856      5855      5853      5856      5853      5856      5857
      5853      5856      5887      5857      5856      5887      5856      5857      5858
      5856      5857      5859      5858      5857      5859      5857      5859      5860
      5857      5859      5861      5857      5859      5862      5860      5859      5861
      5860      5859      5862      5861      5859      5862      5859      5862      5863
      5859      5862      5864      5859      5862      5885      5863      5862      5864
      5863      5862      5885      5864      5862      5885      5862      5864      5865
      5862      5864      5866      5862      5864      5874      5865      5864      5866
      5865      5864      5874      5866      5864      5874      5864      5866      5867
      5864      5866      5868      5864      5866      5869      5867      5866      5868
      5867      5866      5869      5868      5866      5869      5866      5869      5870
      5866      5869      5871      5866      5869      5872      5870      5869      5871
      5870      5869      5872      5871      5869      5872      5869      5872      5873
      5869      5872      5874      5869      5872      5898      5873      5872      5874
      5873      5872      5898      5874      5872      5898      5864      5874      5872
      5864      5874      5875      5864      5874      5879      5872      5874      5875
      5872      5874      5879      5875      5874      5879      5874      5875      5876
      5874      5875      5877      5874      5875      5878      5876      5875      5877
      5876      5875      5878      5877      5875      5878      5874      5879      5880
      5874      5879      5881      5874      5879      5882      5880      5879      5881
      5880      5879      5882      5881      5879      5882      5879      5882      5883
      5879      5882      5884      5879      5882      5885      5883      5882      5884
      5883      5882      5885      5884      5882      5885      5862      5885      5882
      5862      5885      5886      5862      5885      5887      5882      5885      5886
      5882      5885      5887      5886      5885      5887      5856      5887      5885
      5856      5887      5888      5856      5887      5892      5885      5887      5888
      5885      5887      5892      5888      5887      5892      5887      5888      5889
      5887      5888      5890      5887      5888      5891      5889      5888      5890
      5889      5888      5891      5890      5888      5891      5887      5892      5893
      5887      5892      5894      5887      5892      5895      5893      5892      5894
      5893      5892      5895      5894      5892      5895      5849      5895      5892
      5849      5895      5896      5849      5895      5897      5892      5895      5896
      5892      5895      5897      5896      5895      5897      5872      5898      5899
      5872      5898      5900      5872      5898      5904      5899      5898      5900
      5899      5898      5904      5900      5898      5904      5898      5900      5901
      5898      5900      5902      5898      5900      5903      5901      5900      5902
      5901      5900      5903      5902      5900      5903      5898      5904      5905
      5898      5904      5906      5898      5904      5907      5905      5904      5906
      5905      5904      5907      5906      5904      5907      5904      5907      5908
      5904      5907      5909      5904      5907      5910      5908      5907      5909
      5908      5907      5910      5909      5907      5910      5907      5910      5911
      5907      5910      5912      5907      5910      5913      5911      5910      5912
      5911      5910      5913      5912      5910      5913      5910      5913      5914
      5910      5913      5915      5910      5913      5919      5914      5913      5915
      5914      5913      5919      5915      5913      5919      5913      5915      5916
      5913      5915      5917      5913      5915      5918      5916      5915      5917
      5916      5915      5918      5917      5915      5918      5913      5919      5920
      5913      5919      5921      5913      5919      5922      5920      5919      5921
      5920      5919      5922      5921      5919      5922      4079      4078      4080
      4079      4078      4081      4079      4078      4082      4080      4078      4081
      4080      4078      4082      4081      4078      4082      4078      4082      4083
      4078      4082      4084      4078      4082      4085      4083      4082      4084
      4083      4082      4085      4084      4082      4085      4082      4085      4086
      4082      4085      4087      4082      4085      4091      4086      4085      4087
      4086      4085      4091      4087      4085      4091      4089      4088      4090
      4089      4088      4091      4089      4088      4092      4090      4088      4091
      4090      4088      4092      4091      4088      4092      4085      4091      4088
      4088      4092      4093      4092      4093      4094      4092      4093      4095
      4092      4093      4096      4094      4093      4095      4094      4093      4096
      4095      4093      4096      4093      4096      4097      4093      4096      4098
      4093      4096      4104      4097      4096      4098      4097      4096      4104
      4098      4096      4104      4096      4098      4099      4098      4099      4100
      4098      4099      4101      4100      4099      4101      4099      4101      4102
      4099      4101      4103      4099      4101      4113      4102      4101      4103
      4102      4101      4113      4103      4101      4113      4096      4104      4105
      4096      4104      4106      4096      4104      4107      4105      4104      4106
      4105      4104      4107      4106      4104      4107      4104      4107      4108
      4107      4108      4109      4107      4108      4110      4109      4108      4110
      4108      4110      4111      4108      4110      4112      4108      4110      4160
      4111      4110      4112      4111      4110      4160      4112      4110      4160
      4101      4113      4114      4101      4113      4115      4101      4113      4116
      4114      4113      4115      4114      4113      4116      4115      4113      4116
      4113      4116      4117      4113      4116      4118      4113      4116      4119
      4117      4116      4118      4117      4116      4119      4118      4116      4119
      4116      4119      4120      4116      4119      4121      4120      4119      4121
      4119      4121      4122      4119      4121      4123      4122      4121      4123
      4121      4123      4124      4121      4123      4125      4121      4123      4126
      4124      4123      4125      4124      4123      4126      4125      4123      4126
      4123      4126      4127      4123      4126      4128      4127      4126      4128
      4126      4128      4129      4126      4128      4130      4129      4128      4130
      4128      4130      4131      4128      4130      4132      4128      4130      4133
      4131      4130      4132      4131      4130      4133      4132      4130      4133
      4130      4133      4134      4130      4133      4135      4134      4133      4135
      4133      4135      4136      4133      4135      4137      4136      4135      4137
      4135      4137      4138      4135      4137      4139      4135      4137      4140
      4138      4137      4139      4138      4137      4140      4139      4137      4140
      4137      4140      4141      4137      4140      4142      4141      4140      4142
      4140      4142      4143      4140      4142      4144      4143      4142      4144
      4142      4144      4145      4142      4144      4146      4142      4144      4147
      4145      4144      4146      4145      4144      4147      4146      4144      4147
      4144      4147      4148      4144      4147      4149      4144      4147      4150
      4148      4147      4149      4148      4147      4150      4149      4147      4150
      4147      4150      4151      4147      4150      4152      4147      4150      4153
      4151      4150      4152      4151      4150      4153      4152      4150      4153
      4150      4153      4154      4150      4153      4155      4150      4153      4156
      4154      4153      4155      4154      4153      4156      4155      4153      4156
      4153      4156      4157      4153      4156      4158      4153      4156      4159
      4157      4156      4158      4157      4156      4159      4158      4156      4159
      4110      4160      4161      4110      4160      4162      4110      4160      4163
      4161      4160      4162      4161      4160      4163      4162      4160      4163
      4160      4163      4164      4160      4163      4165      4160      4163      4166
      4164      4163      4165      4164      4163      4166      4165      4163      4166
      4163      4166      4167      4163      4166      4168      4163      4166      4169
      4167      4166      4168      4167      4166      4169      4168      4166      4169
      4166      4169      4170      4166      4169      4171      4166      4169      4172
      4170      4169      4171      4170      4169      4172      4171      4169      4172
      4169      4172      4173      4169      4172      4174      4169      4172      4175
      4173      4172      4174      4173      4172      4175      4174      4172      4175
      4172      4175      4176      4172      4175      4177      4172      4175      4178
      4176      4175      4177      4176      4175      4178      4177      4175      4178
      4175      4178      4179      4175      4178      4180      4175      4178      4181
      4179      4178      4180      4179      4178      4181      4180      4178      4181
      4178      4181      4182      4178      4181      4183      4178      4181      4184
      4182      4181      4183      4182      4181      4184      4183      4181      4184
      4181      4184      4185      4181      4184      4186      4181      4184      4187
      4185      4184      4186      4185      4184      4187      4186      4184      4187
      4184      4187      4188      4184      4187      4189      4184      4187      4190
      4188      4187      4189      4188      4187      4190      4189      4187      4190
      4187      4190      4191      4187      4190      4192      4187      4190      4193
      4191      4190      4192      4191      4190      4193      4192      4190      4193
      4190      4193      4194      4190      4193      4195      4190      4193      4196
      4194      4193      4195      4194      4193      4196      4195      4193      4196
      4193      4196      4197      4193      4196      4198      4193      4196      4199
      4197      4196      4198      4197      4196      4199      4198      4196      4199
      4196      4199      4200      4196      4199      4201      4196      4199      4202
      4200      4199      4201      4200      4199      4202      4201      4199      4202
      4199      4202      4203      4199      4202      4204      4199      4202      4205
      4203      4202      4204      4203      4202      4205      4204      4202      4205
      4202      4205      4206      4202      4205      4207      4202      4205      4208
      4206      4205      4207      4206      4205      4208      4207      4205      4208
      2626      2625      2627      2626      2625      2628      2626      2625      2629
      2627      2625      2628      2627      2625      2629      2628      2625      2629
      2625      2629      2630      2625      2629      2631      2625      2629      2634
      2630      2629      2631      2630      2629      2634      2631      2629      2634
      2629      2631      2632      2629      2631      2633      2632      2631      2633
      2629      2634      2635      2629      2634      2636      2629      2634      2640
      2635      2634      2636      2635      2634      2640      2636      2634      2640
      2638      2637      2639      2638      2637      2640      2638      2637      2641
      2639      2637      2640      2639      2637      2641      2640      2637      2641
      2634      2640      2637      2637      2641      2642      2641      2642      2643
      2641      2642      2644      2641      2642      2645      2643      2642      2644
      2643      2642      2645      2644      2642      2645      2642      2645      2646
      2642      2645      2647      2642      2645      2653      2646      2645      2647
      2646      2645      2653      2647      2645      2653      2645      2647      2648
      2647      2648      2649      2647      2648      2650      2649      2648      2650
      2648      2650      2651      2648      2650      2652      2648      2650      2662
      2651      2650      2652      2651      2650      2662      2652      2650      2662
      2645      2653      2654      2645      2653      2655      2645      2653      2656
      2654      2653      2655      2654      2653      2656      2655      2653      2656
      2653      2656      2657      2656      2657      2658      2656      2657      2659
      2658      2657      2659      2657      2659      2660      2657      2659      2661
      2657      2659      2709      2660      2659      2661      2660      2659      2709
      2661      2659      2709      2650      2662      2663      2650      2662      2664
      2650      2662      2665      2663      2662      2664      2663      2662      2665
      2664      2662      2665      2662      2665      2666      2662      2665      2667
      2662      2665      2668      2666      2665      2667      2666      2665      2668
      2667      2665      2668      2665      2668      2669      2665      2668      2670
      2669      2668      2670      2668      2670      2671      2668      2670      2672
      2671      2670      2672      2670      2672      2673      2670      2672      2674
      2670      2672      2675      2673      2672      2674      2673      2672      2675
      2674      2672      2675      2672      2675      2676      2672      2675      2677
      2676      2675      2677      2675      2677      2678      2675      2677      2679
      2678      2677      2679      2677      2679      2680      2677      2679      2681
      2677      2679      2682      2680      2679      2681      2680      2679      2682
      2681      2679      2682      2679      2682      2683      2679      2682      2684
      2683      2682      2684      2682      2684      2685      2682      2684      2686
      2685      2684      2686      2684      2686      2687      2684      2686      2688
      2684      2686      2689      2687      2686      2688      2687      2686      2689
      2688      2686      2689      2686      2689      2690      2686      2689      2691
      2690      2689      2691      2689      2691      2692      2689      2691      2693
      2692      2691      2693      2691      2693      2694      2691      2693      2695
      2691      2693      2696      2694      2693      2695      2694      2693      2696
      2695      2693      2696      2693      2696      2697      2693      2696      2698
      2693      2696      2699      2697      2696      2698      2697      2696      2699
      2698      2696      2699      2696      2699      2700      2696      2699      2701
      2696      2699      2702      2700      2699      2701      2700      2699      2702
      2701      2699      2702      2699      2702      2703      2699      2702      2704
      2699      2702      2705      2703      2702      2704      2703      2702      2705
      2704      2702      2705      2702      2705      2706      2702      2705      2707
      2702      2705      2708      2706      2705      2707      2706      2705      2708
      2707      2705      2708      2659      2709      2710      2659      2709      2711
      2659      2709      2712      2710      2709      2711      2710      2709      2712
      2711      2709      2712      2709      2712      2713      2709      2712      2714
      2709      2712      2715      2713      2712      2714      2713      2712      2715
      2714      2712      2715      2712      2715      2716      2712      2715      2717
      2712      2715      2718      2716      2715      2717      2716      2715      2718
      2717      2715      2718      2715      2718      2719      2715      2718      2720
      2715      2718      2721      2719      2718      2720      2719      2718      2721
      2720      2718      2721      2718      2721      2722      2718      2721      2723
      2718      2721      2724      2722      2721      2723      2722      2721      2724
      2723      2721      2724      2721      2724      2725      2721      2724      2726
      2721      2724      2727      2725      2724      2726      2725      2724      2727
      2726      2724      2727      2724      2727      2728      2724      2727      2729
      2724      2727      2730      2728      2727      2729      2728      2727      2730
      2729      2727      2730      2727      2730      2731      2727      2730      2732
      2727      2730      2733      2731      2730      2732      2731      2730      2733
      2732      2730      2733      2730      2733      2734      2730      2733      2735
      2730      2733      2736      2734      2733      2735      2734      2733      2736
      2735      2733      2736      2733      2736      2737      2733      2736      2738
      2733      2736      2739      2737      2736      2738      2737      2736      2739
      2738      2736      2739      2736      2739      2740      2736      2739      2741
      2736      2739      2742      2740      2739      2741      2740      2739      2742
      2741      2739      2742      2739      2742      2743      2739      2742      2744
      2739      2742      2745      2743      2742      2744      2743      2742      2745
      2744      2742      2745      2742      2745      2746      2742      2745      2747
      2742      2745      2748      2746      2745      2747      2746      2745      2748
      2747      2745      2748      2745      2748      2749      2745      2748      2750
      2745      2748      2751      2749      2748      2750      2749      2748      2751
      2750      2748      2751      2748      2751      2752      2748      2751      2753
      2748      2751      2754      2752      2751      2753      2752      2751      2754
      2753      2751      2754      2751      2754      2755      2751      2754      2756
      2751      2754      2757      2755      2754      2756      2755      2754      2757
      2756      2754      2757      8714      8713      8717      8714      8713      8721
      8714      8713      8725      8717      8713      8721      8717      8713      8725
      8721      8713      8725      8713      8714      8715      8713      8714      8716
      8713      8714      8729      8715      8714      8716      8715      8714      8729
      8716      8714      8729      8713      8717      8718      8713      8717      8719
      8713      8717      8720      8718      8717      8719      8718      8717      8720
      8719      8717      8720      8713      8721      8722      8713      8721      8723
      8713      8721      8724      8722      8721      8723      8722      8721      8724
      8723      8721      8724      8713      8725      8726      8713      8725      8727
      8713      8725      8728      8726      8725      8727      8726      8725      8728
      8727      8725      8728      8714      8729      8730      8714      8729      8731
      8714      8729      8735      8730      8729      8731      8730      8729      8735
      8731      8729      8735      8733      8732      8734      8733      8732      8735
      8733      8732      8736      8734      8732      8735      8734      8732      8736
      8735      8732      8736      8729      8735      8732      8732      8736      8737
      8736      8737      8738      8736      8737      8739      8736      8737      8740
      8738      8737      8739      8738      8737      8740      8739      8737      8740
      8737      8740      8741      8737      8740      8742      8737      8740      8748
      8741      8740      8742      8741      8740      8748      8742      8740      8748
      8740      8742      8743      8742      8743      8744      8742      8743      8745
      8744      8743      8745      8743      8745      8746      8743      8745      8747
      8743      8745      8757      8746      8745      8747      8746      8745      8757
      8747      8745      8757      8740      8748      8749      8740      8748      8750
      8740      8748      8751      8749      8748      8750      8749      8748      8751
      8750      8748      8751      8748      8751      8752      8751      8752      8753
      8751      8752      8754      8753      8752      8754      8752      8754      8755
      8752      8754      8756      8752      8754      8804      8755      8754      8756
      8755      8754      8804      8756      8754      8804      8745      8757      8758
      8745      8757      8759      8745      8757      8760      8758      8757      8759
      8758      8757      8760      8759      8757      8760      8757      8760      8761
      8757      8760      8762      8757      8760      8763      8761      8760      8762
      8761      8760      8763      8762      8760      8763      8760      8763      8764
      8760      8763      8765      8764      8763      8765      8763      8765      8766
      8763      8765      8767      8766      8765      8767      8765      8767      8768
      8765      8767      8769      8765      8767      8770      8768      8767      8769
      8768      8767      8770      8769      8767      8770      8767      8770      8771
      8767      8770      8772      8771      8770      8772      8770      8772      8773
      8770      8772      8774      8773      8772      8774      8772      8774      8775
      8772      8774      8776      8772      8774      8777      8775      8774      8776
      8775      8774      8777      8776      8774      8777      8774      8777      8778
      8774      8777      8779      8778      8777      8779      8777      8779      8780
      8777      8779      8781      8780      8779      8781      8779      8781      8782
      8779      8781      8783      8779      8781      8784      8782      8781      8783
      8782      8781      8784      8783      8781      8784      8781      8784      8785
      8781      8784      8786      8785      8784      8786      8784      8786      8787
      8784      8786      8788      8787      8786      8788      8786      8788      8789
      8786      8788      8790      8786      8788      8791      8789      8788      8790
      8789      8788      8791      8790      8788      8791      8788      8791      8792
      8788      8791      8793      8788      8791      8794      8792      8791      8793
      8792      8791      8794      8793      8791      8794      8791      8794      8795
      8791      8794      8796      8791      8794      8797      8795      8794      8796
      8795      8794      8797      8796      8794      8797      8794      8797      8798
      8794      8797      8799      8794      8797      8800      8798      8797      8799
      8798      8797      8800      8799      8797      8800      8797      8800      8801
      8797      8800      8802      8797      8800      8803      8801      8800      8802
      8801      8800      8803      8802      8800      8803      8754      8804      8805
      8754      8804      8806      8754      8804      8807      8805      8804      8806
      8805      8804      8807      8806      8804      8807      8804      8807      8808
      8804      8807      8809      8804      8807      8810      8808      8807      8809
      8808      8807      8810      8809      8807      8810      8807      8810      8811
      8807      8810      8812      8807      8810      8813      8811      8810      8812
      8811      8810      8813      8812      8810      8813      8810      8813      8814
      8810      8813      8815      8810      8813      8816      8814      8813      8815
      8814      8813      8816      8815      8813      8816      8813      8816      8817
      8813      8816      8818      8813      8816      8819      8817      8816      8818
      8817      8816      8819      8818      8816      8819      8816      8819      8820
      8816      8819      8821      8816      8819      8822      8820      8819      8821
      8820      8819      8822      8821      8819      8822      8819      8822      8823
      8819      8822      8824      8819      8822      8825      8823      8822      8824
      8823      8822      8825      8824      8822      8825      8822      8825      8826
      8822      8825      8827      8822      8825      8828      8826      8825      8827
      8826      8825      8828      8827      8825      8828      8825      8828      8829
      8825      8828      8830      8825      8828      8831      8829      8828      8830
      8829      8828      8831      8830      8828      8831      8828      8831      8832
      8828      8831      8833      8828      8831      8834      8832      8831      8833
      8832      8831      8834      8833      8831      8834      8831      8834      8835
      8831      8834      8836      8831      8834      8837      8835      8834      8836
      8835      8834      8837      8836      8834      8837      8834      8837      8838
      8834      8837      8839      8834      8837      8840      8838      8837      8839
      8838      8837      8840      8839      8837      8840      8837      8840      8841
      8837      8840      8842      8837      8840      8843      8841      8840      8842
      8841      8840      8843      8842      8840      8843      8840      8843      8844
      8840      8843      8845      8840      8843      8846      8844      8843      8845
      8844      8843      8846      8845      8843      8846      8843      8846      8847
      8843      8846      8848      8843      8846      8849      8847      8846      8848
      8847      8846      8849      8848      8846      8849      8846      8849      8850
      8846      8849      8851      8846      8849      8852      8850      8849      8851
      8850      8849      8852      8851      8849      8852      9688      9687      9691
      9688      9687      9695      9688      9687      9699      9691      9687      9695
      9691      9687      9699      9695      9687      9699      9687      9688      9689
      9687      9688      9690      9687      9688      9703      9689      9688      9690
      9689      9688      9703      9690      9688      9703      9687      9691      9692
      9687      9691      9693      9687      9691      9694      9692      9691      9693
      9692      9691      9694      9693      9691      9694      9687      9695      9696
      9687      9695      9697      9687      9695      9698      9696      9695      9697
      9696      9695      9698      9697      9695      9698      9687      9699      9700
      9687      9699      9701      9687      9699      9702      9700      9699      9701
      9700      9699      9702      9701      9699      9702      9688      9703      9704
      9688      9703      9705      9688      9703      9709      9704      9703      9705
      9704      9703      9709      9705      9703      9709      9707      9706      9708
      9707      9706      9709      9707      9706      9710      9708      9706      9709
      9708      9706      9710      9709      9706      9710      9703      9709      9706
      9706      9710      9711      9710      9711      9712      9710      9711      9713
      9710      9711      9714      9712      9711      9713      9712      9711      9714
      9713      9711      9714      9711      9714      9715      9711      9714      9716
      9711      9714      9722      9715      9714      9716      9715      9714      9722
      9716      9714      9722      9714      9716      9717      9716      9717      9718
      9716      9717      9719      9718      9717      9719      9717      9719      9720
      9717      9719      9721      9717      9719      9731      9720      9719      9721
      9720      9719      9731      9721      9719      9731      9714      9722      9723
      9714      9722      9724      9714      9722      9725      9723      9722      9724
      9723      9722      9725      9724      9722      9725      9722      9725      9726
      9725      9726      9727      9725      9726      9728      9727      9726      9728
      9726      9728      9729      9726      9728      9730      9726      9728      9778
      9729      9728      9730      9729      9728      9778      9730      9728      9778
      9719      9731      9732      9719      9731      9733      9719      9731      9734
      9732      9731      9733      9732      9731      9734      9733      9731      9734
      9731      9734      9735      9731      9734      9736      9731      9734      9737
      9735      9734      9736      9735      9734      9737      9736      9734      9737
      9734      9737      9738      9734      9737      9739      9734      9737      9740
      9738      9737      9739      9738      9737      9740      9739      9737      9740
      9737      9740      9741      9737      9740      9742      9737      9740      9743
      9741      9740      9742      9741      9740      9743      9742      9740      9743
      9740      9743      9744      9740      9743      9745      9740      9743      9746
      9744      9743      9745      9744      9743      9746      9745      9743      9746
      9743      9746      9747      9743      9746      9748      9743      9746      9749
      9747      9746      9748      9747      9746      9749      9748      9746      9749
      9746      9749      9750      9746      9749      9751      9750      9749      9751
      9749      9751      9752      9749      9751      9753      9752      9751      9753
      9751      9753      9754      9751      9753      9755      9751      9753      9756
      9754      9753      9755      9754      9753      9756      9755      9753      9756
      9753      9756      9757      9753      9756      9758      9753      9756      9759
      9757      9756      9758      9757      9756      9759      9758      9756      9759
      9756      9759      9760      9756      9759      9761      9756      9759      9762
      9760      9759      9761      9760      9759      9762      9761      9759      9762
      9759      9762      9763      9759      9762      9764      9759      9762      9765
      9763      9762      9764      9763      9762      9765      9764      9762      9765
      9762      9765      9766      9762      9765      9767      9762      9765      9768
      9766      9765      9767      9766      9765      9768      9767      9765      9768
      9765      9768      9769      9765      9768      9770      9765      9768      9771
      9769      9768      9770      9769      9768      9771      9770      9768      9771
      9768      9771      9772      9768      9771      9773      9768      9771      9774
      9772      9771      9773      9772      9771      9774      9773      9771      9774
      9771      9774      9775      9771      9774      9776      9771      9774      9777
      9775      9774      9776      9775      9774      9777      9776      9774      9777
      9728      9778      9779      9728      9778      9780      9728      9778      9781
      9779      9778      9780      9779      9778      9781      9780      9778      9781
      9778      9781      9782      9778      9781      9783      9778      9781      9784
      9782      9781      9783      9782      9781      9784      9783      9781      9784
      9781      9784      9785      9781      9784      9786      9781      9784      9787
      9785      9784      9786      9785      9784      9787      9786      9784      9787
      9784      9787      9788      9784      9787      9789      9784      9787      9790
      9788      9787      9789      9788      9787      9790      9789      9787      9790
      9787      9790      9791      9787      9790      9792      9787      9790      9793
      9791      9790      9792      9791      9790      9793      9792      9790      9793
      9790      9793      9794      9790      9793      9795      9790      9793      9796
      9794      9793      9795      9794      9793      9796      9795      9793      9796
      9793      9796      9797      9793      9796      9798      9793      9796      9799
      9797      9796      9798      9797      9796      9799      9798      9796      9799
      9796      9799      9800      9796      9799      9801      9796      9799      9802
      9800      9799      9801      9800      9799      9802      9801      9799      9802
      9799      9802      9803      9799      9802      9804      9799      9802      9805
      9803      9802      9804      9803      9802      9805      9804      9802      9805
      9802      9805      9806      9802      9805      9807      9802      9805      9808
      9806      9805      9807      9806      9805      9808      9807      9805      9808
      9805      9808      9809      9805      9808      9810      9805      9808      9811
      9809      9808      9810      9809      9808      9811      9810      9808      9811
      9808      9811      9812      9808      9811      9813      9808      9811      9814
      9812      9811      9813      9812      9811      9814      9813      9811      9814
      9811      9814      9815      9811      9814      9816      9811      9814      9817
      9815      9814      9816      9815      9814      9817      9816      9814      9817
      9814      9817      9818      9814      9817      9819      9814      9817      9820
      9818      9817      9819      9818      9817      9820      9819      9817      9820
      4210      4209      4211      4210      4209      4212      4210      4209      4213
      4211      4209      4212      4211      4209      4213      4212      4209      4213
      4209      4213      4214      4209      4213      4215      4209      4213      4216
      4214      4213      4215      4214      4213      4216      4215      4213      4216
      4213      4216      4217      4213      4216      4218      4213      4216      4222
      4217      4216      4218      4217      4216      4222      4218      4216      4222
      4220      4219      4221      4220      4219      4222      4220      4219      4223
      4221      4219      4222      4221      4219      4223      4222      4219      4223
      4216      4222      4219      4219      4223      4224      4223      4224      4225
      4223      4224      4226      4223      4224      4227      4225      4224      4226
      4225      4224      4227      4226      4224      4227      4224      4227      4228
      4224      4227      4229      4224      4227      4235      4228      4227      4229
      4228      4227      4235      4229      4227      4235      4227      4229      4230
      4229      4230      4231      4229      4230      4232      4231      4230      4232
      4230      4232      4233      4230      4232      4234      4230      4232      4244
      4233      4232      4234      4233      4232      4244      4234      4232      4244
      4227      4235      4236      4227      4235      4237      4227      4235      4238
      4236      4235      4237      4236      4235      4238      4237      4235      4238
      4235      4238      4239      4238      4239      4240      4238      4239      4241
      4240      4239      4241      4239      4241      4242      4239      4241      4243
      4239      4241      4291      4242      4241      4243      4242      4241      4291
      4243      4241      4291      4232      4244      4245      4232      4244      4246
      4232      4244      4247      4245      4244      4246      4245      4244      4247
      4246      4244      4247      4244      4247      4248      4244      4247      4249
      4244      4247      4250      4248      4247      4249      4248      4247      4250
      4249      4247      4250      4247      4250      4251      4247      4250      4252
      4251      4250      4252      4250      4252      4253      4250      4252      4254
      4253      4252      4254      4252      4254      4255      4252      4254      4256
      4252      4254      4257      4255      4254      4256      4255      4254      4257
      4256      4254      4257      4254      4257      4258      4254      4257      4259
      4258      4257      4259      4257      4259      4260      4257      4259      4261
      4260      4259      4261      4259      4261      4262      4259      4261      4263
      4259      4261      4264      4262      4261      4263      4262      4261      4264
      4263      4261      4264      4261      4264      4265      4261      4264      4266
      4265      4264      4266      4264      4266      4267      4264      4266      4268
      4267      4266      4268      4266      4268      4269      4266      4268      4270
      4266      4268      4271      4269      4268      4270      4269      4268      4271
      4270      4268      4271      4268      4271      4272      4268      4271      4273
      4272      4271      4273      4271      4273      4274      4271      4273      4275
      4274      4273      4275      4273      4275      4276      4273      4275      4277
      4273      4275      4278      4276      4275      4277      4276      4275      4278
      4277      4275      4278      4275      4278      4279      4275      4278      4280
      4275      4278      4281      4279      4278      4280      4279      4278      4281
      4280      4278      4281      4278      4281      4282      4278      4281      4283
      4278      4281      4284      4282      4281      4283      4282      4281      4284
      4283      4281      4284      4281      4284      4285      4281      4284      4286
      4281      4284      4287      4285      4284      4286      4285      4284      4287
      4286      4284      4287      4284      4287      4288      4284      4287      4289
      4284      4287      4290      4288      4287      4289      4288      4287      4290
      4289      4287      4290      4241      4291      4292      4241      4291      4293
      4241      4291      4294      4292      4291      4293      4292      4291      4294
      4293      4291      4294      4291      4294      4295      4291      4294      4296
      4291      4294      4297      4295      4294      4296      4295      4294      4297
      4296      4294      4297      4294      4297      4298      4294      4297      4299
      4294      4297      4300      4298      4297      4299      4298      4297      4300
      4299      4297      4300      4297      4300      4301      4297      4300      4302
      4297      4300      4303      4301      4300      4302      4301      4300      4303
      4302      4300      4303      4300      4303      4304      4300      4303      4305
      4300      4303      4306      4304      4303      4305      4304      4303      4306
      4305      4303      4306      4303      4306      4307      4303      4306      4308
      4303      4306      4309      4307      4306      4308      4307      4306      4309
      4308      4306      4309      4306      4309      4310      4306      4309      4311
      4306      4309      4312      4310      4309      4311      4310      4309      4312
      4311      4309      4312      4309      4312      4313      4309      4312      4314
      4309      4312      4315      4313      4312      4314      4313      4312      4315
      4314      4312      4315      4312      4315      4316      4312      4315      4317
      4312      4315      4318      4316      4315      4317      4316      4315      4318
      4317      4315      4318      4315      4318      4319      4315      4318      4320
      4315      4318      4321      4319      4318      4320      4319      4318      4321
      4320      4318      4321      4318      4321      4322      4318      4321      4323
      4318      4321      4324      4322      4321      4323      4322      4321      4324
      4323      4321      4324      4321      4324      4325      4321      4324      4326
      4321      4324      4327      4325      4324      4326      4325      4324      4327
      4326      4324      4327      4324      4327      4328      4324      4327      4329
      4324      4327      4330      4328      4327      4329      4328      4327      4330
      4329      4327      4330      4327      4330      4331      4327      4330      4332
      4327      4330      4333      4331      4330      4332      4331      4330      4333
      4332      4330      4333      4330      4333      4334      4330      4333      4335
      4330      4333      4336      4334      4333      4335      4334      4333      4336
      4335      4333      4336      4333      4336      4337      4333      4336      4338
      4333      4336      4339      4337      4336      4338      4337      4336      4339
      4338      4336      4339     10352     10351     10353     10352     10351     10354
     10352     10351     10355     10353     10351     10354     10353     10351     10355
     10354     10351     10355     10351     10355     10356     10351     10355     10357
     10351     10355     10358     10356     10355     10357     10356     10355     10358
     10357     10355     10358     10355     10358     10359     10355     10358     10360
     10355     10358     10364     10359     10358     10360     10359     10358     10364
     10360     10358     10364     10362     10361     10363     10362     10361     10364
     10362     10361     10365     10363     10361     10364     10363     10361     10365
     10364     10361     10365     10358     10364     10361     10361     10365     10366
     10365     10366     10367     10365     10366     10368     10365     10366     10369
     10367     10366     10368     10367     10366     10369     10368     10366     10369
     10366     10369     10370     10366     10369     10371     10366     10369     10377
     10370     10369     10371     10370     10369     10377     10371     10369     10377
     10369     10371     10372     10371     10372     10373     10371     10372     10374
     10373     10372     10374     10372     10374     10375     10372     10374     10376
     10372     10374     10386     10375     10374     10376     10375     10374     10386
     10376     10374     10386     10369     10377     10378     10369     10377     10379
     10369     10377     10380     10378     10377     10379     10378     10377     10380
     10379     10377     10380     10377     10380     10381     10380     10381     10382
     10380     10381     10383     10382     10381     10383     10381     10383     10384
     10381     10383     10385     10381     10383     10433     10384     10383     10385
     10384     10383     10433     10385     10383     10433     10374     10386     10387
     10374     10386     10388     10374     10386     10389     10387     10386     10388
     10387     10386     10389     10388     10386     10389     10386     10389     10390
     10386     10389     10391     10386     10389     10392     10390     10389     10391
     10390     10389     10392     10391     10389     10392     10389     10392     10393
     10389     10392     10394     10389     10392     10395     10393     10392     10394
     10393     10392     10395     10394     10392     10395     10392     10395     10396
     10392     10395     10397     10392     10395     10398     10396     10395     10397
     10396     10395     10398     10397     10395     10398     10395     10398     10399
     10395     10398     10400     10395     10398     10401     10399     10398     10400
     10399     10398     10401     10400     10398     10401     10398     10401     10402
     10398     10401     10403     10398     10401     10404     10402     10401     10403
     10402     10401     10404     10403     10401     10404     10401     10404     10405
     10401     10404     10406     10405     10404     10406     10404     10406     10407
     10404     10406     10408     10407     10406     10408     10406     10408     10409
     10406     10408     10410     10406     10408     10411     10409     10408     10410
     10409     10408     10411     10410     10408     10411     10408     10411     10412
     10408     10411     10413     10408     10411     10414     10412     10411     10413
     10412     10411     10414     10413     10411     10414     10411     10414     10415
     10411     10414     10416     10411     10414     10417     10415     10414     10416
     10415     10414     10417     10416     10414     10417     10414     10417     10418
     10414     10417     10419     10414     10417     10420     10418     10417     10419
     10418     10417     10420     10419     10417     10420     10417     10420     10421
     10417     10420     10422     10417     10420     10423     10421     10420     10422
     10421     10420     10423     10422     10420     10423     10420     10423     10424
     10420     10423     10425     10420     10423     10426     10424     10423     10425
     10424     10423     10426     10425     10423     10426     10423     10426     10427
     10423     10426     10428     10423     10426     10429     10427     10426     10428
     10427     10426     10429     10428     10426     10429     10426     10429     10430
     10426     10429     10431     10426     10429     10432     10430     10429     10431
     10430     10429     10432     10431     10429     10432     10383     10433     10434
     10383     10433     10435     10383     10433     10436     10434     10433     10435
     10434     10433     10436     10435     10433     10436     10433     10436     10437
     10433     10436     10438     10433     10436     10439     10437     10436     10438
     10437     10436     10439     10438     10436     10439     10436     10439     10440
     10436     10439     10441     10436     10439     10442     10440     10439     10441
     10440     10439     10442     10441     10439     10442     10439     10442     10443
     10439     10442     10444     10439     10442     10445     10443     10442     10444
     10443     10442     10445     10444     10442     10445     10442     10445     10446
     10442     10445     10447     10442     10445     10448     10446     10445     10447
     10446     10445     10448     10447     10445     10448     10445     10448     10449
     10445     10448     10450     10445     10448     10451     10449     10448     10450
     10449     10448     10451     10450     10448     10451     10448     10451     10452
     10448     10451     10453     10448     10451     10454     10452     10451     10453
     10452     10451     10454     10453     10451     10454     10451     10454     10455
     10451     10454     10456     10451     10454     10457     10455     10454     10456
     10455     10454     10457     10456     10454     10457     10454     10457     10458
     10454     10457     10459     10454     10457     10460     10458     10457     10459
     10458     10457     10460     10459     10457     10460     10457     10460     10461
     10457     10460     10462     10457     10460     10463     10461     10460     10462
     10461     10460     10463     10462     10460     10463     10460     10463     10464
     10460     10463     10465     10460     10463     10466     10464     10463     10465
     10464     10463     10466     10465     10463     10466     10463     10466     10467
     10463     10466     10468     10463     10466     10469     10467     10466     10468
     10467     10466     10469     10468     10466     10469     10466     10469     10470
     10466     10469     10471     10466     10469     10472     10470     10469     10471
     10470     10469     10472     10471     10469     10472     10469     10472     10473
     10469     10472     10474     10469     10472     10475     10473     10472     10474
     10473     10472     10475     10474     10472     10475     10472     10475     10476
     10472     10475     10477     10472     10475     10478     10476     10475     10477
     10476     10475     10478     10477     10475     10478     10475     10478     10479
     10475     10478     10480     10475     10478     10481     10479     10478     10480
     10479     10478     10481     10480     10478     10481      2759      2758      2760
      2759      2758      2761      2759      2758      2762      2760      2758      2761
      2760      2758      2762      2761      2758      2762      2758      2762      2763
      2758      2762      2764      2758      2762      2767      2763      2762      2764
      2763      2762      2767      2764      2762      2767      2762      2764      2765
      2762      2764      2766      2765      2764      2766      2762      2767      2768
      2762      2767      2769      2762      2767      2773      2768      2767      2769
      2768      2767      2773      2769      2767      2773      2771      2770      2772
      2771      2770      2773      2771      2770      2774      2772      2770      2773
      2772      2770      2774      2773      2770      2774      2767      2773      2770
      2770      2774      2775      2774      2775      2776      2774      2775      2777
      2774      2775      2778      2776      2775      2777      2776      2775      2778
      2777      2775      2778      2775      2778      2779      2775      2778      2780
      2775      2778      2786      2779      2778      2780      2779      2778      2786
      2780      2778      2786      2778      2780      2781      2780      2781      2782
      2780      2781      2783      2782      2781      2783      2781      2783      2784
      2781      2783      2785      2781      2783      2795      2784      2783      2785
      2784      2783      2795      2785      2783      2795      2778      2786      2787
      2778      2786      2788      2778      2786      2789      2787      2786      2788
      2787      2786      2789      2788      2786      2789      2786      2789      2790
      2789      2790      2791      2789      2790      2792      2791      2790      2792
      2790      2792      2793      2790      2792      2794      2790      2792      2842
      2793      2792      2794      2793      2792      2842      2794      2792      2842
      2783      2795      2796      2783      2795      2797      2783      2795      2798
      2796      2795      2797      2796      2795      2798      2797      2795      2798
      2795      2798      2799      2795      2798      2800      2795      2798      2801
      2799      2798      2800      2799      2798      2801      2800      2798      2801
      2798      2801      2802      2798      2801      2803      2802      2801      2803
      2801      2803      2804      2801      2803      2805      2804      2803      2805
      2803      2805      2806      2803      2805      2807      2803      2805      2808
      2806      2805      2807      2806      2805      2808      2807      2805      2808
      2805      2808      2809      2805      2808      2810      2809      2808      2810
      2808      2810      2811      2808      2810      2812      2811      2810      2812
      2810      2812      2813      2810      2812      2814      2810      2812      2815
      2813      2812      2814      2813      2812      2815      2814      2812      2815
      2812      2815      2816      2812      2815      2817      2816      2815      2817
      2815      2817      2818      2815      2817      2819      2818      2817      2819
      2817      2819      2820      2817      2819      2821      2817      2819      2822
      2820      2819      2821      2820      2819      2822      2821      2819      2822
      2819      2822      2823      2819      2822      2824      2823      2822      2824
      2822      2824      2825      2822      2824      2826      2825      2824      2826
      2824      2826      2827      2824      2826      2828      2824      2826      2829
      2827      2826      2828      2827      2826      2829      2828      2826      2829
      2826      2829      2830      2826      2829      2831      2826      2829      2832
      2830      2829      2831      2830      2829      2832      2831      2829      2832
      2829      2832      2833      2829      2832      2834      2829      2832      2835
      2833      2832      2834      2833      2832      2835      2834      2832      2835
      2832      2835      2836      2832      2835      2837      2832      2835      2838
      2836      2835      2837      2836      2835      2838      2837      2835      2838
      2835      2838      2839      2835      2838      2840      2835      2838      2841
      2839      2838      2840      2839      2838      2841      2840      2838      2841
      2792      2842      2843      2792      2842      2844      2792      2842      2845
      2843      2842      2844      2843      2842      2845      2844      2842      2845
      2842      2845      2846      2842      2845      2847      2842      2845      2848
      2846      2845      2847      2846      2845      2848      2847      2845      2848
      2845      2848      2849      2845      2848      2850      2845      2848      2851
      2849      2848      2850      2849      2848      2851      2850      2848      2851
      2848      2851      2852      2848      2851      2853      2848      2851      2854
      2852      2851      2853      2852      2851      2854      2853      2851      2854
      2851      2854      2855      2851      2854      2856      2851      2854      2857
      2855      2854      2856      2855      2854      2857      2856      2854      2857
      2854      2857      2858      2854      2857      2859      2854      2857      2860
      2858      2857      2859      2858      2857      2860      2859      2857      2860
      2857      2860      2861      2857      2860      2862      2857      2860      2863
      2861      2860      2862      2861      2860      2863      2862      2860      2863
      2860      2863      2864      2860      2863      2865      2860      2863      2866
      2864      2863      2865      2864      2863      2866      2865      2863      2866
      2863      2866      2867      2863      2866      2868      2863      2866      2869
      2867      2866      2868      2867      2866      2869      2868      2866      2869
      2866      2869      2870      2866      2869      2871      2866      2869      2872
      2870      2869      2871      2870      2869      2872      2871      2869      2872
      2869      2872      2873      2869      2872      2874      2869      2872      2875
      2873      2872      2874      2873      2872      2875      2874      2872      2875
      2872      2875      2876      2872      2875      2877      2872      2875      2878
      2876      2875      2877      2876      2875      2878      2877      2875      2878
      2875      2878      2879      2875      2878      2880      2875      2878      2881
      2879      2878      2880      2879      2878      2881      2880      2878      2881
      2878      2881      2882      2878      2881      2883      2878      2881      2884
      2882      2881      2883      2882      2881      2884      2883      2881      2884
      2881      2884      2885      2881      2884      2886      2881      2884      2887
      2885      2884      2886      2885      2884      2887      2886      2884      2887
      2884      2887      2888      2884      2887      2889      2884      2887      2890
      2888      2887      2889      2888      2887      2890      2889      2887      2890
     10876     10875     10877     10876     10875     10879     10876     10875     10895
     10877     10875     10879     10877     10875     10895     10879     10875     10895
     10875     10877     10878     10875     10879     10880     10875     10879     10881
     10875     10879     10883     10880     10879     10881     10880     10879     10883
     10881     10879     10883     10879     10881     10882     10879     10883     10884
     10879     10883     10885     10879     10883     10887     10884     10883     10885
     10884     10883     10887     10885     10883     10887     10883     10885     10886
     10883     10887     10888     10883     10887     10889     10883     10887     10891
     10888     10887     10889     10888     10887     10891     10889     10887     10891
     10887     10889     10890     10887     10891     10892     10887     10891     10893
     10887     10891     10895     10892     10891     10893     10892     10891     10895
     10893     10891     10895     10891     10893     10894     10875     10895     10891
     10875     10895     10896     10875     10895     10900     10891     10895     10896
     10891     10895     10900     10896     10895     10900     10898     10897     10899
     10898     10897     10900     10898     10897     10901     10899     10897     10900
     10899     10897     10901     10900     10897     10901     10895     10900     10897
     10897     10901     10902     10901     10902     10903     10901     10902     10904
     10901     10902     10905     10903     10902     10904     10903     10902     10905
     10904     10902     10905     10902     10905     10906     10902     10905     10907
     10902     10905     10913     10906     10905     10907     10906     10905     10913
     10907     10905     10913     10905     10907     10908     10907     10908     10909
     10907     10908     10910     10909     10908     10910     10908     10910     10911
     10908     10910     10912     10908     10910     10922     10911     10910     10912
     10911     10910     10922     10912     10910     10922     10905     10913     10914
     10905     10913     10915     10905     10913     10916     10914     10913     10915
     10914     10913     10916     10915     10913     10916     10913     10916     10917
     10916     10917     10918     10916     10917     10919     10918     10917     10919
     10917     10919     10920     10917     10919     10921     10917     10919     10969
     10920     10919     10921     10920     10919     10969     10921     10919     10969
     10910     10922     10923     10910     10922     10924     10910     10922     10925
     10923     10922     10924     10923     10922     10925     10924     10922     10925
     10922     10925     10926     10922     10925     10927     10922     10925     10928
     10926     10925     10927     10926     10925     10928     10927     10925     10928
     10925     10928     10929     10925     10928     10930     10929     10928     10930
     10928     10930     10931     10928     10930     10932     10931     10930     10932
     10930     10932     10933     10930     10932     10934     10930     10932     10935
     10933     10932     10934     10933     10932     10935     10934     10932     10935
     10932     10935     10936     10932     10935     10937     10936     10935     10937
     10935     10937     10938     10935     10937     10939     10938     10937     10939
     10937     10939     10940     10937     10939     10941     10937     10939     10942
     10940     10939     10941     10940     10939     10942     10941     10939     10942
     10939     10942     10943     10939     10942     10944     10943     10942     10944
     10942     10944     10945     10942     10944     10946     10945     10944     10946
     10944     10946     10947     10944     10946     10948     10944     10946     10949
     10947     10946     10948     10947     10946     10949     10948     10946     10949
     10946     10949     10950     10946     10949     10951     10950     10949     10951
     10949     10951     10952     10949     10951     10953     10952     10951     10953
     10951     10953     10954     10951     10953     10955     10951     10953     10956
     10954     10953     10955     10954     10953     10956     10955     10953     10956
     10953     10956     10957     10953     10956     10958     10953     10956     10959
     10957     10956     10958     10957     10956     10959     10958     10956     10959
     10956     10959     10960     10956     10959     10961     10956     10959     10962
     10960     10959     10961     10960     10959     10962     10961     10959     10962
     10959     10962     10963     10959     10962     10964     10959     10962     10965
     10963     10962     10964     10963     10962     10965     10964     10962     10965
     10962     10965     10966     10962     10965     10967     10962     10965     10968
     10966     10965     10967     10966     10965     10968     10967     10965     10968
     10919     10969     10970     10919     10969     10971     10919     10969     10972
     10970     10969     10971     10970     10969     10972     10971     10969     10972
     10969     10972     10973     10969     10972     10974     10969     10972     10975
     10973     10972     10974     10973     10972     10975     10974     10972     10975
     10972     10975     10976     10972     10975     10977     10972     10975     10978
     10976     10975     10977     10976     10975     10978     10977     10975     10978
     10975     10978     10979     10975     10978     10980     10975     10978     10981
     10979     10978     10980     10979     10978     10981     10980     10978     10981
     10978     10981     10982     10978     10981     10983     10978     10981     10984
     10982     10981     10983     10982     10981     10984     10983     10981     10984
     10981     10984     10985     10981     10984     10986     10981     10984     10987
     10985     10984     10986     10985     10984     10987     10986     10984     10987
     10984     10987     10988     10984     10987     10989     10984     10987     10990
     10988     10987     10989     10988     10987     10990     10989     10987     10990
     10987     10990     10991     10987     10990     10992     10987     10990     10993
     10991     10990     10992     10991     10990     10993     10992     10990     10993
     10990     10993     10994     10990     10993     10995     10990     10993     10996
     10994     10993     10995     10994     10993     10996     10995     10993     10996
     10993     10996     10997     10993     10996     10998     10993     10996     10999
     10997     10996     10998     10997     10996     10999     10998     10996     10999
     10996     10999     11000     10996     10999     11001     10996     10999     11002
     11000     10999     11001     11000     10999     11002     11001     10999     11002
     10999     11002     11003     10999     11002     11004     10999     11002     11005
     11003     11002     11004     11003     11002     11005     11004     11002     11005
     11002     11005     11006     11002     11005     11007     11002     11005     11008
     11006     11005     11007     11006     11005     11008     11007     11005     11008
     11005     11008     11009     11005     11008     11010     11005     11008     11011
     11009     11008     11010     11009     11008     11011     11010     11008     11011
     11008     11011     11012     11008     11011     11013     11008     11011     11014
     11012     11011     11013     11012     11011     11014     11013     11011     11014
     11011     11014     11015     11011     11014     11016     11011     11014     11017
     11015     11014     11016     11015     11014     11017     11016     11014     11017
      5924      5923      5925      5924      5923      5927      5924      5923      5969
      5925      5923      5927      5925      5923      5969      5927      5923      5969
      5923      5925      5926      5923      5927      5928      5923      5927      5929
      5923      5927      5930      5928      5927      5929      5928      5927      5930
      5929      5927      5930      5927      5930      5931      5927      5930      5961
      5931      5930      5961      5930      5931      5932      5930      5931      5933
      5932      5931      5933      5931      5933      5934      5931      5933      5935
      5931      5933      5936      5934      5933      5935      5934      5933      5936
      5935      5933      5936      5933      5936      5937      5933      5936      5938
      5933      5936      5959      5937      5936      5938      5937      5936      5959
      5938      5936      5959      5936      5938      5939      5936      5938      5940
      5936      5938      5948      5939      5938      5940      5939      5938      5948
      5940      5938      5948      5938      5940      5941      5938      5940      5942
      5938      5940      5943      5941      5940      5942      5941      5940      5943
      5942      5940      5943      5940      5943      5944      5940      5943      5945
      5940      5943      5946      5944      5943      5945      5944      5943      5946
      5945      5943      5946      5943      5946      5947      5943      5946      5948
      5943      5946      5972      5947      5946      5948      5947      5946      5972
      5948      5946      5972      5938      5948      5946      5938      5948      5949
      5938      5948      5953      5946      5948      5949      5946      5948      5953
      5949      5948      5953      5948      5949      5950      5948      5949      5951
      5948      5949      5952      5950      5949      5951      5950      5949      5952
      5951      5949      5952      5948      5953      5954      5948      5953      5955
      5948      5953      5956      5954      5953      5955      5954      5953      5956
      5955      5953      5956      5953      5956      5957      5953      5956      5958
      5953      5956      5959      5957      5956      5958      5957      5956      5959
      5958      5956      5959      5936      5959      5956      5936      5959      5960
      5936      5959      5961      5956      5959      5960      5956      5959      5961
      5960      5959      5961      5930      5961      5959      5930      5961      5962
      5930      5961      5966      5959      5961      5962      5959      5961      5966
      5962      5961      5966      5961      5962      5963      5961      5962      5964
      5961      5962      5965      5963      5962      5964      5963      5962      5965
      5964      5962      5965      5961      5966      5967      5961      5966      5968
      5961      5966      5969      5967      5966      5968      5967      5966      5969
      5968      5966      5969      5923      5969      5966      5923      5969      5970
      5923      5969      5971      5966      5969      5970      5966      5969      5971
      5970      5969      5971      5946      5972      5973      5946      5972      5974
      5946      5972      5978      5973      5972      5974      5973      5972      5978
      5974      5972      5978      5972      5974      5975      5972      5974      5976
      5972      5974      5977      5975      5974      5976      5975      5974      5977
      5976      5974      5977      5972      5978      5979      5972      5978      5980
      5972      5978      5981      5979      5978      5980      5979      5978      5981
      5980      5978      5981      5978      5981      5982      5978      5981      5983
      5978      5981      5984      5982      5981      5983      5982      5981      5984
      5983      5981      5984      5981      5984      5985      5981      5984      5986
      5981      5984      5987      5985      5984      5986      5985      5984      5987
      5986      5984      5987      5984      5987      5988      5984      5987      5989
      5984      5987      5993      5988      5987      5989      5988      5987      5993
      5989      5987      5993      5987      5989      5990      5987      5989      5991
      5987      5989      5992      5990      5989      5991      5990      5989      5992
      5991      5989      5992      5987      5993      5994      5987      5993      5995
      5987      5993      5996      5994      5993      5995      5994      5993      5996
      5995      5993      5996      5998      5997      5999      5998      5997      6001
      5998      5997      6043      5999      5997      6001      5999      5997      6043
      6001      5997      6043      5997      5999      6000      5997      6001      6002
      5997      6001      6003      5997      6001      6004      6002      6001      6003
      6002      6001      6004      6003      6001      6004      6001      6004      6005
      6001      6004      6035      6005      6004      6035      6004      6005      6006
      6004      6005      6007      6006      6005      6007      6005      6007      6008
      6005      6007      6009      6005      6007      6010      6008      6007      6009
      6008      6007      6010      6009      6007      6010      6007      6010      6011
      6007      6010      6012      6007      6010      6033      6011      6010      6012
      6011      6010      6033      6012      6010      6033      6010      6012      6013
      6010      6012      6014      6010      6012      6022      6013      6012      6014
      6013      6012      6022      6014      6012      6022      6012      6014      6015
      6012      6014      6016      6012      6014      6017      6015      6014      6016
      6015      6014      6017      6016      6014      6017      6014      6017      6018
      6014      6017      6019      6014      6017      6020      6018      6017      6019
      6018      6017      6020      6019      6017      6020      6017      6020      6021
      6017      6020      6022      6017      6020      6046      6021      6020      6022
      6021      6020      6046      6022      6020      6046      6012      6022      6020
      6012      6022      6023      6012      6022      6027      6020      6022      6023
      6020      6022      6027      6023      6022      6027      6022      6023      6024
      6022      6023      6025      6022      6023      6026      6024      6023      6025
      6024      6023      6026      6025      6023      6026      6022      6027      6028
      6022      6027      6029      6022      6027      6030      6028      6027      6029
      6028      6027      6030      6029      6027      6030      6027      6030      6031
      6027      6030      6032      6027      6030      6033      6031      6030      6032
      6031      6030      6033      6032      6030      6033      6010      6033      6030
      6010      6033      6034      6010      6033      6035      6030      6033      6034
      6030      6033      6035      6034      6033      6035      6004      6035      6033
      6004      6035      6036      6004      6035      6040      6033      6035      6036
      6033      6035      6040      6036      6035      6040      6035      6036      6037
      6035      6036      6038      6035      6036      6039      6037      6036      6038
      6037      6036      6039      6038      6036      6039      6035      6040      6041
      6035      6040      6042      6035      6040      6043      6041      6040      6042
      6041      6040      6043      6042      6040      6043      5997      6043      6040
      5997      6043      6044      5997      6043      6045      6040      6043      6044
      6040      6043      6045      6044      6043      6045      6020      6046      6047
      6020      6046      6048      6020      6046      6052      6047      6046      6048
      6047      6046      6052      6048      6046      6052      6046      6048      6049
      6046      6048      6050      6046      6048      6051      6049      6048      6050
      6049      6048      6051      6050      6048      6051      6046      6052      6053
      6046      6052      6054      6046      6052      6055      6053      6052      6054
      6053      6052      6055      6054      6052      6055      6052      6055      6056
      6052      6055      6057      6052      6055      6058      6056      6055      6057
      6056      6055      6058      6057      6055      6058      6055      6058      6059
      6055      6058      6060      6055      6058      6061      6059      6058      6060
      6059      6058      6061      6060      6058      6061      6058      6061      6062
      6058      6061      6063      6058      6061      6067      6062      6061      6063
      6062      6061      6067      6063      6061      6067      6061      6063      6064
      6061      6063      6065      6061      6063      6066      6064      6063      6065
      6064      6063      6066      6065      6063      6066      6061      6067      6068
      6061      6067      6069      6061      6067      6070      6068      6067      6069
      6068      6067      6070      6069      6067      6070      8854      8853      8857
      8854      8853      8861      8854      8853      8865      8857      8853      8861
      8857      8853      8865      8861      8853      8865      8853      8854      8855
      8853      8854      8856      8853      8854      8869      8855      8854      8856
      8855      8854      8869      8856      8854      8869      8853      8857      8858
      8853      8857      8859      8853      8857      8860      8858      8857      8859
      8858      8857      8860      8859      8857      8860      8853      8861      8862
      8853      8861      8863      8853      8861      8864      8862      8861      8863
      8862      8861      8864      8863      8861      8864      8853      8865      8866
      8853      8865      8867      8853      8865      8868      8866      8865      8867
      8866      8865      8868      8867      8865      8868      8854      8869      8870
      8854      8869      8871      8854      8869      8875      8870      8869      8871
      8870      8869      8875      8871      8869      8875      8873      8872      8874
      8873      8872      8875      8873      8872      8876      8874      8872      8875
      8874      8872      8876      8875      8872      8876      8869      8875      8872
      8872      8876      8877      8876      8877      8878      8876      8877      8879
      8876      8877      8880      8878      8877      8879      8878      8877      8880
      8879      8877      8880      8877      8880      8881      8877      8880      8882
      8877      8880      8888      8881      8880      8882      8881      8880      8888
      8882      8880      8888      8880      8882      8883      8882      8883      8884
      8882      8883      8885      8884      8883      8885      8883      8885      8886
      8883      8885      8887      8883      8885      8897      8886      8885      8887
      8886      8885      8897      8887      8885      8897      8880      8888      8889
      8880      8888      8890      8880      8888      8891      8889      8888      8890
      8889      8888      8891      8890      8888      8891      8888      8891      8892
      8891      8892      8893      8891      8892      8894      8893      8892      8894
      8892      8894      8895      8892      8894      8896      8892      8894      8944
      8895      8894      8896      8895      8894      8944      8896      8894      8944
      8885      8897      8898      8885      8897      8899      8885      8897      8900
      8898      8897      8899      8898      8897      8900      8899      8897      8900
      8897      8900      8901      8897      8900      8902      8897      8900      8903
      8901      8900      8902      8901      8900      8903      8902      8900      8903
      8900      8903      8904      8900      8903      8905      8904      8903      8905
      8903      8905      8906      8903      8905      8907      8906      8905      8907
      8905      8907      8908      8905      8907      8909      8905      8907      8910
      8908      8907      8909      8908      8907      8910      8909      8907      8910
      8907      8910      8911      8907      8910      8912      8911      8910      8912
      8910      8912      8913      8910      8912      8914      8913      8912      8914
      8912      8914      8915      8912      8914      8916      8912      8914      8917
      8915      8914      8916      8915      8914      8917      8916      8914      8917
      8914      8917      8918      8914      8917      8919      8918      8917      8919
      8917      8919      8920      8917      8919      8921      8920      8919      8921
      8919      8921      8922      8919      8921      8923      8919      8921      8924
      8922      8921      8923      8922      8921      8924      8923      8921      8924
      8921      8924      8925      8921      8924      8926      8925      8924      8926
      8924      8926      8927      8924      8926      8928      8927      8926      8928
      8926      8928      8929      8926      8928      8930      8926      8928      8931
      8929      8928      8930      8929      8928      8931      8930      8928      8931
      8928      8931      8932      8928      8931      8933      8928      8931      8934
      8932      8931      8933      8932      8931      8934      8933      8931      8934
      8931      8934      8935      8931      8934      8936      8931      8934      8937
      8935      8934      8936      8935      8934      8937      8936      8934      8937
      8934      8937      8938      8934      8937      8939      8934      8937      8940
      8938      8937      8939      8938      8937      8940      8939      8937      8940
      8937      8940      8941      8937      8940      8942      8937      8940      8943
      8941      8940      8942      8941      8940      8943      8942      8940      8943
      8894      8944      8945      8894      8944      8946      8894      8944      8947
      8945      8944      8946      8945      8944      8947      8946      8944      8947
      8944      8947      8948      8944      8947      8949      8944      8947      8950
      8948      8947      8949      8948      8947      8950      8949      8947      8950
      8947      8950      8951      8947      8950      8952      8947      8950      8953
      8951      8950      8952      8951      8950      8953      8952      8950      8953
      8950      8953      8954      8950      8953      8955      8950      8953      8956
      8954      8953      8955      8954      8953      8956      8955      8953      8956
      8953      8956      8957      8953      8956      8958      8953      8956      8959
      8957      8956      8958      8957      8956      8959      8958      8956      8959
      8956      8959      8960      8956      8959      8961      8956      8959      8962
      8960      8959      8961      8960      8959      8962      8961      8959      8962
      8959      8962      8963      8959      8962      8964      8959      8962      8965
      8963      8962      8964      8963      8962      8965      8964      8962      8965
      8962      8965      8966      8962      8965      8967      8962      8965      8968
      8966      8965      8967      8966      8965      8968      8967      8965      8968
      8965      8968      8969      8965      8968      8970      8965      8968      8971
      8969      8968      8970      8969      8968      8971      8970      8968      8971
      8968      8971      8972      8968      8971      8973      8968      8971      8974
      8972      8971      8973      8972      8971      8974      8973      8971      8974
      8971      8974      8975      8971      8974      8976      8971      8974      8977
      8975      8974      8976      8975      8974      8977      8976      8974      8977
      8974      8977      8978      8974      8977      8979      8974      8977      8980
      8978      8977      8979      8978      8977      8980      8979      8977      8980
      8977      8980      8981      8977      8980      8982      8977      8980      8983
      8981      8980      8982      8981      8980      8983      8982      8980      8983
      8980      8983      8984      8980      8983      8985      8980      8983      8986
      8984      8983      8985      8984      8983      8986      8985      8983      8986
      8983      8986      8987      8983      8986      8988      8983      8986      8989
      8987      8986      8988      8987      8986      8989      8988      8986      8989
      8986      8989      8990      8986      8989      8991      8986      8989      8992
      8990      8989      8991      8990      8989      8992      8991      8989      8992
      6072      6071      6073      6072      6071      6075      6072      6071      6117
      6073      6071      6075      6073      6071      6117      6075      6071      6117
      6071      6073      6074      6071      6075      6076      6071      6075      6077
      6071      6075      6078      6076      6075      6077      6076      6075      6078
      6077      6075      6078      6075      6078      6079      6075      6078      6109
      6079      6078      6109      6078      6079      6080      6078      6079      6081
      6080      6079      6081      6079      6081      6082      6079      6081      6083
      6079      6081      6084      6082      6081      6083      6082      6081      6084
      6083      6081      6084      6081      6084      6085      6081      6084      6086
      6081      6084      6107      6085      6084      6086      6085      6084      6107
      6086      6084      6107      6084      6086      6087      6084      6086      6088
      6084      6086      6096      6087      6086      6088      6087      6086      6096
      6088      6086      6096      6086      6088      6089      6086      6088      6090
      6086      6088      6091      6089      6088      6090      6089      6088      6091
      6090      6088      6091      6088      6091      6092      6088      6091      6093
      6088      6091      6094      6092      6091      6093      6092      6091      6094
      6093      6091      6094      6091      6094      6095      6091      6094      6096
      6091      6094      6120      6095      6094      6096      6095      6094      6120
      6096      6094      6120      6086      6096      6094      6086      6096      6097
      6086      6096      6101      6094      6096      6097      6094      6096      6101
      6097      6096      6101      6096      6097      6098      6096      6097      6099
      6096      6097      6100      6098      6097      6099      6098      6097      6100
      6099      6097      6100      6096      6101      6102      6096      6101      6103
      6096      6101      6104      6102      6101      6103      6102      6101      6104
      6103      6101      6104      6101      6104      6105      6101      6104      6106
      6101      6104      6107      6105      6104      6106      6105      6104      6107
      6106      6104      6107      6084      6107      6104      6084      6107      6108
      6084      6107      6109      6104      6107      6108      6104      6107      6109
      6108      6107      6109      6078      6109      6107      6078      6109      6110
      6078      6109      6114      6107      6109      6110      6107      6109      6114
      6110      6109      6114      6109      6110      6111      6109      6110      6112
      6109      6110      6113      6111      6110      6112      6111      6110      6113
      6112      6110      6113      6109      6114      6115      6109      6114      6116
      6109      6114      6117      6115      6114      6116      6115      6114      6117
      6116      6114      6117      6071      6117      6114      6071      6117      6118
      6071      6117      6119      6114      6117      6118      6114      6117      6119
      6118      6117      6119      6094      6120      6121      6094      6120      6122
      6094      6120      6126      6121      6120      6122      6121      6120      6126
      6122      6120      6126      6120      6122      6123      6120      6122      6124
      6120      6122      6125      6123      6122      6124      6123      6122      6125
      6124      6122      6125      6120      6126      6127      6120      6126      6128
      6120      6126      6129      6127      6126      6128      6127      6126      6129
      6128      6126      6129      6126      6129      6130      6126      6129      6131
      6126      6129      6132      6130      6129      6131      6130      6129      6132
      6131      6129      6132      6129      6132      6133      6129      6132      6134
      6129      6132      6135      6133      6132      6134      6133      6132      6135
      6134      6132      6135      6132      6135      6136      6132      6135      6137
      6132      6135      6141      6136      6135      6137      6136      6135      6141
      6137      6135      6141      6135      6137      6138      6135      6137      6139
      6135      6137      6140      6138      6137      6139      6138      6137      6140
      6139      6137      6140      6135      6141      6142      6135      6141      6143
      6135      6141      6144      6142      6141      6143      6142      6141      6144
      6143      6141      6144      7606      7605      7610      7606      7605      7614
      7606      7605      7618      7610      7605      7614      7610      7605      7618
      7614      7605      7618      7605      7606      7607      7605      7606      7608
      7605      7606      7609      7607      7606      7608      7607      7606      7609
      7608      7606      7609      7605      7610      7611      7605      7610      7612
      7605      7610      7613      7611      7610      7612      7611      7610      7613
      7612      7610      7613      7605      7614      7615      7605      7614      7616
      7605      7614      7617      7615      7614      7616      7615      7614      7617
      7616      7614      7617      7605      7618      7619      7605      7618      7620
      7605      7618      7621      7619      7618      7620      7619      7618      7621
      7620      7618      7621      7618      7621      7622      7618      7621      7623
      7618      7621      7627      7622      7621      7623      7622      7621      7627
      7623      7621      7627      7625      7624      7626      7625      7624      7627
      7625      7624      7628      7626      7624      7627      7626      7624      7628
      7627      7624      7628      7621      7627      7624      7624      7628      7629
      7628      7629      7630      7628      7629      7631      7628      7629      7632
      7630      7629      7631      7630      7629      7632      7631      7629      7632
      7629      7632      7633      7629      7632      7634      7629      7632      7640
      7633      7632      7634      7633      7632      7640      7634      7632      7640
      7632      7634      7635      7634      7635      7636      7634      7635      7637
      7636      7635      7637      7635      7637      7638      7635      7637      7639
      7635      7637      7649      7638      7637      7639      7638      7637      7649
      7639      7637      7649      7632      7640      7641      7632      7640      7642
      7632      7640      7643      7641      7640      7642      7641      7640      7643
      7642      7640      7643      7640      7643      7644      7643      7644      7645
      7643      7644      7646      7645      7644      7646      7644      7646      7647
      7644      7646      7648      7644      7646      7694      7647      7646      7648
      7647      7646      7694      7648      7646      7694      7637      7649      7650
      7637      7649      7651      7637      7649      7652      7650      7649      7651
      7650      7649      7652      7651      7649      7652      7649      7652      7653
      7649      7652      7654      7649      7652      7655      7653      7652      7654
      7653      7652      7655      7654      7652      7655      7652      7655      7656
      7652      7655      7657      7652      7655      7658      7656      7655      7657
      7656      7655      7658      7657      7655      7658      7655      7658      7659
      7655      7658      7660      7655      7658      7661      7659      7658      7660
      7659      7658      7661      7660      7658      7661      7658      7661      7662
      7658      7661      7663      7658      7661      7664      7662      7661      7663
      7662      7661      7664      7663      7661      7664      7661      7664      7665
      7661      7664      7666      7661      7664      7667      7665      7664      7666
      7665      7664      7667      7666      7664      7667      7664      7667      7668
      7664      7667      7669      7668      7667      7669      7667      7669      7670
      7667      7669      7671      7670      7669      7671      7669      7671      7672
      7669      7671      7673      7669      7671      7674      7672      7671      7673
      7672      7671      7674      7673      7671      7674      7671      7674      7675
      7671      7674      7676      7675      7674      7676      7674      7676      7677
      7674      7676      7678      7677      7676      7678      7676      7678      7679
      7676      7678      7680      7676      7678      7681      7679      7678      7680
      7679      7678      7681      7680      7678      7681      7678      7681      7682
      7678      7681      7683      7678      7681      7684      7682      7681      7683
      7682      7681      7684      7683      7681      7684      7681      7684      7685
      7681      7684      7686      7681      7684      7687      7685      7684      7686
      7685      7684      7687      7686      7684      7687      7684      7687      7688
      7684      7687      7689      7684      7687      7690      7688      7687      7689
      7688      7687      7690      7689      7687      7690      7687      7690      7691
      7687      7690      7692      7687      7690      7693      7691      7690      7692
      7691      7690      7693      7692      7690      7693      7646      7694      7695
      7646      7694      7696      7646      7694      7697      7695      7694      7696
      7695      7694      7697      7696      7694      7697      7694      7697      7698
      7694      7697      7699      7694      7697      7700      7698      7697      7699
      7698      7697      7700      7699      7697      7700      7697      7700      7701
      7697      7700      7702      7697      7700      7703      7701      7700      7702
      7701      7700      7703      7702      7700      7703      7700      7703      7704
      7700      7703      7705      7700      7703      7706      7704      7703      7705
      7704      7703      7706      7705      7703      7706      7703      7706      7707
      7703      7706      7708      7703      7706      7709      7707      7706      7708
      7707      7706      7709      7708      7706      7709      7706      7709      7710
      7706      7709      7711      7706      7709      7712      7710      7709      7711
      7710      7709      7712      7711      7709      7712      7709      7712      7713
      7709      7712      7714      7709      7712      7715      7713      7712      7714
      7713      7712      7715      7714      7712      7715      7712      7715      7716
      7712      7715      7717      7712      7715      7718      7716      7715      7717
      7716      7715      7718      7717      7715      7718      7715      7718      7719
      7715      7718      7720      7715      7718      7721      7719      7718      7720
      7719      7718      7721      7720      7718      7721      7718      7721      7722
      7718      7721      7723      7718      7721      7724      7722      7721      7723
      7722      7721      7724      7723      7721      7724      7721      7724      7725
      7721      7724      7726      7721      7724      7727      7725      7724      7726
      7725      7724      7727      7726      7724      7727      7724      7727      7728
      7724      7727      7729      7724      7727      7730      7728      7727      7729
      7728      7727      7730      7729      7727      7730      7727      7730      7731
      7727      7730      7732      7727      7730      7733      7731      7730      7732
      7731      7730      7733      7732      7730      7733      7730      7733      7734
      7730      7733      7735      7730      7733      7736      7734      7733      7735
      7734      7733      7736      7735      7733      7736      7733      7736      7737
      7733      7736      7738      7733      7736      7739      7737      7736      7738
      7737      7736      7739      7738      7736      7739      7736      7739      7740
      7736      7739      7741      7736      7739      7742      7740      7739      7741
      7740      7739      7742      7741      7739      7742      6146      6145      6147
      6146      6145      6149      6146      6145      6191      6147      6145      6149
      6147      6145      6191      6149      6145      6191      6145      6147      6148
      6145      6149      6150      6145      6149      6151      6145      6149      6152
      6150      6149      6151      6150      6149      6152      6151      6149      6152
      6149      6152      6153      6149      6152      6183      6153      6152      6183
      6152      6153      6154      6152      6153      6155      6154      6153      6155
      6153      6155      6156      6153      6155      6157      6153      6155      6158
      6156      6155      6157      6156      6155      6158      6157      6155      6158
      6155      6158      6159      6155      6158      6160      6155      6158      6181
      6159      6158      6160      6159      6158      6181      6160      6158      6181
      6158      6160      6161      6158      6160      6162      6158      6160      6170
      6161      6160      6162      6161      6160      6170      6162      6160      6170
      6160      6162      6163      6160      6162      6164      6160      6162      6165
      6163      6162      6164      6163      6162      6165      6164      6162      6165
      6162      6165      6166      6162      6165      6167      6162      6165      6168
      6166      6165      6167      6166      6165      6168      6167      6165      6168
      6165      6168      6169      6165      6168      6170      6165      6168      6194
      6169      6168      6170      6169      6168      6194      6170      6168      6194
      6160      6170      6168      6160      6170      6171      6160      6170      6175
      6168      6170      6171      6168      6170      6175      6171      6170      6175
      6170      6171      6172      6170      6171      6173      6170      6171      6174
      6172      6171      6173      6172      6171      6174      6173      6171      6174
      6170      6175      6176      6170      6175      6177      6170      6175      6178
      6176      6175      6177      6176      6175      6178      6177      6175      6178
      6175      6178      6179      6175      6178      6180      6175      6178      6181
      6179      6178      6180      6179      6178      6181      6180      6178      6181
      6158      6181      6178      6158      6181      6182      6158      6181      6183
      6178      6181      6182      6178      6181      6183      6182      6181      6183
      6152      6183      6181      6152      6183      6184      6152      6183      6188
      6181      6183      6184      6181      6183      6188      6184      6183      6188
      6183      6184      6185      6183      6184      6186      6183      6184      6187
      6185      6184      6186      6185      6184      6187      6186      6184      6187
      6183      6188      6189      6183      6188      6190      6183      6188      6191
      6189      6188      6190      6189      6188      6191      6190      6188      6191
      6145      6191      6188      6145      6191      6192      6145      6191      6193
      6188      6191      6192      6188      6191      6193      6192      6191      6193
      6168      6194      6195      6168      6194      6196      6168      6194      6200
      6195      6194      6196      6195      6194      6200      6196      6194      6200
      6194      6196      6197      6194      6196      6198      6194      6196      6199
      6197      6196      6198      6197      6196      6199      6198      6196      6199
      6194      6200      6201      6194      6200      6202      6194      6200      6203
      6201      6200      6202      6201      6200      6203      6202      6200      6203
      6200      6203      6204      6200      6203      6205      6200      6203      6206
      6204      6203      6205      6204      6203      6206      6205      6203      6206
      6203      6206      6207      6203      6206      6208      6203      6206      6209
      6207      6206      6208      6207      6206      6209      6208      6206      6209
      6206      6209      6210      6206      6209      6211      6206      6209      6215
      6210      6209      6211      6210      6209      6215      6211      6209      6215
      6209      6211      6212      6209      6211      6213      6209      6211      6214
      6212      6211      6213      6212      6211      6214      6213      6211      6214
      6209      6215      6216      6209      6215      6217      6209      6215      6218
      6216      6215      6217      6216      6215      6218      6217      6215      6218
      7744      7743      7748      7744      7743      7752      7744      7743      7756
      7748      7743      7752      7748      7743      7756      7752      7743      7756
      7743      7744      7745      7743      7744      7746      7743      7744      7747
      7745      7744      7746      7745      7744      7747      7746      7744      7747
      7743      7748      7749      7743      7748      7750      7743      7748      7751
      7749      7748      7750      7749      7748      7751      7750      7748      7751
      7743      7752      7753      7743      7752      7754      7743      7752      7755
      7753      7752      7754      7753      7752      7755      7754      7752      7755
      7743      7756      7757      7743      7756      7758      7743      7756      7759
      7757      7756      7758      7757      7756      7759      7758      7756      7759
      7756      7759      7760      7756      7759      7761      7756      7759      7765
      7760      7759      7761      7760      7759      7765      7761      7759      7765
      7763      7762      7764      7763      7762      7765      7763      7762      7766
      7764      7762      7765      7764      7762      7766      7765      7762      7766
      7759      7765      7762      7762      7766      7767      7766      7767      7768
      7766      7767      7769      7766      7767      7770      7768      7767      7769
      7768      7767      7770      7769      7767      7770      7767      7770      7771
      7767      7770      7772      7767      7770      7778      7771      7770      7772
      7771      7770      7778      7772      7770      7778      7770      7772      7773
      7772      7773      7774      7772      7773      7775      7774      7773      7775
      7773      7775      7776      7773      7775      7777      7773      7775      7787
      7776      7775      7777      7776      7775      7787      7777      7775      7787
      7770      7778      7779      7770      7778      7780      7770      7778      7781
      7779      7778      7780      7779      7778      7781      7780      7778      7781
      7778      7781      7782      7781      7782      7783      7781      7782      7784
      7783      7782      7784      7782      7784      7785      7782      7784      7786
      7782      7784      7832      7785      7784      7786      7785      7784      7832
      7786      7784      7832      7775      7787      7788      7775      7787      7789
      7775      7787      7790      7788      7787      7789      7788      7787      7790
      7789      7787      7790      7787      7790      7791      7787      7790      7792
      7787      7790      7793      7791      7790      7792      7791      7790      7793
      7792      7790      7793      7790      7793      7794      7790      7793      7795
      7790      7793      7796      7794      7793      7795      7794      7793      7796
      7795      7793      7796      7793      7796      7797      7793      7796      7798
      7793      7796      7799      7797      7796      7798      7797      7796      7799
      7798      7796      7799      7796      7799      7800      7796      7799      7801
      7796      7799      7802      7800      7799      7801      7800      7799      7802
      7801      7799      7802      7799      7802      7803      7799      7802      7804
      7799      7802      7805      7803      7802      7804      7803      7802      7805
      7804      7802      7805      7802      7805      7806      7802      7805      7807
      7806      7805      7807      7805      7807      7808      7805      7807      7809
      7808      7807      7809      7807      7809      7810      7807      7809      7811
      7807      7809      7812      7810      7809      7811      7810      7809      7812
      7811      7809      7812      7809      7812      7813      7809      7812      7814
      7813      7812      7814      7812      7814      7815      7812      7814      7816
      7815      7814      7816      7814      7816      7817      7814      7816      7818
      7814      7816      7819      7817      7816      7818      7817      7816      7819
      7818      7816      7819      7816      7819      7820      7816      7819      7821
      7816      7819      7822      7820      7819      7821      7820      7819      7822
      7821      7819      7822      7819      7822      7823      7819      7822      7824
      7819      7822      7825      7823      7822      7824      7823      7822      7825
      7824      7822      7825      7822      7825      7826      7822      7825      7827
      7822      7825      7828      7826      7825      7827      7826      7825      7828
      7827      7825      7828      7825      7828      7829      7825      7828      7830
      7825      7828      7831      7829      7828      7830      7829      7828      7831
      7830      7828      7831      7784      7832      7833      7784      7832      7834
      7784      7832      7835      7833      7832      7834      7833      7832      7835
      7834      7832      7835      7832      7835      7836      7832      7835      7837
      7832      7835      7838      7836      7835      7837      7836      7835      7838
      7837      7835      7838      7835      7838      7839      7835      7838      7840
      7835      7838      7841      7839      7838      7840      7839      7838      7841
      7840      7838      7841      7838      7841      7842      7838      7841      7843
      7838      7841      7844      7842      7841      7843      7842      7841      7844
      7843      7841      7844      7841      7844      7845      7841      7844      7846
      7841      7844      7847      7845      7844      7846      7845      7844      7847
      7846      7844      7847      7844      7847      7848      7844      7847      7849
      7844      7847      7850      7848      7847      7849      7848      7847      7850
      7849      7847      7850      7847      7850      7851      7847      7850      7852
      7847      7850      7853      7851      7850      7852      7851      7850      7853
      7852      7850      7853      7850      7853      7854      7850      7853      7855
      7850      7853      7856      7854      7853      7855      7854      7853      7856
      7855      7853      7856      7853      7856      7857      7853      7856      7858
      7853      7856      7859      7857      7856      7858      7857      7856      7859
      7858      7856      7859      7856      7859      7860      7856      7859      7861
      7856      7859      7862      7860      7859      7861      7860      7859      7862
      7861      7859      7862      7859      7862      7863      7859      7862      7864
      7859      7862      7865      7863      7862      7864      7863      7862      7865
      7864      7862      7865      7862      7865      7866      7862      7865      7867
      7862      7865      7868      7866      7865      7867      7866      7865      7868
      7867      7865      7868      7865      7868      7869      7865      7868      7870
      7865      7868      7871      7869      7868      7870      7869      7868      7871
      7870      7868      7871      7868      7871      7872      7868      7871      7873
      7868      7871      7874      7872      7871      7873      7872      7871      7874
      7873      7871      7874      7871      7874      7875      7871      7874      7876
      7871      7874      7877      7875      7874      7876      7875      7874      7877
      7876      7874      7877      7874      7877      7878      7874      7877      7879
      7874      7877      7880      7878      7877      7879      7878      7877      7880
      7879      7877      7880      6220      6219      6221      6220      6219      6223
      6220      6219      6265      6221      6219      6223      6221      6219      6265
      6223      6219      6265      6219      6221      6222      6219      6223      6224
      6219      6223      6225      6219      6223      6226      6224      6223      6225
      6224      6223      6226      6225      6223      6226      6223      6226      6227
      6223      6226      6257      6227      6226      6257      6226      6227      6228
      6226      6227      6229      6228      6227      6229      6227      6229      6230
      6227      6229      6231      6227      6229      6232      6230      6229      6231
      6230      6229      6232      6231      6229      6232      6229      6232      6233
      6229      6232      6234      6229      6232      6255      6233      6232      6234
      6233      6232      6255      6234      6232      6255      6232      6234      6235
      6232      6234      6236      6232      6234      6244      6235      6234      6236
      6235      6234      6244      6236      6234      6244      6234      6236      6237
      6234      6236      6238      6234      6236      6239      6237      6236      6238
      6237      6236      6239      6238      6236      6239      6236      6239      6240
      6236      6239      6241      6236      6239      6242      6240      6239      6241
      6240      6239      6242      6241      6239      6242      6239      6242      6243
      6239      6242      6244      6239      6242      6268      6243      6242      6244
      6243      6242      6268      6244      6242      6268      6234      6244      6242
      6234      6244      6245      6234      6244      6249      6242      6244      6245
      6242      6244      6249      6245      6244      6249      6244      6245      6246
      6244      6245      6247      6244      6245      6248      6246      6245      6247
      6246      6245      6248      6247      6245      6248      6244      6249      6250
      6244      6249      6251      6244      6249      6252      6250      6249      6251
      6250      6249      6252      6251      6249      6252      6249      6252      6253
      6249      6252      6254      6249      6252      6255      6253      6252      6254
      6253      6252      6255      6254      6252      6255      6232      6255      6252
      6232      6255      6256      6232      6255      6257      6252      6255      6256
      6252      6255      6257      6256      6255      6257      6226      6257      6255
      6226      6257      6258      6226      6257      6262      6255      6257      6258
      6255      6257      6262      6258      6257      6262      6257      6258      6259
      6257      6258      6260      6257      6258      6261      6259      6258      6260
      6259      6258      6261      6260      6258      6261      6257      6262      6263
      6257      6262      6264      6257      6262      6265      6263      6262      6264
      6263      6262      6265      6264      6262      6265      6219      6265      6262
      6219      6265      6266      6219      6265      6267      6262      6265      6266
      6262      6265      6267      6266      6265      6267      6242      6268      6269
      6242      6268      6270      6242      6268      6274      6269      6268      6270
      6269      6268      6274      6270      6268      6274      6268      6270      6271
      6268      6270      6272      6268      6270      6273      6271      6270      6272
      6271      6270      6273      6272      6270      6273      6268      6274      6275
      6268      6274      6276      6268      6274      6277      6275      6274      6276
      6275      6274      6277      6276      6274      6277      6274      6277      6278
      6274      6277      6279      6274      6277      6280      6278      6277      6279
      6278      6277      6280      6279      6277      6280      6277      6280      6281
      6277      6280      6282      6277      6280      6283      6281      6280      6282
      6281      6280      6283      6282      6280      6283      6280      6283      6284
      6280      6283      6285      6280      6283      6289      6284      6283      6285
      6284      6283      6289      6285      6283      6289      6283      6285      6286
      6283      6285      6287      6283      6285      6288      6286      6285      6287
      6286      6285      6288      6287      6285      6288      6283      6289      6290
      6283      6289      6291      6283      6289      6292      6290      6289      6291
      6290      6289      6292      6291      6289      6292      1181      1180      1185
      1181      1180      1189      1181      1180      1193      1185      1180      1189
      1185      1180      1193      1189      1180      1193      1180      1181      1182
      1180      1181      1183      1180      1181      1184      1182      1181      1183
      1182      1181      1184      1183      1181      1184      1180      1185      1186
      1180      1185      1187      1180      1185      1188      1186      1185      1187
      1186      1185      1188      1187      1185      1188      1180      1189      1190
      1180      1189      1191      1180      1189      1192      1190      1189      1191
      1190      1189      1192      1191      1189      1192      1180      1193      1194
      1180      1193      1195      1180      1193      1196      1194      1193      1195
      1194      1193      1196      1195      1193      1196      1193      1196      1197
      1193      1196      1198      1193      1196      1203      1197      1196      1198
      1197      1196      1203      1198      1196      1203      1200      1199      1201
      1200      1199      1202      1200      1199      1203      1201      1199      1202
      1201      1199      1203      1202      1199      1203      1199      1202      1204
      1196      1203      1199      1202      1204      1205      1202      1204      1206
      1202      1204      1209      1205      1204      1206      1205      1204      1209
      1206      1204      1209      1208      1207      1209      1208      1207      1259
      1209      1207      1259      1204      1209      1207      1204      1209      1210
      1204      1209      1211      1207      1209      1210      1207      1209      1211
      1210      1209      1211      1209      1211      1212      1209      1211      1213
      1209      1211      1215      1212      1211      1213      1212      1211      1215
      1213      1211      1215      1211      1213      1214      1211      1215      1216
      1211      1215      1217      1216      1215      1217      1215      1217      1218
      1215      1217      1219      1218      1217      1219      1217      1219      1220
      1217      1219      1221      1217      1219      1222      1220      1219      1221
      1220      1219      1222      1221      1219      1222      1219      1222      1223
      1219      1222      1224      1219      1222      1225      1223      1222      1224
      1223      1222      1225      1224      1222      1225      1222      1225      1226
      1222      1225      1227      1222      1225      1228      1226      1225      1227
      1226      1225      1228      1227      1225      1228      1225      1228      1229
      1225      1228      1230      1225      1228      1231      1229      1228      1230
      1229      1228      1231      1230      1228      1231      1228      1231      1232
      1228      1231      1233      1228      1231      1234      1232      1231      1233
      1232      1231      1234      1233      1231      1234      1231      1234      1235
      1231      1234      1236      1231      1234      1237      1235      1234      1236
      1235      1234      1237      1236      1234      1237      1234      1237      1238
      1234      1237      1239      1234      1237      1240      1238      1237      1239
      1238      1237      1240      1239      1237      1240      1237      1240      1241
      1237      1240      1242      1237      1240      1243      1241      1240      1242
      1241      1240      1243      1242      1240      1243      1240      1243      1244
      1240      1243      1245      1240      1243      1246      1244      1243      1245
      1244      1243      1246      1245      1243      1246      1243      1246      1247
      1243      1246      1248      1243      1246      1249      1247      1246      1248
      1247      1246      1249      1248      1246      1249      1246      1249      1250
      1246      1249      1251      1246      1249      1252      1250      1249      1251
      1250      1249      1252      1251      1249      1252      1249      1252      1253
      1249      1252      1254      1249      1252      1255      1253      1252      1254
      1253      1252      1255      1254      1252      1255      1252      1255      1256
      1252      1255      1257      1252      1255      1258      1256      1255      1257
      1256      1255      1258      1257      1255      1258      1207      1259      1260
      1207      1259      1261      1260      1259      1261      1259      1261      1262
      1259      1261      1263      1259      1261      1264      1262      1261      1263
      1262      1261      1264      1263      1261      1264      1261      1264      1265
      1261      1264      1266      1261      1264      1267      1265      1264      1266
      1265      1264      1267      1266      1264      1267      1264      1267      1268
      1264      1267      1269      1264      1267      1270      1268      1267      1269
      1268      1267      1270      1269      1267      1270      1267      1270      1271
      1267      1270      1272      1267      1270      1273      1271      1270      1272
      1271      1270      1273      1272      1270      1273      1270      1273      1274
      1270      1273      1275      1270      1273      1276      1274      1273      1275
      1274      1273      1276      1275      1273      1276      1273      1276      1277
      1273      1276      1278      1273      1276      1279      1277      1276      1278
      1277      1276      1279      1278      1276      1279      1276      1279      1280
      1276      1279      1281      1276      1279      1282      1280      1279      1281
      1280      1279      1282      1281      1279      1282      1279      1282      1283
      1279      1282      1284      1283      1282      1284      1282      1284      1285
      1282      1284      1286      1285      1284      1286      1284      1286      1287
      1284      1286      1288      1284      1286      1289      1287      1286      1288
      1287      1286      1289      1288      1286      1289      1286      1289      1290
      1286      1289      1291      1286      1289      1292      1290      1289      1291
      1290      1289      1292      1291      1289      1292      1289      1292      1293
      1289      1292      1294      1289      1292      1295      1293      1292      1294
      1293      1292      1295      1294      1292      1295      1292      1295      1296
      1292      1295      1297      1292      1295      1298      1296      1295      1297
      1296      1295      1298      1297      1295      1298      1295      1298      1299
      1295      1298      1300      1295      1298      1301      1299      1298      1300
      1299      1298      1301      1300      1298      1301      1298      1301      1302
      1298      1301      1303      1298      1301      1304      1302      1301      1303
      1302      1301      1304      1303      1301      1304      1301      1304      1305
      1301      1304      1306      1301      1304      1307      1305      1304      1306
      1305      1304      1307      1306      1304      1307      1304      1307      1308
      1304      1307      1309      1304      1307      1310      1308      1307      1309
      1308      1307      1310      1309      1307      1310      6294      6293      6295
      6294      6293      6297      6294      6293      6339      6295      6293      6297
      6295      6293      6339      6297      6293      6339      6293      6295      6296
      6293      6297      6298      6293      6297      6299      6293      6297      6300
      6298      6297      6299      6298      6297      6300      6299      6297      6300
      6297      6300      6301      6297      6300      6331      6301      6300      6331
      6300      6301      6302      6300      6301      6303      6302      6301      6303
      6301      6303      6304      6301      6303      6305      6301      6303      6306
      6304      6303      6305      6304      6303      6306      6305      6303      6306
      6303      6306      6307      6303      6306      6308      6303      6306      6329
      6307      6306      6308      6307      6306      6329      6308      6306      6329
      6306      6308      6309      6306      6308      6310      6306      6308      6318
      6309      6308      6310      6309      6308      6318      6310      6308      6318
      6308      6310      6311      6308      6310      6312      6308      6310      6313
      6311      6310      6312      6311      6310      6313      6312      6310      6313
      6310      6313      6314      6310      6313      6315      6310      6313      6316
      6314      6313      6315      6314      6313      6316      6315      6313      6316
      6313      6316      6317      6313      6316      6318      6313      6316      6342
      6317      6316      6318      6317      6316      6342      6318      6316      6342
      6308      6318      6316      6308      6318      6319      6308      6318      6323
      6316      6318      6319      6316      6318      6323      6319      6318      6323
      6318      6319      6320      6318      6319      6321      6318      6319      6322
      6320      6319      6321      6320      6319      6322      6321      6319      6322
      6318      6323      6324      6318      6323      6325      6318      6323      6326
      6324      6323      6325      6324      6323      6326      6325      6323      6326
      6323      6326      6327      6323      6326      6328      6323      6326      6329
      6327      6326      6328      6327      6326      6329      6328      6326      6329
      6306      6329      6326      6306      6329      6330      6306      6329      6331
      6326      6329      6330      6326      6329      6331      6330      6329      6331
      6300      6331      6329      6300      6331      6332      6300      6331      6336
      6329      6331      6332      6329      6331      6336      6332      6331      6336
      6331      6332      6333      6331      6332      6334      6331      6332      6335
      6333      6332      6334      6333      6332      6335      6334      6332      6335
      6331      6336      6337      6331      6336      6338      6331      6336      6339
      6337      6336      6338      6337      6336      6339      6338      6336      6339
      6293      6339      6336      6293      6339      6340      6293      6339      6341
      6336      6339      6340      6336      6339      6341      6340      6339      6341
      6316      6342      6343      6316      6342      6344      6316      6342      6348
      6343      6342      6344      6343      6342      6348      6344      6342      6348
      6342      6344      6345      6342      6344      6346      6342      6344      6347
      6345      6344      6346      6345      6344      6347      6346      6344      6347
      6342      6348      6349      6342      6348      6350      6342      6348      6351
      6349      6348      6350      6349      6348      6351      6350      6348      6351
      6348      6351      6352      6348      6351      6353      6348      6351      6354
      6352      6351      6353      6352      6351      6354      6353      6351      6354
      6351      6354      6355      6351      6354      6356      6351      6354      6357
      6355      6354      6356      6355      6354      6357      6356      6354      6357
      6354      6357      6358      6354      6357      6359      6354      6357      6363
      6358      6357      6359      6358      6357      6363      6359      6357      6363
      6357      6359      6360      6357      6359      6361      6357      6359      6362
      6360      6359      6361      6360      6359      6362      6361      6359      6362
      6357      6363      6364      6357      6363      6365      6357      6363      6366
      6364      6363      6365      6364      6363      6366      6365      6363      6366
      1312      1311      1316      1312      1311      1320      1312      1311      1324
      1316      1311      1320      1316      1311      1324      1320      1311      1324
      1311      1312      1313      1311      1312      1314      1311      1312      1315
      1313      1312      1314      1313      1312      1315      1314      1312      1315
      1311      1316      1317      1311      1316      1318      1311      1316      1319
      1317      1316      1318      1317      1316      1319      1318      1316      1319
      1311      1320      1321      1311      1320      1322      1311      1320      1323
      1321      1320      1322      1321      1320      1323      1322      1320      1323
      1311      1324      1325      1311      1324      1326      1311      1324      1327
      1325      1324      1326      1325      1324      1327      1326      1324      1327
      1324      1327      1328      1324      1327      1329      1324      1327      1334
      1328      1327      1329      1328      1327      1334      1329      1327      1334
      1331      1330      1332      1331      1330      1333      1331      1330      1334
      1332      1330      1333      1332      1330      1334      1333      1330      1334
      1330      1333      1335      1327      1334      1330      1333      1335      1336
      1333      1335      1337      1333      1335      1340      1336      1335      1337
      1336      1335      1340      1337      1335      1340      1339      1338      1340
      1339      1338      1390      1340      1338      1390      1335      1340      1338
      1335      1340      1341      1335      1340      1342      1338      1340      1341
      1338      1340      1342      1341      1340      1342      1340      1342      1343
      1340      1342      1344      1340      1342      1346      1343      1342      1344
      1343      1342      1346      1344      1342      1346      1342      1344      1345
      1342      1346      1347      1342      1346      1348      1347      1346      1348
      1346      1348      1349      1346      1348      1350      1349      1348      1350
      1348      1350      1351      1348      1350      1352      1348      1350      1353
      1351      1350      1352      1351      1350      1353      1352      1350      1353
      1350      1353      1354      1350      1353      1355      1350      1353      1356
      1354      1353      1355      1354      1353      1356      1355      1353      1356
      1353      1356      1357      1353      1356      1358      1353      1356      1359
      1357      1356      1358      1357      1356      1359      1358      1356      1359
      1356      1359      1360      1356      1359      1361      1356      1359      1362
      1360      1359      1361      1360      1359      1362      1361      1359      1362
      1359      1362      1363      1359      1362      1364      1359      1362      1365
      1363      1362      1364      1363      1362      1365      1364      1362      1365
      1362      1365      1366      1362      1365      1367      1362      1365      1368
      1366      1365      1367      1366      1365      1368      1367      1365      1368
      1365      1368      1369      1365      1368      1370      1365      1368      1371
      1369      1368      1370      1369      1368      1371      1370      1368      1371
      1368      1371      1372      1368      1371      1373      1368      1371      1374
      1372      1371      1373      1372      1371      1374      1373      1371      1374
      1371      1374      1375      1371      1374      1376      1371      1374      1377
      1375      1374      1376      1375      1374      1377      1376      1374      1377
      1374      1377      1378      1374      1377      1379      1374      1377      1380
      1378      1377      1379      1378      1377      1380      1379      1377      1380
      1377      1380      1381      1377      1380      1382      1377      1380      1383
      1381      1380      1382      1381      1380      1383      1382      1380      1383
      1380      1383      1384      1380      1383      1385      1380      1383      1386
      1384      1383      1385      1384      1383      1386      1385      1383      1386
      1383      1386      1387      1383      1386      1388      1383      1386      1389
      1387      1386      1388      1387      1386      1389      1388      1386      1389
      1338      1390      1391      1338      1390      1392      1391      1390      1392
      1390      1392      1393      1390      1392      1394      1390      1392      1395
      1393      1392      1394      1393      1392      1395      1394      1392      1395
      1392      1395      1396      1392      1395      1397      1392      1395      1398
      1396      1395      1397      1396      1395      1398      1397      1395      1398
      1395      1398      1399      1395      1398      1400      1395      1398      1401
      1399      1398      1400      1399      1398      1401      1400      1398      1401
      1398      1401      1402      1398      1401      1403      1398      1401      1404
      1402      1401      1403      1402      1401      1404      1403      1401      1404
      1401      1404      1405      1401      1404      1406      1401      1404      1407
      1405      1404      1406      1405      1404      1407      1406      1404      1407
      1404      1407      1408      1404      1407      1409      1404      1407      1410
      1408      1407      1409      1408      1407      1410      1409      1407      1410
      1407      1410      1411      1407      1410      1412      1407      1410      1413
      1411      1410      1412      1411      1410      1413      1412      1410      1413
      1410      1413      1414      1410      1413      1415      1414      1413      1415
      1413      1415      1416      1413      1415      1417      1416      1415      1417
      1415      1417      1418      1415      1417      1419      1415      1417      1420
      1418      1417      1419      1418      1417      1420      1419      1417      1420
      1417      1420      1421      1417      1420      1422      1417      1420      1423
      1421      1420      1422      1421      1420      1423      1422      1420      1423
      1420      1423      1424      1420      1423      1425      1420      1423      1426
      1424      1423      1425      1424      1423      1426      1425      1423      1426
      1423      1426      1427      1423      1426      1428      1423      1426      1429
      1427      1426      1428      1427      1426      1429      1428      1426      1429
      1426      1429      1430      1426      1429      1431      1426      1429      1432
      1430      1429      1431      1430      1429      1432      1431      1429      1432
      1429      1432      1433      1429      1432      1434      1429      1432      1435
      1433      1432      1434      1433      1432      1435      1434      1432      1435
      1432      1435      1436      1432      1435      1437      1432      1435      1438
      1436      1435      1437      1436      1435      1438      1437      1435      1438
      1435      1438      1439      1435      1438      1440      1435      1438      1441
      1439      1438      1440      1439      1438      1441      1440      1438      1441
      6368      6367      6369      6368      6367      6371      6368      6367      6413
      6369      6367      6371      6369      6367      6413      6371      6367      6413
      6367      6369      6370      6367      6371      6372      6367      6371      6373
      6367      6371      6374      6372      6371      6373      6372      6371      6374
      6373      6371      6374      6371      6374      6375      6371      6374      6405
      6375      6374      6405      6374      6375      6376      6374      6375      6377
      6376      6375      6377      6375      6377      6378      6375      6377      6379
      6375      6377      6380      6378      6377      6379      6378      6377      6380
      6379      6377      6380      6377      6380      6381      6377      6380      6382
      6377      6380      6403      6381      6380      6382      6381      6380      6403
      6382      6380      6403      6380      6382      6383      6380      6382      6384
      6380      6382      6392      6383      6382      6384      6383      6382      6392
      6384      6382      6392      6382      6384      6385      6382      6384      6386
      6382      6384      6387      6385      6384      6386      6385      6384      6387
      6386      6384      6387      6384      6387      6388      6384      6387      6389
      6384      6387      6390      6388      6387      6389      6388      6387      6390
      6389      6387      6390      6387      6390      6391      6387      6390      6392
      6387      6390      6416      6391      6390      6392      6391      6390      6416
      6392      6390      6416      6382      6392      6390      6382      6392      6393
      6382      6392      6397      6390      6392      6393      6390      6392      6397
      6393      6392      6397      6392      6393      6394      6392      6393      6395
      6392      6393      6396      6394      6393      6395      6394      6393      6396
      6395      6393      6396      6392      6397      6398      6392      6397      6399
      6392      6397      6400      6398      6397      6399      6398      6397      6400
      6399      6397      6400      6397      6400      6401      6397      6400      6402
      6397      6400      6403      6401      6400      6402      6401      6400      6403
      6402      6400      6403      6380      6403      6400      6380      6403      6404
      6380      6403      6405      6400      6403      6404      6400      6403      6405
      6404      6403      6405      6374      6405      6403      6374      6405      6406
      6374      6405      6410      6403      6405      6406      6403      6405      6410
      6406      6405      6410      6405      6406      6407      6405      6406      6408
      6405      6406      6409      6407      6406      6408      6407      6406      6409
      6408      6406      6409      6405      6410      6411      6405      6410      6412
      6405      6410      6413      6411      6410      6412      6411      6410      6413
      6412      6410      6413      6367      6413      6410      6367      6413      6414
      6367      6413      6415      6410      6413      6414      6410      6413      6415
      6414      6413      6415      6390      6416      6417      6390      6416      6418
      6390      6416      6422      6417      6416      6418      6417      6416      6422
      6418      6416      6422      6416      6418      6419      6416      6418      6420
      6416      6418      6421      6419      6418      6420      6419      6418      6421
      6420      6418      6421      6416      6422      6423      6416      6422      6424
      6416      6422      6425      6423      6422      6424      6423      6422      6425
      6424      6422      6425      6422      6425      6426      6422      6425      6427
      6422      6425      6428      6426      6425      6427      6426      6425      6428
      6427      6425      6428      6425      6428      6429      6425      6428      6430
      6425      6428      6431      6429      6428      6430      6429      6428      6431
      6430      6428      6431      6428      6431      6432      6428      6431      6433
      6428      6431      6437      6432      6431      6433      6432      6431      6437
      6433      6431      6437      6431      6433      6434      6431      6433      6435
      6431      6433      6436      6434      6433      6435      6434      6433      6436
      6435      6433      6436      6431      6437      6438      6431      6437      6439
      6431      6437      6440      6438      6437      6439      6438      6437      6440
      6439      6437      6440      6442      6441      6443      6442      6441      6445
      6442      6441      6487      6443      6441      6445      6443      6441      6487
      6445      6441      6487      6441      6443      6444      6441      6445      6446
      6441      6445      6447      6441      6445      6448      6446      6445      6447
      6446      6445      6448      6447      6445      6448      6445      6448      6449
      6445      6448      6479      6449      6448      6479      6448      6449      6450
      6448      6449      6451      6450      6449      6451      6449      6451      6452
      6449      6451      6453      6449      6451      6454      6452      6451      6453
      6452      6451      6454      6453      6451      6454      6451      6454      6455
      6451      6454      6456      6451      6454      6477      6455      6454      6456
      6455      6454      6477      6456      6454      6477      6454      6456      6457
      6454      6456      6458      6454      6456      6466      6457      6456      6458
      6457      6456      6466      6458      6456      6466      6456      6458      6459
      6456      6458      6460      6456      6458      6461      6459      6458      6460
      6459      6458      6461      6460      6458      6461      6458      6461      6462
      6458      6461      6463      6458      6461      6464      6462      6461      6463
      6462      6461      6464      6463      6461      6464      6461      6464      6465
      6461      6464      6466      6461      6464      6490      6465      6464      6466
      6465      6464      6490      6466      6464      6490      6456      6466      6464
      6456      6466      6467      6456      6466      6471      6464      6466      6467
      6464      6466      6471      6467      6466      6471      6466      6467      6468
      6466      6467      6469      6466      6467      6470      6468      6467      6469
      6468      6467      6470      6469      6467      6470      6466      6471      6472
      6466      6471      6473      6466      6471      6474      6472      6471      6473
      6472      6471      6474      6473      6471      6474      6471      6474      6475
      6471      6474      6476      6471      6474      6477      6475      6474      6476
      6475      6474      6477      6476      6474      6477      6454      6477      6474
      6454      6477      6478      6454      6477      6479      6474      6477      6478
      6474      6477      6479      6478      6477      6479      6448      6479      6477
      6448      6479      6480      6448      6479      6484      6477      6479      6480
      6477      6479      6484      6480      6479      6484      6479      6480      6481
      6479      6480      6482      6479      6480      6483      6481      6480      6482
      6481      6480      6483      6482      6480      6483      6479      6484      6485
      6479      6484      6486      6479      6484      6487      6485      6484      6486
      6485      6484      6487      6486      6484      6487      6441      6487      6484
      6441      6487      6488      6441      6487      6489      6484      6487      6488
      6484      6487      6489      6488      6487      6489      6464      6490      6491
      6464      6490      6492      6464      6490      6496      6491      6490      6492
      6491      6490      6496      6492      6490      6496      6490      6492      6493
      6490      6492      6494      6490      6492      6495      6493      6492      6494
      6493      6492      6495      6494      6492      6495      6490      6496      6497
      6490      6496      6498      6490      6496      6499      6497      6496      6498
      6497      6496      6499      6498      6496      6499      6496      6499      6500
      6496      6499      6501      6496      6499      6502      6500      6499      6501
      6500      6499      6502      6501      6499      6502      6499      6502      6503
      6499      6502      6504      6499      6502      6505      6503      6502      6504
      6503      6502      6505      6504      6502      6505      6502      6505      6506
      6502      6505      6507      6502      6505      6511      6506      6505      6507
      6506      6505      6511      6507      6505      6511      6505      6507      6508
      6505      6507      6509      6505      6507      6510      6508      6507      6509
      6508      6507      6510      6509      6507      6510      6505      6511      6512
      6505      6511      6513      6505      6511      6514      6512      6511      6513
      6512      6511      6514      6513      6511      6514      1443      1442      1447
      1443      1442      1451      1443      1442      1455      1447      1442      1451
      1447      1442      1455      1451      1442      1455      1442      1443      1444
      1442      1443      1445      1442      1443      1446      1444      1443      1445
      1444      1443      1446      1445      1443      1446      1442      1447      1448
      1442      1447      1449      1442      1447      1450      1448      1447      1449
      1448      1447      1450      1449      1447      1450      1442      1451      1452
      1442      1451      1453      1442      1451      1454      1452      1451      1453
      1452      1451      1454      1453      1451      1454      1442      1455      1456
      1442      1455      1457      1442      1455      1458      1456      1455      1457
      1456      1455      1458      1457      1455      1458      1455      1458      1459
      1455      1458      1460      1455      1458      1465      1459      1458      1460
      1459      1458      1465      1460      1458      1465      1462      1461      1463
      1462      1461      1464      1462      1461      1465      1463      1461      1464
      1463      1461      1465      1464      1461      1465      1461      1464      1466
      1458      1465      1461      1464      1466      1467      1464      1466      1468
      1464      1466      1471      1467      1466      1468      1467      1466      1471
      1468      1466      1471      1470      1469      1471      1470      1469      1521
      1471      1469      1521      1466      1471      1469      1466      1471      1472
      1466      1471      1473      1469      1471      1472      1469      1471      1473
      1472      1471      1473      1471      1473      1474      1471      1473      1475
      1471      1473      1477      1474      1473      1475      1474      1473      1477
      1475      1473      1477      1473      1475      1476      1473      1477      1478
      1473      1477      1479      1478      1477      1479      1477      1479      1480
      1477      1479      1481      1480      1479      1481      1479      1481      1482
      1479      1481      1483      1479      1481      1484      1482      1481      1483
      1482      1481      1484      1483      1481      1484      1481      1484      1485
      1481      1484      1486      1481      1484      1487      1485      1484      1486
      1485      1484      1487      1486      1484      1487      1484      1487      1488
      1484      1487      1489      1484      1487      1490      1488      1487      1489
      1488      1487      1490      1489      1487      1490      1487      1490      1491
      1487      1490      1492      1487      1490      1493      1491      1490      1492
      1491      1490      1493      1492      1490      1493      1490      1493      1494
      1490      1493      1495      1490      1493      1496      1494      1493      1495
      1494      1493      1496      1495      1493      1496      1493      1496      1497
      1493      1496      1498      1493      1496      1499      1497      1496      1498
      1497      1496      1499      1498      1496      1499      1496      1499      1500
      1496      1499      1501      1496      1499      1502      1500      1499      1501
      1500      1499      1502      1501      1499      1502      1499      1502      1503
      1499      1502      1504      1499      1502      1505      1503      1502      1504
      1503      1502      1505      1504      1502      1505      1502      1505      1506
      1502      1505      1507      1502      1505      1508      1506      1505      1507
      1506      1505      1508      1507      1505      1508      1505      1508      1509
      1505      1508      1510      1505      1508      1511      1509      1508      1510
      1509      1508      1511      1510      1508      1511      1508      1511      1512
      1508      1511      1513      1508      1511      1514      1512      1511      1513
      1512      1511      1514      1513      1511      1514      1511      1514      1515
      1511      1514      1516      1511      1514      1517      1515      1514      1516
      1515      1514      1517      1516      1514      1517      1514      1517      1518
      1514      1517      1519      1514      1517      1520      1518      1517      1519
      1518      1517      1520      1519      1517      1520      1469      1521      1522
      1469      1521      1523      1522      1521      1523      1521      1523      1524
      1521      1523      1525      1521      1523      1526      1524      1523      1525
      1524      1523      1526      1525      1523      1526      1523      1526      1527
      1523      1526      1528      1523      1526      1529      1527      1526      1528
      1527      1526      1529      1528      1526      1529      1526      1529      1530
      1526      1529      1531      1526      1529      1532      1530      1529      1531
      1530      1529      1532      1531      1529      1532      1529      1532      1533
      1529      1532      1534      1529      1532      1535      1533      1532      1534
      1533      1532      1535      1534      1532      1535      1532      1535      1536
      1532      1535      1537      1532      1535      1538      1536      1535      1537
      1536      1535      1538      1537      1535      1538      1535      1538      1539
      1535      1538      1540      1535      1538      1541      1539      1538      1540
      1539      1538      1541      1540      1538      1541      1538      1541      1542
      1538      1541      1543      1538      1541      1544      1542      1541      1543
      1542      1541      1544      1543      1541      1544      1541      1544      1545
      1541      1544      1546      1545      1544      1546      1544      1546      1547
      1544      1546      1548      1547      1546      1548      1546      1548      1549
      1546      1548      1550      1546      1548      1551      1549      1548      1550
      1549      1548      1551      1550      1548      1551      1548      1551      1552
      1548      1551      1553      1548      1551      1554      1552      1551      1553
      1552      1551      1554      1553      1551      1554      1551      1554      1555
      1551      1554      1556      1551      1554      1557      1555      1554      1556
      1555      1554      1557      1556      1554      1557      1554      1557      1558
      1554      1557      1559      1554      1557      1560      1558      1557      1559
      1558      1557      1560      1559      1557      1560      1557      1560      1561
      1557      1560      1562      1557      1560      1563      1561      1560      1562
      1561      1560      1563      1562      1560      1563      1560      1563      1564
      1560      1563      1565      1560      1563      1566      1564      1563      1565
      1564      1563      1566      1565      1563      1566      1563      1566      1567
      1563      1566      1568      1563      1566      1569      1567      1566      1568
      1567      1566      1569      1568      1566      1569      1566      1569      1570
      1566      1569      1571      1566      1569      1572      1570      1569      1571
      1570      1569      1572      1571      1569      1572      8994      8993      8997
      8994      8993      9001      8994      8993      9005      8997      8993      9001
      8997      8993      9005      9001      8993      9005      8993      8994      8995
      8993      8994      8996      8993      8994      9009      8995      8994      8996
      8995      8994      9009      8996      8994      9009      8993      8997      8998
      8993      8997      8999      8993      8997      9000      8998      8997      8999
      8998      8997      9000      8999      8997      9000      8993      9001      9002
      8993      9001      9003      8993      9001      9004      9002      9001      9003
      9002      9001      9004      9003      9001      9004      8993      9005      9006
      8993      9005      9007      8993      9005      9008      9006      9005      9007
      9006      9005      9008      9007      9005      9008      8994      9009      9010
      8994      9009      9011      8994      9009      9015      9010      9009      9011
      9010      9009      9015      9011      9009      9015      9013      9012      9014
      9013      9012      9015      9013      9012      9016      9014      9012      9015
      9014      9012      9016      9015      9012      9016      9009      9015      9012
      9012      9016      9017      9016      9017      9018      9016      9017      9019
      9016      9017      9020      9018      9017      9019      9018      9017      9020
      9019      9017      9020      9017      9020      9021      9017      9020      9022
      9017      9020      9028      9021      9020      9022      9021      9020      9028
      9022      9020      9028      9020      9022      9023      9022      9023      9024
      9022      9023      9025      9024      9023      9025      9023      9025      9026
      9023      9025      9027      9023      9025      9037      9026      9025      9027
      9026      9025      9037      9027      9025      9037      9020      9028      9029
      9020      9028      9030      9020      9028      9031      9029      9028      9030
      9029      9028      9031      9030      9028      9031      9028      9031      9032
      9031      9032      9033      9031      9032      9034      9033      9032      9034
      9032      9034      9035      9032      9034      9036      9032      9034      9084
      9035      9034      9036      9035      9034      9084      9036      9034      9084
      9025      9037      9038      9025      9037      9039      9025      9037      9040
      9038      9037      9039      9038      9037      9040      9039      9037      9040
      9037      9040      9041      9037      9040      9042      9037      9040      9043
      9041      9040      9042      9041      9040      9043      9042      9040      9043
      9040      9043      9044      9040      9043      9045      9044      9043      9045
      9043      9045      9046      9043      9045      9047      9046      9045      9047
      9045      9047      9048      9045      9047      9049      9045      9047      9050
      9048      9047      9049      9048      9047      9050      9049      9047      9050
      9047      9050      9051      9047      9050      9052      9051      9050      9052
      9050      9052      9053      9050      9052      9054      9053      9052      9054
      9052      9054      9055      9052      9054      9056      9052      9054      9057
      9055      9054      9056      9055      9054      9057      9056      9054      9057
      9054      9057      9058      9054      9057      9059      9058      9057      9059
      9057      9059      9060      9057      9059      9061      9060      9059      9061
      9059      9061      9062      9059      9061      9063      9059      9061      9064
      9062      9061      9063      9062      9061      9064      9063      9061      9064
      9061      9064      9065      9061      9064      9066      9065      9064      9066
      9064      9066      9067      9064      9066      9068      9067      9066      9068
      9066      9068      9069      9066      9068      9070      9066      9068      9071
      9069      9068      9070      9069      9068      9071      9070      9068      9071
      9068      9071      9072      9068      9071      9073      9068      9071      9074
      9072      9071      9073      9072      9071      9074      9073      9071      9074
      9071      9074      9075      9071      9074      9076      9071      9074      9077
      9075      9074      9076      9075      9074      9077      9076      9074      9077
      9074      9077      9078      9074      9077      9079      9074      9077      9080
      9078      9077      9079      9078      9077      9080      9079      9077      9080
      9077      9080      9081      9077      9080      9082      9077      9080      9083
      9081      9080      9082      9081      9080      9083      9082      9080      9083
      9034      9084      9085      9034      9084      9086      9034      9084      9087
      9085      9084      9086      9085      9084      9087      9086      9084      9087
      9084      9087      9088      9084      9087      9089      9084      9087      9090
      9088      9087      9089      9088      9087      9090      9089      9087      9090
      9087      9090      9091      9087      9090      9092      9087      9090      9093
      9091      9090      9092      9091      9090      9093      9092      9090      9093
      9090      9093      9094      9090      9093      9095      9090      9093      9096
      9094      9093      9095      9094      9093      9096      9095      9093      9096
      9093      9096      9097      9093      9096      9098      9093      9096      9099
      9097      9096      9098      9097      9096      9099      9098      9096      9099
      9096      9099      9100      9096      9099      9101      9096      9099      9102
      9100      9099      9101      9100      9099      9102      9101      9099      9102
      9099      9102      9103      9099      9102      9104      9099      9102      9105
      9103      9102      9104      9103      9102      9105      9104      9102      9105
      9102      9105      9106      9102      9105      9107      9102      9105      9108
      9106      9105      9107      9106      9105      9108      9107      9105      9108
      9105      9108      9109      9105      9108      9110      9105      9108      9111
      9109      9108      9110      9109      9108      9111      9110      9108      9111
      9108      9111      9112      9108      9111      9113      9108      9111      9114
      9112      9111      9113      9112      9111      9114      9113      9111      9114
      9111      9114      9115      9111      9114      9116      9111      9114      9117
      9115      9114      9116      9115      9114      9117      9116      9114      9117
      9114      9117      9118      9114      9117      9119      9114      9117      9120
      9118      9117      9119      9118      9117      9120      9119      9117      9120
      9117      9120      9121      9117      9120      9122      9117      9120      9123
      9121      9120      9122      9121      9120      9123      9122      9120      9123
      9120      9123      9124      9120      9123      9125      9120      9123      9126
      9124      9123      9125      9124      9123      9126      9125      9123      9126
      9123      9126      9127      9123      9126      9128      9123      9126      9129
      9127      9126      9128      9127      9126      9129      9128      9126      9129
      9126      9129      9130      9126      9129      9131      9126      9129      9132
      9130      9129      9131      9130      9129      9132      9131      9129      9132
      1574      1573      1578      1574      1573      1582      1574      1573      1586
      1578      1573      1582      1578      1573      1586      1582      1573      1586
      1573      1574      1575      1573      1574      1576      1573      1574      1577
      1575      1574      1576      1575      1574      1577      1576      1574      1577
      1573      1578      1579      1573      1578      1580      1573      1578      1581
      1579      1578      1580      1579      1578      1581      1580      1578      1581
      1573      1582      1583      1573      1582      1584      1573      1582      1585
      1583      1582      1584      1583      1582      1585      1584      1582      1585
      1573      1586      1587      1573      1586      1588      1573      1586      1589
      1587      1586      1588      1587      1586      1589      1588      1586      1589
      1586      1589      1590      1586      1589      1591      1586      1589      1596
      1590      1589      1591      1590      1589      1596      1591      1589      1596
      1593      1592      1594      1593      1592      1595      1593      1592      1596
      1594      1592      1595      1594      1592      1596      1595      1592      1596
      1592      1595      1597      1589      1596      1592      1595      1597      1598
      1595      1597      1599      1595      1597      1602      1598      1597      1599
      1598      1597      1602      1599      1597      1602      1601      1600      1602
      1601      1600      1652      1602      1600      1652      1597      1602      1600
      1597      1602      1603      1597      1602      1604      1600      1602      1603
      1600      1602      1604      1603      1602      1604      1602      1604      1605
      1602      1604      1606      1602      1604      1608      1605      1604      1606
      1605      1604      1608      1606      1604      1608      1604      1606      1607
      1604      1608      1609      1604      1608      1610      1609      1608      1610
      1608      1610      1611      1608      1610      1612      1611      1610      1612
      1610      1612      1613      1610      1612      1614      1610      1612      1615
      1613      1612      1614      1613      1612      1615      1614      1612      1615
      1612      1615      1616      1612      1615      1617      1612      1615      1618
      1616      1615      1617      1616      1615      1618      1617      1615      1618
      1615      1618      1619      1615      1618      1620      1615      1618      1621
      1619      1618      1620      1619      1618      1621      1620      1618      1621
      1618      1621      1622      1618      1621      1623      1618      1621      1624
      1622      1621      1623      1622      1621      1624      1623      1621      1624
      1621      1624      1625      1621      1624      1626      1621      1624      1627
      1625      1624      1626      1625      1624      1627      1626      1624      1627
      1624      1627      1628      1624      1627      1629      1624      1627      1630
      1628      1627      1629      1628      1627      1630      1629      1627      1630
      1627      1630      1631      1627      1630      1632      1627      1630      1633
      1631      1630      1632      1631      1630      1633      1632      1630      1633
      1630      1633      1634      1630      1633      1635      1630      1633      1636
      1634      1633      1635      1634      1633      1636      1635      1633      1636
      1633      1636      1637      1633      1636      1638      1633      1636      1639
      1637      1636      1638      1637      1636      1639      1638      1636      1639
      1636      1639      1640      1636      1639      1641      1636      1639      1642
      1640      1639      1641      1640      1639      1642      1641      1639      1642
      1639      1642      1643      1639      1642      1644      1639      1642      1645
      1643      1642      1644      1643      1642      1645      1644      1642      1645
      1642      1645      1646      1642      1645      1647      1642      1645      1648
      1646      1645      1647      1646      1645      1648      1647      1645      1648
      1645      1648      1649      1645      1648      1650      1645      1648      1651
      1649      1648      1650      1649      1648      1651      1650      1648      1651
      1600      1652      1653      1600      1652      1654      1653      1652      1654
      1652      1654      1655      1652      1654      1656      1652      1654      1657
      1655      1654      1656      1655      1654      1657      1656      1654      1657
      1654      1657      1658      1654      1657      1659      1654      1657      1660
      1658      1657      1659      1658      1657      1660      1659      1657      1660
      1657      1660      1661      1657      1660      1662      1657      1660      1663
      1661      1660      1662      1661      1660      1663      1662      1660      1663
      1660      1663      1664      1660      1663      1665      1660      1663      1666
      1664      1663      1665      1664      1663      1666      1665      1663      1666
      1663      1666      1667      1663      1666      1668      1663      1666      1669
      1667      1666      1668      1667      1666      1669      1668      1666      1669
      1666      1669      1670      1666      1669      1671      1666      1669      1672
      1670      1669      1671      1670      1669      1672      1671      1669      1672
      1669      1672      1673      1669      1672      1674      1669      1672      1675
      1673      1672      1674      1673      1672      1675      1674      1672      1675
      1672      1675      1676      1672      1675      1677      1676      1675      1677
      1675      1677      1678      1675      1677      1679      1678      1677      1679
      1677      1679      1680      1677      1679      1681      1677      1679      1682
      1680      1679      1681      1680      1679      1682      1681      1679      1682
      1679      1682      1683      1679      1682      1684      1679      1682      1685
      1683      1682      1684      1683      1682      1685      1684      1682      1685
      1682      1685      1686      1682      1685      1687      1682      1685      1688
      1686      1685      1687      1686      1685      1688      1687      1685      1688
      1685      1688      1689      1685      1688      1690      1685      1688      1691
      1689      1688      1690      1689      1688      1691      1690      1688      1691
      1688      1691      1692      1688      1691      1693      1688      1691      1694
      1692      1691      1693      1692      1691      1694      1693      1691      1694
      1691      1694      1695      1691      1694      1696      1691      1694      1697
      1695      1694      1696      1695      1694      1697      1696      1694      1697
      1694      1697      1698      1694      1697      1699      1694      1697      1700
      1698      1697      1699      1698      1697      1700      1699      1697      1700
      1697      1700      1701      1697      1700      1702      1697      1700      1703
      1701      1700      1702      1701      1700      1703      1702      1700      1703
      7882      7881      7886      7882      7881      7890      7882      7881      7894
      7886      7881      7890      7886      7881      7894      7890      7881      7894
      7881      7882      7883      7881      7882      7884      7881      7882      7885
      7883      7882      7884      7883      7882      7885      7884      7882      7885
      7881      7886      7887      7881      7886      7888      7881      7886      7889
      7887      7886      7888      7887      7886      7889      7888      7886      7889
      7881      7890      7891      7881      7890      7892      7881      7890      7893
      7891      7890      7892      7891      7890      7893      7892      7890      7893
      7881      7894      7895      7881      7894      7896      7881      7894      7897
      7895      7894      7896      7895      7894      7897      7896      7894      7897
      7894      7897      7898      7894      7897      7899      7894      7897      7903
      7898      7897      7899      7898      7897      7903      7899      7897      7903
      7901      7900      7902      7901      7900      7903      7901      7900      7904
      7902      7900      7903      7902      7900      7904      7903      7900      7904
      7897      7903      7900      7900      7904      7905      7904      7905      7906
      7904      7905      7907      7904      7905      7908      7906      7905      7907
      7906      7905      7908      7907      7905      7908      7905      7908      7909
      7905      7908      7910      7905      7908      7916      7909      7908      7910
      7909      7908      7916      7910      7908      7916      7908      7910      7911
      7910      7911      7912      7910      7911      7913      7912      7911      7913
      7911      7913      7914      7911      7913      7915      7911      7913      7925
      7914      7913      7915      7914      7913      7925      7915      7913      7925
      7908      7916      7917      7908      7916      7918      7908      7916      7919
      7917      7916      7918      7917      7916      7919      7918      7916      7919
      7916      7919      7920      7919      7920      7921      7919      7920      7922
      7921      7920      7922      7920      7922      7923      7920      7922      7924
      7920      7922      7970      7923      7922      7924      7923      7922      7970
      7924      7922      7970      7913      7925      7926      7913      7925      7927
      7913      7925      7928      7926      7925      7927      7926      7925      7928
      7927      7925      7928      7925      7928      7929      7925      7928      7930
      7925      7928      7931      7929      7928      7930      7929      7928      7931
      7930      7928      7931      7928      7931      7932      7928      7931      7933
      7928      7931      7934      7932      7931      7933      7932      7931      7934
      7933      7931      7934      7931      7934      7935      7931      7934      7936
      7931      7934      7937      7935      7934      7936      7935      7934      7937
      7936      7934      7937      7934      7937      7938      7934      7937      7939
      7934      7937      7940      7938      7937      7939      7938      7937      7940
      7939      7937      7940      7937      7940      7941      7937      7940      7942
      7937      7940      7943      7941      7940      7942      7941      7940      7943
      7942      7940      7943      7940      7943      7944      7940      7943      7945
      7944      7943      7945      7943      7945      7946      7943      7945      7947
      7946      7945      7947      7945      7947      7948      7945      7947      7949
      7945      7947      7950      7948      7947      7949      7948      7947      7950
      7949      7947      7950      7947      7950      7951      7947      7950      7952
      7951      7950      7952      7950      7952      7953      7950      7952      7954
      7953      7952      7954      7952      7954      7955      7952      7954      7956
      7952      7954      7957      7955      7954      7956      7955      7954      7957
      7956      7954      7957      7954      7957      7958      7954      7957      7959
      7954      7957      7960      7958      7957      7959      7958      7957      7960
      7959      7957      7960      7957      7960      7961      7957      7960      7962
      7957      7960      7963      7961      7960      7962      7961      7960      7963
      7962      7960      7963      7960      7963      7964      7960      7963      7965
      7960      7963      7966      7964      7963      7965      7964      7963      7966
      7965      7963      7966      7963      7966      7967      7963      7966      7968
      7963      7966      7969      7967      7966      7968      7967      7966      7969
      7968      7966      7969      7922      7970      7971      7922      7970      7972
      7922      7970      7973      7971      7970      7972      7971      7970      7973
      7972      7970      7973      7970      7973      7974      7970      7973      7975
      7970      7973      7976      7974      7973      7975      7974      7973      7976
      7975      7973      7976      7973      7976      7977      7973      7976      7978
      7973      7976      7979      7977      7976      7978      7977      7976      7979
      7978      7976      7979      7976      7979      7980      7976      7979      7981
      7976      7979      7982      7980      7979      7981      7980      7979      7982
      7981      7979      7982      7979      7982      7983      7979      7982      7984
      7979      7982      7985      7983      7982      7984      7983      7982      7985
      7984      7982      7985      7982      7985      7986      7982      7985      7987
      7982      7985      7988      7986      7985      7987      7986      7985      7988
      7987      7985      7988      7985      7988      7989      7985      7988      7990
      7985      7988      7991      7989      7988      7990      7989      7988      7991
      7990      7988      7991      7988      7991      7992      7988      7991      7993
      7988      7991      7994      7992      7991      7993      7992      7991      7994
      7993      7991      7994      7991      7994      7995      7991      7994      7996
      7991      7994      7997      7995      7994      7996      7995      7994      7997
      7996      7994      7997      7994      7997      7998      7994      7997      7999
      7994      7997      8000      7998      7997      7999      7998      7997      8000
      7999      7997      8000      7997      8000      8001      7997      8000      8002
      7997      8000      8003      8001      8000      8002      8001      8000      8003
      8002      8000      8003      8000      8003      8004      8000      8003      8005
      8000      8003      8006      8004      8003      8005      8004      8003      8006
      8005      8003      8006      8003      8006      8007      8003      8006      8008
      8003      8006      8009      8007      8006      8008      8007      8006      8009
      8008      8006      8009      8006      8009      8010      8006      8009      8011
      8006      8009      8012      8010      8009      8011      8010      8009      8012
      8011      8009      8012      8009      8012      8013      8009      8012      8014
      8009      8012      8015      8013      8012      8014      8013      8012      8015
      8014      8012      8015      8012      8015      8016      8012      8015      8017
      8012      8015      8018      8016      8015      8017      8016      8015      8018
      8017      8015      8018      4341      4340      4342      4341      4340      4343
      4341      4340      4344      4342      4340      4343      4342      4340      4344
      4343      4340      4344      4340      4344      4345      4340      4344      4346
      4340      4344      4347      4345      4344      4346      4345      4344      4347
      4346      4344      4347      4344      4347      4348      4344      4347      4349
      4344      4347      4353      4348      4347      4349      4348      4347      4353
      4349      4347      4353      4351      4350      4352      4351      4350      4353
      4351      4350      4354      4352      4350      4353      4352      4350      4354
      4353      4350      4354      4347      4353      4350      4350      4354      4355
      4354      4355      4356      4354      4355      4357      4354      4355      4358
      4356      4355      4357      4356      4355      4358      4357      4355      4358
      4355      4358      4359      4355      4358      4360      4355      4358      4366
      4359      4358      4360      4359      4358      4366      4360      4358      4366
      4358      4360      4361      4360      4361      4362      4360      4361      4363
      4362      4361      4363      4361      4363      4364      4361      4363      4365
      4361      4363      4375      4364      4363      4365      4364      4363      4375
      4365      4363      4375      4358      4366      4367      4358      4366      4368
      4358      4366      4369      4367      4366      4368      4367      4366      4369
      4368      4366      4369      4366      4369      4370      4369      4370      4371
      4369      4370      4372      4371      4370      4372      4370      4372      4373
      4370      4372      4374      4370      4372      4422      4373      4372      4374
      4373      4372      4422      4374      4372      4422      4363      4375      4376
      4363      4375      4377      4363      4375      4378      4376      4375      4377
      4376      4375      4378      4377      4375      4378      4375      4378      4379
      4375      4378      4380      4375      4378      4381      4379      4378      4380
      4379      4378      4381      4380      4378      4381      4378      4381      4382
      4378      4381      4383      4382      4381      4383      4381      4383      4384
      4381      4383      4385      4384      4383      4385      4383      4385      4386
      4383      4385      4387      4383      4385      4388      4386      4385      4387
      4386      4385      4388      4387      4385      4388      4385      4388      4389
      4385      4388      4390      4389      4388      4390      4388      4390      4391
      4388      4390      4392      4391      4390      4392      4390      4392      4393
      4390      4392      4394      4390      4392      4395      4393      4392      4394
      4393      4392      4395      4394      4392      4395      4392      4395      4396
      4392      4395      4397      4396      4395      4397      4395      4397      4398
      4395      4397      4399      4398      4397      4399      4397      4399      4400
      4397      4399      4401      4397      4399      4402      4400      4399      4401
      4400      4399      4402      4401      4399      4402      4399      4402      4403
      4399      4402      4404      4403      4402      4404      4402      4404      4405
      4402      4404      4406      4405      4404      4406      4404      4406      4407
      4404      4406      4408      4404      4406      4409      4407      4406      4408
      4407      4406      4409      4408      4406      4409      4406      4409      4410
      4406      4409      4411      4406      4409      4412      4410      4409      4411
      4410      4409      4412      4411      4409      4412      4409      4412      4413
      4409      4412      4414      4409      4412      4415      4413      4412      4414
      4413      4412      4415      4414      4412      4415      4412      4415      4416
      4412      4415      4417      4412      4415      4418      4416      4415      4417
      4416      4415      4418      4417      4415      4418      4415      4418      4419
      4415      4418      4420      4415      4418      4421      4419      4418      4420
      4419      4418      4421      4420      4418      4421      4372      4422      4423
      4372      4422      4424      4372      4422      4425      4423      4422      4424
      4423      4422      4425      4424      4422      4425      4422      4425      4426
      4422      4425      4427      4422      4425      4428      4426      4425      4427
      4426      4425      4428      4427      4425      4428      4425      4428      4429
      4425      4428      4430      4425      4428      4431      4429      4428      4430
      4429      4428      4431      4430      4428      4431      4428      4431      4432
      4428      4431      4433      4428      4431      4434      4432      4431      4433
      4432      4431      4434      4433      4431      4434      4431      4434      4435
      4431      4434      4436      4431      4434      4437      4435      4434      4436
      4435      4434      4437      4436      4434      4437      4434      4437      4438
      4434      4437      4439      4434      4437      4440      4438      4437      4439
      4438      4437      4440      4439      4437      4440      4437      4440      4441
      4437      4440      4442      4437      4440      4443      4441      4440      4442
      4441      4440      4443      4442      4440      4443      4440      4443      4444
      4440      4443      4445      4440      4443      4446      4444      4443      4445
      4444      4443      4446      4445      4443      4446      4443      4446      4447
      4443      4446      4448      4443      4446      4449      4447      4446      4448
      4447      4446      4449      4448      4446      4449      4446      4449      4450
      4446      4449      4451      4446      4449      4452      4450      4449      4451
      4450      4449      4452      4451      4449      4452      4449      4452      4453
      4449      4452      4454      4449      4452      4455      4453      4452      4454
      4453      4452      4455      4454      4452      4455      4452      4455      4456
      4452      4455      4457      4452      4455      4458      4456      4455      4457
      4456      4455      4458      4457      4455      4458      4455      4458      4459
      4455      4458      4460      4455      4458      4461      4459      4458      4460
      4459      4458      4461      4460      4458      4461      4458      4461      4462
      4458      4461      4463      4458      4461      4464      4462      4461      4463
      4462      4461      4464      4463      4461      4464      4461      4464      4465
      4461      4464      4466      4461      4464      4467      4465      4464      4466
      4465      4464      4467      4466      4464      4467      4464      4467      4468
      4464      4467      4469      4464      4467      4470      4468      4467      4469
      4468      4467      4470      4469      4467      4470      4472      4471      4473
      4472      4471      4474      4472      4471      4475      4473      4471      4474
      4473      4471      4475      4474      4471      4475      4471      4475      4476
      4471      4475      4477      4471      4475      4478      4476      4475      4477
      4476      4475      4478      4477      4475      4478      4475      4478      4479
      4475      4478      4480      4475      4478      4484      4479      4478      4480
      4479      4478      4484      4480      4478      4484      4482      4481      4483
      4482      4481      4484      4482      4481      4485      4483      4481      4484
      4483      4481      4485      4484      4481      4485      4478      4484      4481
      4481      4485      4486      4485      4486      4487      4485      4486      4488
      4485      4486      4489      4487      4486      4488      4487      4486      4489
      4488      4486      4489      4486      4489      4490      4486      4489      4491
      4486      4489      4497      4490      4489      4491      4490      4489      4497
      4491      4489      4497      4489      4491      4492      4491      4492      4493
      4491      4492      4494      4493      4492      4494      4492      4494      4495
      4492      4494      4496      4492      4494      4506      4495      4494      4496
      4495      4494      4506      4496      4494      4506      4489      4497      4498
      4489      4497      4499      4489      4497      4500      4498      4497      4499
      4498      4497      4500      4499      4497      4500      4497      4500      4501
      4500      4501      4502      4500      4501      4503      4502      4501      4503
      4501      4503      4504      4501      4503      4505      4501      4503      4553
      4504      4503      4505      4504      4503      4553      4505      4503      4553
      4494      4506      4507      4494      4506      4508      4494      4506      4509
      4507      4506      4508      4507      4506      4509      4508      4506      4509
      4506      4509      4510      4506      4509      4511      4506      4509      4512
      4510      4509      4511      4510      4509      4512      4511      4509      4512
      4509      4512      4513      4509      4512      4514      4513      4512      4514
      4512      4514      4515      4512      4514      4516      4515      4514      4516
      4514      4516      4517      4514      4516      4518      4514      4516      4519
      4517      4516      4518      4517      4516      4519      4518      4516      4519
      4516      4519      4520      4516      4519      4521      4520      4519      4521
      4519      4521      4522      4519      4521      4523      4522      4521      4523
      4521      4523      4524      4521      4523      4525      4521      4523      4526
      4524      4523      4525      4524      4523      4526      4525      4523      4526
      4523      4526      4527      4523      4526      4528      4527      4526      4528
      4526      4528      4529      4526      4528      4530      4529      4528      4530
      4528      4530      4531      4528      4530      4532      4528      4530      4533
      4531      4530      4532      4531      4530      4533      4532      4530      4533
      4530      4533      4534      4530      4533      4535      4534      4533      4535
      4533      4535      4536      4533      4535      4537      4536      4535      4537
      4535      4537      4538      4535      4537      4539      4535      4537      4540
      4538      4537      4539      4538      4537      4540      4539      4537      4540
      4537      4540      4541      4537      4540      4542      4537      4540      4543
      4541      4540      4542      4541      4540      4543      4542      4540      4543
      4540      4543      4544      4540      4543      4545      4540      4543      4546
      4544      4543      4545      4544      4543      4546      4545      4543      4546
      4543      4546      4547      4543      4546      4548      4543      4546      4549
      4547      4546      4548      4547      4546      4549      4548      4546      4549
      4546      4549      4550      4546      4549      4551      4546      4549      4552
      4550      4549      4551      4550      4549      4552      4551      4549      4552
      4503      4553      4554      4503      4553      4555      4503      4553      4556
      4554      4553      4555      4554      4553      4556      4555      4553      4556
      4553      4556      4557      4553      4556      4558      4553      4556      4559
      4557      4556      4558      4557      4556      4559      4558      4556      4559
      4556      4559      4560      4556      4559      4561      4556      4559      4562
      4560      4559      4561      4560      4559      4562      4561      4559      4562
      4559      4562      4563      4559      4562      4564      4559      4562      4565
      4563      4562      4564      4563      4562      4565      4564      4562      4565
      4562      4565      4566      4562      4565      4567      4562      4565      4568
      4566      4565      4567      4566      4565      4568      4567      4565      4568
      4565      4568      4569      4565      4568      4570      4565      4568      4571
      4569      4568      4570      4569      4568      4571      4570      4568      4571
      4568      4571      4572      4568      4571      4573      4568      4571      4574
      4572      4571      4573      4572      4571      4574      4573      4571      4574
      4571      4574      4575      4571      4574      4576      4571      4574      4577
      4575      4574      4576      4575      4574      4577      4576      4574      4577
      4574      4577      4578      4574      4577      4579      4574      4577      4580
      4578      4577      4579      4578      4577      4580      4579      4577      4580
      4577      4580      4581      4577      4580      4582      4577      4580      4583
      4581      4580      4582      4581      4580      4583      4582      4580      4583
      4580      4583      4584      4580      4583      4585      4580      4583      4586
      4584      4583      4585      4584      4583      4586      4585      4583      4586
      4583      4586      4587      4583      4586      4588      4583      4586      4589
      4587      4586      4588      4587      4586      4589      4588      4586      4589
      4586      4589      4590      4586      4589      4591      4586      4589      4592
      4590      4589      4591      4590      4589      4592      4591      4589      4592
      4589      4592      4593      4589      4592      4594      4589      4592      4595
      4593      4592      4594      4593      4592      4595      4594      4592      4595
      4592      4595      4596      4592      4595      4597      4592      4595      4598
      4596      4595      4597      4596      4595      4598      4597      4595      4598
      4595      4598      4599      4595      4598      4600      4595      4598      4601
      4599      4598      4600      4599      4598      4601      4600      4598      4601
     10483     10482     10484     10483     10482     10485     10483     10482     10486
     10484     10482     10485     10484     10482     10486     10485     10482     10486
     10482     10486     10487     10482     10486     10488     10482     10486     10489
     10487     10486     10488     10487     10486     10489     10488     10486     10489
     10486     10489     10490     10486     10489     10491     10486     10489     10495
     10490     10489     10491     10490     10489     10495     10491     10489     10495
     10493     10492     10494     10493     10492     10495     10493     10492     10496
     10494     10492     10495     10494     10492     10496     10495     10492     10496
     10489     10495     10492     10492     10496     10497     10496     10497     10498
     10496     10497     10499     10496     10497     10500     10498     10497     10499
     10498     10497     10500     10499     10497     10500     10497     10500     10501
     10497     10500     10502     10497     10500     10508     10501     10500     10502
     10501     10500     10508     10502     10500     10508     10500     10502     10503
     10502     10503     10504     10502     10503     10505     10504     10503     10505
     10503     10505     10506     10503     10505     10507     10503     10505     10517
     10506     10505     10507     10506     10505     10517     10507     10505     10517
     10500     10508     10509     10500     10508     10510     10500     10508     10511
     10509     10508     10510     10509     10508     10511     10510     10508     10511
     10508     10511     10512     10511     10512     10513     10511     10512     10514
     10513     10512     10514     10512     10514     10515     10512     10514     10516
     10512     10514     10564     10515     10514     10516     10515     10514     10564
     10516     10514     10564     10505     10517     10518     10505     10517     10519
     10505     10517     10520     10518     10517     10519     10518     10517     10520
     10519     10517     10520     10517     10520     10521     10517     10520     10522
     10517     10520     10523     10521     10520     10522     10521     10520     10523
     10522     10520     10523     10520     10523     10524     10520     10523     10525
     10520     10523     10526     10524     10523     10525     10524     10523     10526
     10525     10523     10526     10523     10526     10527     10523     10526     10528
     10523     10526     10529     10527     10526     10528     10527     10526     10529
     10528     10526     10529     10526     10529     10530     10526     10529     10531
     10526     10529     10532     10530     10529     10531     10530     10529     10532
     10531     10529     10532     10529     10532     10533     10529     10532     10534
     10529     10532     10535     10533     10532     10534     10533     10532     10535
     10534     10532     10535     10532     10535     10536     10532     10535     10537
     10536     10535     10537     10535     10537     10538     10535     10537     10539
     10538     10537     10539     10537     10539     10540     10537     10539     10541
     10537     10539     10542     10540     10539     10541     10540     10539     10542
     10541     10539     10542     10539     10542     10543     10539     10542     10544
     10539     10542     10545     10543     10542     10544     10543     10542     10545
     10544     10542     10545     10542     10545     10546     10542     10545     10547
     10542     10545     10548     10546     10545     10547     10546     10545     10548
     10547     10545     10548     10545     10548     10549     10545     10548     10550
     10545     10548     10551     10549     10548     10550     10549     10548     10551
     10550     10548     10551     10548     10551     10552     10548     10551     10553
     10548     10551     10554     10552     10551     10553     10552     10551     10554
     10553     10551     10554     10551     10554     10555     10551     10554     10556
     10551     10554     10557     10555     10554     10556     10555     10554     10557
     10556     10554     10557     10554     10557     10558     10554     10557     10559
     10554     10557     10560     10558     10557     10559     10558     10557     10560
     10559     10557     10560     10557     10560     10561     10557     10560     10562
     10557     10560     10563     10561     10560     10562     10561     10560     10563
     10562     10560     10563     10514     10564     10565     10514     10564     10566
     10514     10564     10567     10565     10564     10566     10565     10564     10567
     10566     10564     10567     10564     10567     10568     10564     10567     10569
     10564     10567     10570     10568     10567     10569     10568     10567     10570
     10569     10567     10570     10567     10570     10571     10567     10570     10572
     10567     10570     10573     10571     10570     10572     10571     10570     10573
     10572     10570     10573     10570     10573     10574     10570     10573     10575
     10570     10573     10576     10574     10573     10575     10574     10573     10576
     10575     10573     10576     10573     10576     10577     10573     10576     10578
     10573     10576     10579     10577     10576     10578     10577     10576     10579
     10578     10576     10579     10576     10579     10580     10576     10579     10581
     10576     10579     10582     10580     10579     10581     10580     10579     10582
     10581     10579     10582     10579     10582     10583     10579     10582     10584
     10579     10582     10585     10583     10582     10584     10583     10582     10585
     10584     10582     10585     10582     10585     10586     10582     10585     10587
     10582     10585     10588     10586     10585     10587     10586     10585     10588
     10587     10585     10588     10585     10588     10589     10585     10588     10590
     10585     10588     10591     10589     10588     10590     10589     10588     10591
     10590     10588     10591     10588     10591     10592     10588     10591     10593
     10588     10591     10594     10592     10591     10593     10592     10591     10594
     10593     10591     10594     10591     10594     10595     10591     10594     10596
     10591     10594     10597     10595     10594     10596     10595     10594     10597
     10596     10594     10597     10594     10597     10598     10594     10597     10599
     10594     10597     10600     10598     10597     10599     10598     10597     10600
     10599     10597     10600     10597     10600     10601     10597     10600     10602
     10597     10600     10603     10601     10600     10602     10601     10600     10603
     10602     10600     10603     10600     10603     10604     10600     10603     10605
     10600     10603     10606     10604     10603     10605     10604     10603     10606
     10605     10603     10606     10603     10606     10607     10603     10606     10608
     10603     10606     10609     10607     10606     10608     10607     10606     10609
     10608     10606     10609     10606     10609     10610     10606     10609     10611
     10606     10609     10612     10610     10609     10611     10610     10609     10612
     10611     10609     10612      4603      4602      4604      4603      4602      4605
      4603      4602      4606      4604      4602      4605      4604      4602      4606
      4605      4602      4606      4602      4606      4607      4602      4606      4608
      4602      4606      4609      4607      4606      4608      4607      4606      4609
      4608      4606      4609      4606      4609      4610      4606      4609      4611
      4606      4609      4615      4610      4609      4611      4610      4609      4615
      4611      4609      4615      4613      4612      4614      4613      4612      4615
      4613      4612      4616      4614      4612      4615      4614      4612      4616
      4615      4612      4616      4609      4615      4612      4612      4616      4617
      4616      4617      4618      4616      4617      4619      4616      4617      4620
      4618      4617      4619      4618      4617      4620      4619      4617      4620
      4617      4620      4621      4617      4620      4622      4617      4620      4628
      4621      4620      4622      4621      4620      4628      4622      4620      4628
      4620      4622      4623      4622      4623      4624      4622      4623      4625
      4624      4623      4625      4623      4625      4626      4623      4625      4627
      4623      4625      4637      4626      4625      4627      4626      4625      4637
      4627      4625      4637      4620      4628      4629      4620      4628      4630
      4620      4628      4631      4629      4628      4630      4629      4628      4631
      4630      4628      4631      4628      4631      4632      4631      4632      4633
      4631      4632      4634      4633      4632      4634      4632      4634      4635
      4632      4634      4636      4632      4634      4684      4635      4634      4636
      4635      4634      4684      4636      4634      4684      4625      4637      4638
      4625      4637      4639      4625      4637      4640      4638      4637      4639
      4638      4637      4640      4639      4637      4640      4637      4640      4641
      4637      4640      4642      4637      4640      4643      4641      4640      4642
      4641      4640      4643      4642      4640      4643      4640      4643      4644
      4640      4643      4645      4644      4643      4645      4643      4645      4646
      4643      4645      4647      4646      4645      4647      4645      4647      4648
      4645      4647      4649      4645      4647      4650      4648      4647      4649
      4648      4647      4650      4649      4647      4650      4647      4650      4651
      4647      4650      4652      4651      4650      4652      4650      4652      4653
      4650      4652      4654      4653      4652      4654      4652      4654      4655
      4652      4654      4656      4652      4654      4657      4655      4654      4656
      4655      4654      4657      4656      4654      4657      4654      4657      4658
      4654      4657      4659      4658      4657      4659      4657      4659      4660
      4657      4659      4661      4660      4659      4661      4659      4661      4662
      4659      4661      4663      4659      4661      4664      4662      4661      4663
      4662      4661      4664      4663      4661      4664      4661      4664      4665
      4661      4664      4666      4665      4664      4666      4664      4666      4667
      4664      4666      4668      4667      4666      4668      4666      4668      4669
      4666      4668      4670      4666      4668      4671      4669      4668      4670
      4669      4668      4671      4670      4668      4671      4668      4671      4672
      4668      4671      4673      4668      4671      4674      4672      4671      4673
      4672      4671      4674      4673      4671      4674      4671      4674      4675
      4671      4674      4676      4671      4674      4677      4675      4674      4676
      4675      4674      4677      4676      4674      4677      4674      4677      4678
      4674      4677      4679      4674      4677      4680      4678      4677      4679
      4678      4677      4680      4679      4677      4680      4677      4680      4681
      4677      4680      4682      4677      4680      4683      4681      4680      4682
      4681      4680      4683      4682      4680      4683      4634      4684      4685
      4634      4684      4686      4634      4684      4687      4685      4684      4686
      4685      4684      4687      4686      4684      4687      4684      4687      4688
      4684      4687      4689      4684      4687      4690      4688      4687      4689
      4688      4687      4690      4689      4687      4690      4687      4690      4691
      4687      4690      4692      4687      4690      4693      4691      4690      4692
      4691      4690      4693      4692      4690      4693      4690      4693      4694
      4690      4693      4695      4690      4693      4696      4694      4693      4695
      4694      4693      4696      4695      4693      4696      4693      4696      4697
      4693      4696      4698      4693      4696      4699      4697      4696      4698
      4697      4696      4699      4698      4696      4699      4696      4699      4700
      4696      4699      4701      4696      4699      4702      4700      4699      4701
      4700      4699      4702      4701      4699      4702      4699      4702      4703
      4699      4702      4704      4699      4702      4705      4703      4702      4704
      4703      4702      4705      4704      4702      4705      4702      4705      4706
      4702      4705      4707      4702      4705      4708      4706      4705      4707
      4706      4705      4708      4707      4705      4708      4705      4708      4709
      4705      4708      4710      4705      4708      4711      4709      4708      4710
      4709      4708      4711      4710      4708      4711      4708      4711      4712
      4708      4711      4713      4708      4711      4714      4712      4711      4713
      4712      4711      4714      4713      4711      4714      4711      4714      4715
      4711      4714      4716      4711      4714      4717      4715      4714      4716
      4715      4714      4717      4716      4714      4717      4714      4717      4718
      4714      4717      4719      4714      4717      4720      4718      4717      4719
      4718      4717      4720      4719      4717      4720      4717      4720      4721
      4717      4720      4722      4717      4720      4723      4721      4720      4722
      4721      4720      4723      4722      4720      4723      4720      4723      4724
      4720      4723      4725      4720      4723      4726      4724      4723      4725
      4724      4723      4726      4725      4723      4726      4723      4726      4727
      4723      4726      4728      4723      4726      4729      4727      4726      4728
      4727      4726      4729      4728      4726      4729      4726      4729      4730
      4726      4729      4731      4726      4729      4732      4730      4729      4731
      4730      4729      4732      4731      4729      4732      9134      9133      9137
      9134      9133      9141      9134      9133      9145      9137      9133      9141
      9137      9133      9145      9141      9133      9145      9133      9134      9135
      9133      9134      9136      9133      9134      9149      9135      9134      9136
      9135      9134      9149      9136      9134      9149      9133      9137      9138
      9133      9137      9139      9133      9137      9140      9138      9137      9139
      9138      9137      9140      9139      9137      9140      9133      9141      9142
      9133      9141      9143      9133      9141      9144      9142      9141      9143
      9142      9141      9144      9143      9141      9144      9133      9145      9146
      9133      9145      9147      9133      9145      9148      9146      9145      9147
      9146      9145      9148      9147      9145      9148      9134      9149      9150
      9134      9149      9151      9134      9149      9155      9150      9149      9151
      9150      9149      9155      9151      9149      9155      9153      9152      9154
      9153      9152      9155      9153      9152      9156      9154      9152      9155
      9154      9152      9156      9155      9152      9156      9149      9155      9152
      9152      9156      9157      9156      9157      9158      9156      9157      9159
      9156      9157      9160      9158      9157      9159      9158      9157      9160
      9159      9157      9160      9157      9160      9161      9157      9160      9162
      9157      9160      9168      9161      9160      9162      9161      9160      9168
      9162      9160      9168      9160      9162      9163      9162      9163      9164
      9162      9163      9165      9164      9163      9165      9163      9165      9166
      9163      9165      9167      9163      9165      9177      9166      9165      9167
      9166      9165      9177      9167      9165      9177      9160      9168      9169
      9160      9168      9170      9160      9168      9171      9169      9168      9170
      9169      9168      9171      9170      9168      9171      9168      9171      9172
      9171      9172      9173      9171      9172      9174      9173      9172      9174
      9172      9174      9175      9172      9174      9176      9172      9174      9224
      9175      9174      9176      9175      9174      9224      9176      9174      9224
      9165      9177      9178      9165      9177      9179      9165      9177      9180
      9178      9177      9179      9178      9177      9180      9179      9177      9180
      9177      9180      9181      9177      9180      9182      9177      9180      9183
      9181      9180      9182      9181      9180      9183      9182      9180      9183
      9180      9183      9184      9180      9183      9185      9184      9183      9185
      9183      9185      9186      9183      9185      9187      9186      9185      9187
      9185      9187      9188      9185      9187      9189      9185      9187      9190
      9188      9187      9189      9188      9187      9190      9189      9187      9190
      9187      9190      9191      9187      9190      9192      9191      9190      9192
      9190      9192      9193      9190      9192      9194      9193      9192      9194
      9192      9194      9195      9192      9194      9196      9192      9194      9197
      9195      9194      9196      9195      9194      9197      9196      9194      9197
      9194      9197      9198      9194      9197      9199      9198      9197      9199
      9197      9199      9200      9197      9199      9201      9200      9199      9201
      9199      9201      9202      9199      9201      9203      9199      9201      9204
      9202      9201      9203      9202      9201      9204      9203      9201      9204
      9201      9204      9205      9201      9204      9206      9205      9204      9206
      9204      9206      9207      9204      9206      9208      9207      9206      9208
      9206      9208      9209      9206      9208      9210      9206      9208      9211
      9209      9208      9210      9209      9208      9211      9210      9208      9211
      9208      9211      9212      9208      9211      9213      9208      9211      9214
      9212      9211      9213      9212      9211      9214      9213      9211      9214
      9211      9214      9215      9211      9214      9216      9211      9214      9217
      9215      9214      9216      9215      9214      9217      9216      9214      9217
      9214      9217      9218      9214      9217      9219      9214      9217      9220
      9218      9217      9219      9218      9217      9220      9219      9217      9220
      9217      9220      9221      9217      9220      9222      9217      9220      9223
      9221      9220      9222      9221      9220      9223      9222      9220      9223
      9174      9224      9225      9174      9224      9226      9174      9224      9227
      9225      9224      9226      9225      9224      9227      9226      9224      9227
      9224      9227      9228      9224      9227      9229      9224      9227      9230
      9228      9227      9229      9228      9227      9230      9229      9227      9230
      9227      9230      9231      9227      9230      9232      9227      9230      9233
      9231      9230      9232      9231      9230      9233      9232      9230      9233
      9230      9233      9234      9230      9233      9235      9230      9233      9236
      9234      9233      9235      9234      9233      9236      9235      9233      9236
      9233      9236      9237      9233      9236      9238      9233      9236      9239
      9237      9236      9238      9237      9236      9239      9238      9236      9239
      9236      9239      9240      9236      9239      9241      9236      9239      9242
      9240      9239      9241      9240      9239      9242      9241      9239      9242
      9239      9242      9243      9239      9242      9244      9239      9242      9245
      9243      9242      9244      9243      9242      9245      9244      9242      9245
      9242      9245      9246      9242      9245      9247      9242      9245      9248
      9246      9245      9247      9246      9245      9248      9247      9245      9248
      9245      9248      9249      9245      9248      9250      9245      9248      9251
      9249      9248      9250      9249      9248      9251      9250      9248      9251
      9248      9251      9252      9248      9251      9253      9248      9251      9254
      9252      9251      9253      9252      9251      9254      9253      9251      9254
      9251      9254      9255      9251      9254      9256      9251      9254      9257
      9255      9254      9256      9255      9254      9257      9256      9254      9257
      9254      9257      9258      9254      9257      9259      9254      9257      9260
      9258      9257      9259      9258      9257      9260      9259      9257      9260
      9257      9260      9261      9257      9260      9262      9257      9260      9263
      9261      9260      9262      9261      9260      9263      9262      9260      9263
      9260      9263      9264      9260      9263      9265      9260      9263      9266
      9264      9263      9265      9264      9263      9266      9265      9263      9266
      9263      9266      9267      9263      9266      9268      9263      9266      9269
      9267      9266      9268      9267      9266      9269      9268      9266      9269
      9266      9269      9270      9266      9269      9271      9266      9269      9272
      9270      9269      9271      9270      9269      9272      9271      9269      9272
      1705      1704      1709      1705      1704      1713      1705      1704      1717
      1709      1704      1713      1709      1704      1717      1713      1704      1717
      1704      1705      1706      1704      1705      1707      1704      1705      1708
      1706      1705      1707      1706      1705      1708      1707      1705      1708
      1704      1709      1710      1704      1709      1711      1704      1709      1712
      1710      1709      1711      1710      1709      1712      1711      1709      1712
      1704      1713      1714      1704      1713      1715      1704      1713      1716
      1714      1713      1715      1714      1713      1716      1715      1713      1716
      1704      1717      1718      1704      1717      1719      1704      1717      1720
      1718      1717      1719      1718      1717      1720      1719      1717      1720
      1717      1720      1721      1717      1720      1722      1717      1720      1727
      1721      1720      1722      1721      1720      1727      1722      1720      1727
      1724      1723      1725      1724      1723      1726      1724      1723      1727
      1725      1723      1726      1725      1723      1727      1726      1723      1727
      1723      1726      1728      1720      1727      1723      1726      1728      1729
      1726      1728      1730      1726      1728      1733      1729      1728      1730
      1729      1728      1733      1730      1728      1733      1732      1731      1733
      1732      1731      1783      1733      1731      1783      1728      1733      1731
      1728      1733      1734      1728      1733      1735      1731      1733      1734
      1731      1733      1735      1734      1733      1735      1733      1735      1736
      1733      1735      1737      1733      1735      1739      1736      1735      1737
      1736      1735      1739      1737      1735      1739      1735      1737      1738
      1735      1739      1740      1735      1739      1741      1740      1739      1741
      1739      1741      1742      1739      1741      1743      1742      1741      1743
      1741      1743      1744      1741      1743      1745      1741      1743      1746
      1744      1743      1745      1744      1743      1746      1745      1743      1746
      1743      1746      1747      1743      1746      1748      1743      1746      1749
      1747      1746      1748      1747      1746      1749      1748      1746      1749
      1746      1749      1750      1746      1749      1751      1746      1749      1752
      1750      1749      1751      1750      1749      1752      1751      1749      1752
      1749      1752      1753      1749      1752      1754      1749      1752      1755
      1753      1752      1754      1753      1752      1755      1754      1752      1755
      1752      1755      1756      1752      1755      1757      1752      1755      1758
      1756      1755      1757      1756      1755      1758      1757      1755      1758
      1755      1758      1759      1755      1758      1760      1755      1758      1761
      1759      1758      1760      1759      1758      1761      1760      1758      1761
      1758      1761      1762      1758      1761      1763      1758      1761      1764
      1762      1761      1763      1762      1761      1764      1763      1761      1764
      1761      1764      1765      1761      1764      1766      1761      1764      1767
      1765      1764      1766      1765      1764      1767      1766      1764      1767
      1764      1767      1768      1764      1767      1769      1764      1767      1770
      1768      1767      1769      1768      1767      1770      1769      1767      1770
      1767      1770      1771      1767      1770      1772      1767      1770      1773
      1771      1770      1772      1771      1770      1773      1772      1770      1773
      1770      1773      1774      1770      1773      1775      1770      1773      1776
      1774      1773      1775      1774      1773      1776      1775      1773      1776
      1773      1776      1777      1773      1776      1778      1773      1776      1779
      1777      1776      1778      1777      1776      1779      1778      1776      1779
      1776      1779      1780      1776      1779      1781      1776      1779      1782
      1780      1779      1781      1780      1779      1782      1781      1779      1782
      1731      1783      1784      1731      1783      1785      1784      1783      1785
      1783      1785      1786      1783      1785      1787      1783      1785      1788
      1786      1785      1787      1786      1785      1788      1787      1785      1788
      1785      1788      1789      1785      1788      1790      1785      1788      1791
      1789      1788      1790      1789      1788      1791      1790      1788      1791
      1788      1791      1792      1788      1791      1793      1788      1791      1794
      1792      1791      1793      1792      1791      1794      1793      1791      1794
      1791      1794      1795      1791      1794      1796      1791      1794      1797
      1795      1794      1796      1795      1794      1797      1796      1794      1797
      1794      1797      1798      1794      1797      1799      1794      1797      1800
      1798      1797      1799      1798      1797      1800      1799      1797      1800
      1797      1800      1801      1797      1800      1802      1797      1800      1803
      1801      1800      1802      1801      1800      1803      1802      1800      1803
      1800      1803      1804      1800      1803      1805      1800      1803      1806
      1804      1803      1805      1804      1803      1806      1805      1803      1806
      1803      1806      1807      1803      1806      1808      1807      1806      1808
      1806      1808      1809      1806      1808      1810      1809      1808      1810
      1808      1810      1811      1808      1810      1812      1808      1810      1813
      1811      1810      1812      1811      1810      1813      1812      1810      1813
      1810      1813      1814      1810      1813      1815      1810      1813      1816
      1814      1813      1815      1814      1813      1816      1815      1813      1816
      1813      1816      1817      1813      1816      1818      1813      1816      1819
      1817      1816      1818      1817      1816      1819      1818      1816      1819
      1816      1819      1820      1816      1819      1821      1816      1819      1822
      1820      1819      1821      1820      1819      1822      1821      1819      1822
      1819      1822      1823      1819      1822      1824      1819      1822      1825
      1823      1822      1824      1823      1822      1825      1824      1822      1825
      1822      1825      1826      1822      1825      1827      1822      1825      1828
      1826      1825      1827      1826      1825      1828      1827      1825      1828
      1825      1828      1829      1825      1828      1830      1825      1828      1831
      1829      1828      1830      1829      1828      1831      1830      1828      1831
      1828      1831      1832      1828      1831      1833      1828      1831      1834
      1832      1831      1833      1832      1831      1834      1833      1831      1834
      6516      6515      6517      6516      6515      6519      6516      6515      6561
      6517      6515      6519      6517      6515      6561      6519      6515      6561
      6515      6517      6518      6515      6519      6520      6515      6519      6521
      6515      6519      6522      6520      6519      6521      6520      6519      6522
      6521      6519      6522      6519      6522      6523      6519      6522      6553
      6523      6522      6553      6522      6523      6524      6522      6523      6525
      6524      6523      6525      6523      6525      6526      6523      6525      6527
      6523      6525      6528      6526      6525      6527      6526      6525      6528
      6527      6525      6528      6525      6528      6529      6525      6528      6530
      6525      6528      6551      6529      6528      6530      6529      6528      6551
      6530      6528      6551      6528      6530      6531      6528      6530      6532
      6528      6530      6540      6531      6530      6532      6531      6530      6540
      6532      6530      6540      6530      6532      6533      6530      6532      6534
      6530      6532      6535      6533      6532      6534      6533      6532      6535
      6534      6532      6535      6532      6535      6536      6532      6535      6537
      6532      6535      6538      6536      6535      6537      6536      6535      6538
      6537      6535      6538      6535      6538      6539      6535      6538      6540
      6535      6538      6564      6539      6538      6540      6539      6538      6564
      6540      6538      6564      6530      6540      6538      6530      6540      6541
      6530      6540      6545      6538      6540      6541      6538      6540      6545
      6541      6540      6545      6540      6541      6542      6540      6541      6543
      6540      6541      6544      6542      6541      6543      6542      6541      6544
      6543      6541      6544      6540      6545      6546      6540      6545      6547
      6540      6545      6548      6546      6545      6547      6546      6545      6548
      6547      6545      6548      6545      6548      6549      6545      6548      6550
      6545      6548      6551      6549      6548      6550      6549      6548      6551
      6550      6548      6551      6528      6551      6548      6528      6551      6552
      6528      6551      6553      6548      6551      6552      6548      6551      6553
      6552      6551      6553      6522      6553      6551      6522      6553      6554
      6522      6553      6558      6551      6553      6554      6551      6553      6558
      6554      6553      6558      6553      6554      6555      6553      6554      6556
      6553      6554      6557      6555      6554      6556      6555      6554      6557
      6556      6554      6557      6553      6558      6559      6553      6558      6560
      6553      6558      6561      6559      6558      6560      6559      6558      6561
      6560      6558      6561      6515      6561      6558      6515      6561      6562
      6515      6561      6563      6558      6561      6562      6558      6561      6563
      6562      6561      6563      6538      6564      6565      6538      6564      6566
      6538      6564      6570      6565      6564      6566      6565      6564      6570
      6566      6564      6570      6564      6566      6567      6564      6566      6568
      6564      6566      6569      6567      6566      6568      6567      6566      6569
      6568      6566      6569      6564      6570      6571      6564      6570      6572
      6564      6570      6573      6571      6570      6572      6571      6570      6573
      6572      6570      6573      6570      6573      6574      6570      6573      6575
      6570      6573      6576      6574      6573      6575      6574      6573      6576
      6575      6573      6576      6573      6576      6577      6573      6576      6578
      6573      6576      6579      6577      6576      6578      6577      6576      6579
      6578      6576      6579      6576      6579      6580      6576      6579      6581
      6576      6579      6585      6580      6579      6581      6580      6579      6585
      6581      6579      6585      6579      6581      6582      6579      6581      6583
      6579      6581      6584      6582      6581      6583      6582      6581      6584
      6583      6581      6584      6579      6585      6586      6579      6585      6587
      6579      6585      6588      6586      6585      6587      6586      6585      6588
      6587      6585      6588      6590      6589      6591      6590      6589      6593
      6590      6589      6635      6591      6589      6593      6591      6589      6635
      6593      6589      6635      6589      6591      6592      6589      6593      6594
      6589      6593      6595      6589      6593      6596      6594      6593      6595
      6594      6593      6596      6595      6593      6596      6593      6596      6597
      6593      6596      6627      6597      6596      6627      6596      6597      6598
      6596      6597      6599      6598      6597      6599      6597      6599      6600
      6597      6599      6601      6597      6599      6602      6600      6599      6601
      6600      6599      6602      6601      6599      6602      6599      6602      6603
      6599      6602      6604      6599      6602      6625      6603      6602      6604
      6603      6602      6625      6604      6602      6625      6602      6604      6605
      6602      6604      6606      6602      6604      6614      6605      6604      6606
      6605      6604      6614      6606      6604      6614      6604      6606      6607
      6604      6606      6608      6604      6606      6609      6607      6606      6608
      6607      6606      6609      6608      6606      6609      6606      6609      6610
      6606      6609      6611      6606      6609      6612      6610      6609      6611
      6610      6609      6612      6611      6609      6612      6609      6612      6613
      6609      6612      6614      6609      6612      6638      6613      6612      6614
      6613      6612      6638      6614      6612      6638      6604      6614      6612
      6604      6614      6615      6604      6614      6619      6612      6614      6615
      6612      6614      6619      6615      6614      6619      6614      6615      6616
      6614      6615      6617      6614      6615      6618      6616      6615      6617
      6616      6615      6618      6617      6615      6618      6614      6619      6620
      6614      6619      6621      6614      6619      6622      6620      6619      6621
      6620      6619      6622      6621      6619      6622      6619      6622      6623
      6619      6622      6624      6619      6622      6625      6623      6622      6624
      6623      6622      6625      6624      6622      6625      6602      6625      6622
      6602      6625      6626      6602      6625      6627      6622      6625      6626
      6622      6625      6627      6626      6625      6627      6596      6627      6625
      6596      6627      6628      6596      6627      6632      6625      6627      6628
      6625      6627      6632      6628      6627      6632      6627      6628      6629
      6627      6628      6630      6627      6628      6631      6629      6628      6630
      6629      6628      6631      6630      6628      6631      6627      6632      6633
      6627      6632      6634      6627      6632      6635      6633      6632      6634
      6633      6632      6635      6634      6632      6635      6589      6635      6632
      6589      6635      6636      6589      6635      6637      6632      6635      6636
      6632      6635      6637      6636      6635      6637      6612      6638      6639
      6612      6638      6640      6612      6638      6644      6639      6638      6640
      6639      6638      6644      6640      6638      6644      6638      6640      6641
      6638      6640      6642      6638      6640      6643      6641      6640      6642
      6641      6640      6643      6642      6640      6643      6638      6644      6645
      6638      6644      6646      6638      6644      6647      6645      6644      6646
      6645      6644      6647      6646      6644      6647      6644      6647      6648
      6644      6647      6649      6644      6647      6650      6648      6647      6649
      6648      6647      6650      6649      6647      6650      6647      6650      6651
      6647      6650      6652      6647      6650      6653      6651      6650      6652
      6651      6650      6653      6652      6650      6653      6650      6653      6654
      6650      6653      6655      6650      6653      6659      6654      6653      6655
      6654      6653      6659      6655      6653      6659      6653      6655      6656
      6653      6655      6657      6653      6655      6658      6656      6655      6657
      6656      6655      6658      6657      6655      6658      6653      6659      6660
      6653      6659      6661      6653      6659      6662      6660      6659      6661
      6660      6659      6662      6661      6659      6662      6664      6663      6665
      6664      6663      6667      6664      6663      6709      6665      6663      6667
      6665      6663      6709      6667      6663      6709      6663      6665      6666
      6663      6667      6668      6663      6667      6669      6663      6667      6670
      6668      6667      6669      6668      6667      6670      6669      6667      6670
      6667      6670      6671      6667      6670      6701      6671      6670      6701
      6670      6671      6672      6670      6671      6673      6672      6671      6673
      6671      6673      6674      6671      6673      6675      6671      6673      6676
      6674      6673      6675      6674      6673      6676      6675      6673      6676
      6673      6676      6677      6673      6676      6678      6673      6676      6699
      6677      6676      6678      6677      6676      6699      6678      6676      6699
      6676      6678      6679      6676      6678      6680      6676      6678      6688
      6679      6678      6680      6679      6678      6688      6680      6678      6688
      6678      6680      6681      6678      6680      6682      6678      6680      6683
      6681      6680      6682      6681      6680      6683      6682      6680      6683
      6680      6683      6684      6680      6683      6685      6680      6683      6686
      6684      6683      6685      6684      6683      6686      6685      6683      6686
      6683      6686      6687      6683      6686      6688      6683      6686      6712
      6687      6686      6688      6687      6686      6712      6688      6686      6712
      6678      6688      6686      6678      6688      6689      6678      6688      6693
      6686      6688      6689      6686      6688      6693      6689      6688      6693
      6688      6689      6690      6688      6689      6691      6688      6689      6692
      6690      6689      6691      6690      6689      6692      6691      6689      6692
      6688      6693      6694      6688      6693      6695      6688      6693      6696
      6694      6693      6695      6694      6693      6696      6695      6693      6696
      6693      6696      6697      6693      6696      6698      6693      6696      6699
      6697      6696      6698      6697      6696      6699      6698      6696      6699
      6676      6699      6696      6676      6699      6700      6676      6699      6701
      6696      6699      6700      6696      6699      6701      6700      6699      6701
      6670      6701      6699      6670      6701      6702      6670      6701      6706
      6699      6701      6702      6699      6701      6706      6702      6701      6706
      6701      6702      6703      6701      6702      6704      6701      6702      6705
      6703      6702      6704      6703      6702      6705      6704      6702      6705
      6701      6706      6707      6701      6706      6708      6701      6706      6709
      6707      6706      6708      6707      6706      6709      6708      6706      6709
      6663      6709      6706      6663      6709      6710      6663      6709      6711
      6706      6709      6710      6706      6709      6711      6710      6709      6711
      6686      6712      6713      6686      6712      6714      6686      6712      6718
      6713      6712      6714      6713      6712      6718      6714      6712      6718
      6712      6714      6715      6712      6714      6716      6712      6714      6717
      6715      6714      6716      6715      6714      6717      6716      6714      6717
      6712      6718      6719      6712      6718      6720      6712      6718      6721
      6719      6718      6720      6719      6718      6721      6720      6718      6721
      6718      6721      6722      6718      6721      6723      6718      6721      6724
      6722      6721      6723      6722      6721      6724      6723      6721      6724
      6721      6724      6725      6721      6724      6726      6721      6724      6727
      6725      6724      6726      6725      6724      6727      6726      6724      6727
      6724      6727      6728      6724      6727      6729      6724      6727      6733
      6728      6727      6729      6728      6727      6733      6729      6727      6733
      6727      6729      6730      6727      6729      6731      6727      6729      6732
      6730      6729      6731      6730      6729      6732      6731      6729      6732
      6727      6733      6734      6727      6733      6735      6727      6733      6736
      6734      6733      6735      6734      6733      6736      6735      6733      6736
      4734      4733      4735      4734      4733      4736      4734      4733      4737
      4735      4733      4736      4735      4733      4737      4736      4733      4737
      4733      4737      4738      4733      4737      4739      4733      4737      4740
      4738      4737      4739      4738      4737      4740      4739      4737      4740
      4737      4740      4741      4737      4740      4742      4737      4740      4746
      4741      4740      4742      4741      4740      4746      4742      4740      4746
      4744      4743      4745      4744      4743      4746      4744      4743      4747
      4745      4743      4746      4745      4743      4747      4746      4743      4747
      4740      4746      4743      4743      4747      4748      4747      4748      4749
      4747      4748      4750      4747      4748      4751      4749      4748      4750
      4749      4748      4751      4750      4748      4751      4748      4751      4752
      4748      4751      4753      4748      4751      4759      4752      4751      4753
      4752      4751      4759      4753      4751      4759      4751      4753      4754
      4753      4754      4755      4753      4754      4756      4755      4754      4756
      4754      4756      4757      4754      4756      4758      4754      4756      4768
      4757      4756      4758      4757      4756      4768      4758      4756      4768
      4751      4759      4760      4751      4759      4761      4751      4759      4762
      4760      4759      4761      4760      4759      4762      4761      4759      4762
      4759      4762      4763      4762      4763      4764      4762      4763      4765
      4764      4763      4765      4763      4765      4766      4763      4765      4767
      4763      4765      4815      4766      4765      4767      4766      4765      4815
      4767      4765      4815      4756      4768      4769      4756      4768      4770
      4756      4768      4771      4769      4768      4770      4769      4768      4771
      4770      4768      4771      4768      4771      4772      4768      4771      4773
      4768      4771      4774      4772      4771      4773      4772      4771      4774
      4773      4771      4774      4771      4774      4775      4771      4774      4776
      4775      4774      4776      4774      4776      4777      4774      4776      4778
      4777      4776      4778      4776      4778      4779      4776      4778      4780
      4776      4778      4781      4779      4778      4780      4779      4778      4781
      4780      4778      4781      4778      4781      4782      4778      4781      4783
      4782      4781      4783      4781      4783      4784      4781      4783      4785
      4784      4783      4785      4783      4785      4786      4783      4785      4787
      4783      4785      4788      4786      4785      4787      4786      4785      4788
      4787      4785      4788      4785      4788      4789      4785      4788      4790
      4789      4788      4790      4788      4790      4791      4788      4790      4792
      4791      4790      4792      4790      4792      4793      4790      4792      4794
      4790      4792      4795      4793      4792      4794      4793      4792      4795
      4794      4792      4795      4792      4795      4796      4792      4795      4797
      4796      4795      4797      4795      4797      4798      4795      4797      4799
      4798      4797      4799      4797      4799      4800      4797      4799      4801
      4797      4799      4802      4800      4799      4801      4800      4799      4802
      4801      4799      4802      4799      4802      4803      4799      4802      4804
      4799      4802      4805      4803      4802      4804      4803      4802      4805
      4804      4802      4805      4802      4805      4806      4802      4805      4807
      4802      4805      4808      4806      4805      4807      4806      4805      4808
      4807      4805      4808      4805      4808      4809      4805      4808      4810
      4805      4808      4811      4809      4808      4810      4809      4808      4811
      4810      4808      4811      4808      4811      4812      4808      4811      4813
      4808      4811      4814      4812      4811      4813      4812      4811      4814
      4813      4811      4814      4765      4815      4816      4765      4815      4817
      4765      4815      4818      4816      4815      4817      4816      4815      4818
      4817      4815      4818      4815      4818      4819      4815      4818      4820
      4815      4818      4821      4819      4818      4820      4819      4818      4821
      4820      4818      4821      4818      4821      4822      4818      4821      4823
      4818      4821      4824      4822      4821      4823      4822      4821      4824
      4823      4821      4824      4821      4824      4825      4821      4824      4826
      4821      4824      4827      4825      4824      4826      4825      4824      4827
      4826      4824      4827      4824      4827      4828      4824      4827      4829
      4824      4827      4830      4828      4827      4829      4828      4827      4830
      4829      4827      4830      4827      4830      4831      4827      4830      4832
      4827      4830      4833      4831      4830      4832      4831      4830      4833
      4832      4830      4833      4830      4833      4834      4830      4833      4835
      4830      4833      4836      4834      4833      4835      4834      4833      4836
      4835      4833      4836      4833      4836      4837      4833      4836      4838
      4833      4836      4839      4837      4836      4838      4837      4836      4839
      4838      4836      4839      4836      4839      4840      4836      4839      4841
      4836      4839      4842      4840      4839      4841      4840      4839      4842
      4841      4839      4842      4839      4842      4843      4839      4842      4844
      4839      4842      4845      4843      4842      4844      4843      4842      4845
      4844      4842      4845      4842      4845      4846      4842      4845      4847
      4842      4845      4848      4846      4845      4847      4846      4845      4848
      4847      4845      4848      4845      4848      4849      4845      4848      4850
      4845      4848      4851      4849      4848      4850      4849      4848      4851
      4850      4848      4851      4848      4851      4852      4848      4851      4853
      4848      4851      4854      4852      4851      4853      4852      4851      4854
      4853      4851      4854      4851      4854      4855      4851      4854      4856
      4851      4854      4857      4855      4854      4856      4855      4854      4857
      4856      4854      4857      4854      4857      4858      4854      4857      4859
      4854      4857      4860      4858      4857      4859      4858      4857      4860
      4859      4857      4860      4857      4860      4861      4857      4860      4862
      4857      4860      4863      4861      4860      4862      4861      4860      4863
      4862      4860      4863     10614     10613     10615     10614     10613     10616
     10614     10613     10617     10615     10613     10616     10615     10613     10617
     10616     10613     10617     10613     10617     10618     10613     10617     10619
     10613     10617     10620     10618     10617     10619     10618     10617     10620
     10619     10617     10620     10617     10620     10621     10617     10620     10622
     10617     10620     10626     10621     10620     10622     10621     10620     10626
     10622     10620     10626     10624     10623     10625     10624     10623     10626
     10624     10623     10627     10625     10623     10626     10625     10623     10627
     10626     10623     10627     10620     10626     10623     10623     10627     10628
     10627     10628     10629     10627     10628     10630     10627     10628     10631
     10629     10628     10630     10629     10628     10631     10630     10628     10631
     10628     10631     10632     10628     10631     10633     10628     10631     10639
     10632     10631     10633     10632     10631     10639     10633     10631     10639
     10631     10633     10634     10633     10634     10635     10633     10634     10636
     10635     10634     10636     10634     10636     10637     10634     10636     10638
     10634     10636     10648     10637     10636     10638     10637     10636     10648
     10638     10636     10648     10631     10639     10640     10631     10639     10641
     10631     10639     10642     10640     10639     10641     10640     10639     10642
     10641     10639     10642     10639     10642     10643     10642     10643     10644
     10642     10643     10645     10644     10643     10645     10643     10645     10646
     10643     10645     10647     10643     10645     10695     10646     10645     10647
     10646     10645     10695     10647     10645     10695     10636     10648     10649
     10636     10648     10650     10636     10648     10651     10649     10648     10650
     10649     10648     10651     10650     10648     10651     10648     10651     10652
     10648     10651     10653     10648     10651     10654     10652     10651     10653
     10652     10651     10654     10653     10651     10654     10651     10654     10655
     10651     10654     10656     10651     10654     10657     10655     10654     10656
     10655     10654     10657     10656     10654     10657     10654     10657     10658
     10654     10657     10659     10654     10657     10660     10658     10657     10659
     10658     10657     10660     10659     10657     10660     10657     10660     10661
     10657     10660     10662     10657     10660     10663     10661     10660     10662
     10661     10660     10663     10662     10660     10663     10660     10663     10664
     10660     10663     10665     10660     10663     10666     10664     10663     10665
     10664     10663     10666     10665     10663     10666     10663     10666     10667
     10663     10666     10668     10667     10666     10668     10666     10668     10669
     10666     10668     10670     10669     10668     10670     10668     10670     10671
     10668     10670     10672     10668     10670     10673     10671     10670     10672
     10671     10670     10673     10672     10670     10673     10670     10673     10674
     10670     10673     10675     10670     10673     10676     10674     10673     10675
     10674     10673     10676     10675     10673     10676     10673     10676     10677
     10673     10676     10678     10673     10676     10679     10677     10676     10678
     10677     10676     10679     10678     10676     10679     10676     10679     10680
     10676     10679     10681     10676     10679     10682     10680     10679     10681
     10680     10679     10682     10681     10679     10682     10679     10682     10683
     10679     10682     10684     10679     10682     10685     10683     10682     10684
     10683     10682     10685     10684     10682     10685     10682     10685     10686
     10682     10685     10687     10682     10685     10688     10686     10685     10687
     10686     10685     10688     10687     10685     10688     10685     10688     10689
     10685     10688     10690     10685     10688     10691     10689     10688     10690
     10689     10688     10691     10690     10688     10691     10688     10691     10692
     10688     10691     10693     10688     10691     10694     10692     10691     10693
     10692     10691     10694     10693     10691     10694     10645     10695     10696
     10645     10695     10697     10645     10695     10698     10696     10695     10697
     10696     10695     10698     10697     10695     10698     10695     10698     10699
     10695     10698     10700     10695     10698     10701     10699     10698     10700
     10699     10698     10701     10700     10698     10701     10698     10701     10702
     10698     10701     10703     10698     10701     10704     10702     10701     10703
     10702     10701     10704     10703     10701     10704     10701     10704     10705
     10701     10704     10706     10701     10704     10707     10705     10704     10706
     10705     10704     10707     10706     10704     10707     10704     10707     10708
     10704     10707     10709     10704     10707     10710     10708     10707     10709
     10708     10707     10710     10709     10707     10710     10707     10710     10711
     10707     10710     10712     10707     10710     10713     10711     10710     10712
     10711     10710     10713     10712     10710     10713     10710     10713     10714
     10710     10713     10715     10710     10713     10716     10714     10713     10715
     10714     10713     10716     10715     10713     10716     10713     10716     10717
     10713     10716     10718     10713     10716     10719     10717     10716     10718
     10717     10716     10719     10718     10716     10719     10716     10719     10720
     10716     10719     10721     10716     10719     10722     10720     10719     10721
     10720     10719     10722     10721     10719     10722     10719     10722     10723
     10719     10722     10724     10719     10722     10725     10723     10722     10724
     10723     10722     10725     10724     10722     10725     10722     10725     10726
     10722     10725     10727     10722     10725     10728     10726     10725     10727
     10726     10725     10728     10727     10725     10728     10725     10728     10729
     10725     10728     10730     10725     10728     10731     10729     10728     10730
     10729     10728     10731     10730     10728     10731     10728     10731     10732
     10728     10731     10733     10728     10731     10734     10732     10731     10733
     10732     10731     10734     10733     10731     10734     10731     10734     10735
     10731     10734     10736     10731     10734     10737     10735     10734     10736
     10735     10734     10737     10736     10734     10737     10734     10737     10738
     10734     10737     10739     10734     10737     10740     10738     10737     10739
     10738     10737     10740     10739     10737     10740     10737     10740     10741
     10737     10740     10742     10737     10740     10743     10741     10740     10742
     10741     10740     10743     10742     10740     10743      1836      1835      1840
      1836      1835      1844      1836      1835      1848      1840      1835      1844
      1840      1835      1848      1844      1835      1848      1835      1836      1837
      1835      1836      1838      1835      1836      1839      1837      1836      1838
      1837      1836      1839      1838      1836      1839      1835      1840      1841
      1835      1840      1842      1835      1840      1843      1841      1840      1842
      1841      1840      1843      1842      1840      1843      1835      1844      1845
      1835      1844      1846      1835      1844      1847      1845      1844      1846
      1845      1844      1847      1846      1844      1847      1835      1848      1849
      1835      1848      1850      1835      1848      1851      1849      1848      1850
      1849      1848      1851      1850      1848      1851      1848      1851      1852
      1848      1851      1853      1848      1851      1858      1852      1851      1853
      1852      1851      1858      1853      1851      1858      1855      1854      1856
      1855      1854      1857      1855      1854      1858      1856      1854      1857
      1856      1854      1858      1857      1854      1858      1854      1857      1859
      1851      1858      1854      1857      1859      1860      1857      1859      1861
      1857      1859      1864      1860      1859      1861      1860      1859      1864
      1861      1859      1864      1863      1862      1864      1863      1862      1914
      1864      1862      1914      1859      1864      1862      1859      1864      1865
      1859      1864      1866      1862      1864      1865      1862      1864      1866
      1865      1864      1866      1864      1866      1867      1864      1866      1868
      1864      1866      1870      1867      1866      1868      1867      1866      1870
      1868      1866      1870      1866      1868      1869      1866      1870      1871
      1866      1870      1872      1871      1870      1872      1870      1872      1873
      1870      1872      1874      1873      1872      1874      1872      1874      1875
      1872      1874      1876      1872      1874      1877      1875      1874      1876
      1875      1874      1877      1876      1874      1877      1874      1877      1878
      1874      1877      1879      1874      1877      1880      1878      1877      1879
      1878      1877      1880      1879      1877      1880      1877      1880      1881
      1877      1880      1882      1877      1880      1883      1881      1880      1882
      1881      1880      1883      1882      1880      1883      1880      1883      1884
      1880      1883      1885      1880      1883      1886      1884      1883      1885
      1884      1883      1886      1885      1883      1886      1883      1886      1887
      1883      1886      1888      1883      1886      1889      1887      1886      1888
      1887      1886      1889      1888      1886      1889      1886      1889      1890
      1886      1889      1891      1886      1889      1892      1890      1889      1891
      1890      1889      1892      1891      1889      1892      1889      1892      1893
      1889      1892      1894      1889      1892      1895      1893      1892      1894
      1893      1892      1895      1894      1892      1895      1892      1895      1896
      1892      1895      1897      1892      1895      1898      1896      1895      1897
      1896      1895      1898      1897      1895      1898      1895      1898      1899
      1895      1898      1900      1895      1898      1901      1899      1898      1900
      1899      1898      1901      1900      1898      1901      1898      1901      1902
      1898      1901      1903      1898      1901      1904      1902      1901      1903
      1902      1901      1904      1903      1901      1904      1901      1904      1905
      1901      1904      1906      1901      1904      1907      1905      1904      1906
      1905      1904      1907      1906      1904      1907      1904      1907      1908
      1904      1907      1909      1904      1907      1910      1908      1907      1909
      1908      1907      1910      1909      1907      1910      1907      1910      1911
      1907      1910      1912      1907      1910      1913      1911      1910      1912
      1911      1910      1913      1912      1910      1913      1862      1914      1915
      1862      1914      1916      1915      1914      1916      1914      1916      1917
      1914      1916      1918      1914      1916      1919      1917      1916      1918
      1917      1916      1919      1918      1916      1919      1916      1919      1920
      1916      1919      1921      1916      1919      1922      1920      1919      1921
      1920      1919      1922      1921      1919      1922      1919      1922      1923
      1919      1922      1924      1919      1922      1925      1923      1922      1924
      1923      1922      1925      1924      1922      1925      1922      1925      1926
      1922      1925      1927      1922      1925      1928      1926      1925      1927
      1926      1925      1928      1927      1925      1928      1925      1928      1929
      1925      1928      1930      1925      1928      1931      1929      1928      1930
      1929      1928      1931      1930      1928      1931      1928      1931      1932
      1928      1931      1933      1928      1931      1934      1932      1931      1933
      1932      1931      1934      1933      1931      1934      1931      1934      1935
      1931      1934      1936      1931      1934      1937      1935      1934      1936
      1935      1934      1937      1936      1934      1937      1934      1937      1938
      1934      1937      1939      1938      1937      1939      1937      1939      1940
      1937      1939      1941      1940      1939      1941      1939      1941      1942
      1939      1941      1943      1939      1941      1944      1942      1941      1943
      1942      1941      1944      1943      1941      1944      1941      1944      1945
      1941      1944      1946      1941      1944      1947      1945      1944      1946
      1945      1944      1947      1946      1944      1947      1944      1947      1948
      1944      1947      1949      1944      1947      1950      1948      1947      1949
      1948      1947      1950      1949      1947      1950      1947      1950      1951
      1947      1950      1952      1947      1950      1953      1951      1950      1952
      1951      1950      1953      1952      1950      1953      1950      1953      1954
      1950      1953      1955      1950      1953      1956      1954      1953      1955
      1954      1953      1956      1955      1953      1956      1953      1956      1957
      1953      1956      1958      1953      1956      1959      1957      1956      1958
      1957      1956      1959      1958      1956      1959      1956      1959      1960
      1956      1959      1961      1956      1959      1962      1960      1959      1961
      1960      1959      1962      1961      1959      1962      1959      1962      1963
      1959      1962      1964      1959      1962      1965      1963      1962      1964
      1963      1962      1965      1964      1962      1965      9274      9273      9277
      9274      9273      9281      9274      9273      9285      9277      9273      9281
      9277      9273      9285      9281      9273      9285      9273      9274      9275
      9273      9274      9276      9273      9274      9289      9275      9274      9276
      9275      9274      9289      9276      9274      9289      9273      9277      9278
      9273      9277      9279      9273      9277      9280      9278      9277      9279
      9278      9277      9280      9279      9277      9280      9273      9281      9282
      9273      9281      9283      9273      9281      9284      9282      9281      9283
      9282      9281      9284      9283      9281      9284      9273      9285      9286
      9273      9285      9287      9273      9285      9288      9286      9285      9287
      9286      9285      9288      9287      9285      9288      9274      9289      9290
      9274      9289      9291      9274      9289      9295      9290      9289      9291
      9290      9289      9295      9291      9289      9295      9293      9292      9294
      9293      9292      9295      9293      9292      9296      9294      9292      9295
      9294      9292      9296      9295      9292      9296      9289      9295      9292
      9292      9296      9297      9296      9297      9298      9296      9297      9299
      9296      9297      9300      9298      9297      9299      9298      9297      9300
      9299      9297      9300      9297      9300      9301      9297      9300      9302
      9297      9300      9308      9301      9300      9302      9301      9300      9308
      9302      9300      9308      9300      9302      9303      9302      9303      9304
      9302      9303      9305      9304      9303      9305      9303      9305      9306
      9303      9305      9307      9303      9305      9317      9306      9305      9307
      9306      9305      9317      9307      9305      9317      9300      9308      9309
      9300      9308      9310      9300      9308      9311      9309      9308      9310
      9309      9308      9311      9310      9308      9311      9308      9311      9312
      9311      9312      9313      9311      9312      9314      9313      9312      9314
      9312      9314      9315      9312      9314      9316      9312      9314      9364
      9315      9314      9316      9315      9314      9364      9316      9314      9364
      9305      9317      9318      9305      9317      9319      9305      9317      9320
      9318      9317      9319      9318      9317      9320      9319      9317      9320
      9317      9320      9321      9317      9320      9322      9317      9320      9323
      9321      9320      9322      9321      9320      9323      9322      9320      9323
      9320      9323      9324      9320      9323      9325      9324      9323      9325
      9323      9325      9326      9323      9325      9327      9326      9325      9327
      9325      9327      9328      9325      9327      9329      9325      9327      9330
      9328      9327      9329      9328      9327      9330      9329      9327      9330
      9327      9330      9331      9327      9330      9332      9331      9330      9332
      9330      9332      9333      9330      9332      9334      9333      9332      9334
      9332      9334      9335      9332      9334      9336      9332      9334      9337
      9335      9334      9336      9335      9334      9337      9336      9334      9337
      9334      9337      9338      9334      9337      9339      9338      9337      9339
      9337      9339      9340      9337      9339      9341      9340      9339      9341
      9339      9341      9342      9339      9341      9343      9339      9341      9344
      9342      9341      9343      9342      9341      9344      9343      9341      9344
      9341      9344      9345      9341      9344      9346      9345      9344      9346
      9344      9346      9347      9344      9346      9348      9347      9346      9348
      9346      9348      9349      9346      9348      9350      9346      9348      9351
      9349      9348      9350      9349      9348      9351      9350      9348      9351
      9348      9351      9352      9348      9351      9353      9348      9351      9354
      9352      9351      9353      9352      9351      9354      9353      9351      9354
      9351      9354      9355      9351      9354      9356      9351      9354      9357
      9355      9354      9356      9355      9354      9357      9356      9354      9357
      9354      9357      9358      9354      9357      9359      9354      9357      9360
      9358      9357      9359      9358      9357      9360      9359      9357      9360
      9357      9360      9361      9357      9360      9362      9357      9360      9363
      9361      9360      9362      9361      9360      9363      9362      9360      9363
      9314      9364      9365      9314      9364      9366      9314      9364      9367
      9365      9364      9366      9365      9364      9367      9366      9364      9367
      9364      9367      9368      9364      9367      9369      9364      9367      9370
      9368      9367      9369      9368      9367      9370      9369      9367      9370
      9367      9370      9371      9367      9370      9372      9367      9370      9373
      9371      9370      9372      9371      9370      9373      9372      9370      9373
      9370      9373      9374      9370      9373      9375      9370      9373      9376
      9374      9373      9375      9374      9373      9376      9375      9373      9376
      9373      9376      9377      9373      9376      9378      9373      9376      9379
      9377      9376      9378      9377      9376      9379      9378      9376      9379
      9376      9379      9380      9376      9379      9381      9376      9379      9382
      9380      9379      9381      9380      9379      9382      9381      9379      9382
      9379      9382      9383      9379      9382      9384      9379      9382      9385
      9383      9382      9384      9383      9382      9385      9384      9382      9385
      9382      9385      9386      9382      9385      9387      9382      9385      9388
      9386      9385      9387      9386      9385      9388      9387      9385      9388
      9385      9388      9389      9385      9388      9390      9385      9388      9391
      9389      9388      9390      9389      9388      9391      9390      9388      9391
      9388      9391      9392      9388      9391      9393      9388      9391      9394
      9392      9391      9393      9392      9391      9394      9393      9391      9394
      9391      9394      9395      9391      9394      9396      9391      9394      9397
      9395      9394      9396      9395      9394      9397      9396      9394      9397
      9394      9397      9398      9394      9397      9399      9394      9397      9400
      9398      9397      9399      9398      9397      9400      9399      9397      9400
      9397      9400      9401      9397      9400      9402      9397      9400      9403
      9401      9400      9402      9401      9400      9403      9402      9400      9403
      9400      9403      9404      9400      9403      9405      9400      9403      9406
      9404      9403      9405      9404      9403      9406      9405      9403      9406
      9403      9406      9407      9403      9406      9408      9403      9406      9409
      9407      9406      9408      9407      9406      9409      9408      9406      9409
      9406      9409      9410      9406      9409      9411      9406      9409      9412
      9410      9409      9411      9410      9409      9412      9411      9409      9412
      6738      6737      6739      6738      6737      6741      6738      6737      6783
      6739      6737      6741      6739      6737      6783      6741      6737      6783
      6737      6739      6740      6737      6741      6742      6737      6741      6743
      6737      6741      6744      6742      6741      6743      6742      6741      6744
      6743      6741      6744      6741      6744      6745      6741      6744      6775
      6745      6744      6775      6744      6745      6746      6744      6745      6747
      6746      6745      6747      6745      6747      6748      6745      6747      6749
      6745      6747      6750      6748      6747      6749      6748      6747      6750
      6749      6747      6750      6747      6750      6751      6747      6750      6752
      6747      6750      6773      6751      6750      6752      6751      6750      6773
      6752      6750      6773      6750      6752      6753      6750      6752      6754
      6750      6752      6762      6753      6752      6754      6753      6752      6762
      6754      6752      6762      6752      6754      6755      6752      6754      6756
      6752      6754      6757      6755      6754      6756      6755      6754      6757
      6756      6754      6757      6754      6757      6758      6754      6757      6759
      6754      6757      6760      6758      6757      6759      6758      6757      6760
      6759      6757      6760      6757      6760      6761      6757      6760      6762
      6757      6760      6786      6761      6760      6762      6761      6760      6786
      6762      6760      6786      6752      6762      6760      6752      6762      6763
      6752      6762      6767      6760      6762      6763      6760      6762      6767
      6763      6762      6767      6762      6763      6764      6762      6763      6765
      6762      6763      6766      6764      6763      6765      6764      6763      6766
      6765      6763      6766      6762      6767      6768      6762      6767      6769
      6762      6767      6770      6768      6767      6769      6768      6767      6770
      6769      6767      6770      6767      6770      6771      6767      6770      6772
      6767      6770      6773      6771      6770      6772      6771      6770      6773
      6772      6770      6773      6750      6773      6770      6750      6773      6774
      6750      6773      6775      6770      6773      6774      6770      6773      6775
      6774      6773      6775      6744      6775      6773      6744      6775      6776
      6744      6775      6780      6773      6775      6776      6773      6775      6780
      6776      6775      6780      6775      6776      6777      6775      6776      6778
      6775      6776      6779      6777      6776      6778      6777      6776      6779
      6778      6776      6779      6775      6780      6781      6775      6780      6782
      6775      6780      6783      6781      6780      6782      6781      6780      6783
      6782      6780      6783      6737      6783      6780      6737      6783      6784
      6737      6783      6785      6780      6783      6784      6780      6783      6785
      6784      6783      6785      6760      6786      6787      6760      6786      6788
      6760      6786      6792      6787      6786      6788      6787      6786      6792
      6788      6786      6792      6786      6788      6789      6786      6788      6790
      6786      6788      6791      6789      6788      6790      6789      6788      6791
      6790      6788      6791      6786      6792      6793      6786      6792      6794
      6786      6792      6795      6793      6792      6794      6793      6792      6795
      6794      6792      6795      6792      6795      6796      6792      6795      6797
      6792      6795      6798      6796      6795      6797      6796      6795      6798
      6797      6795      6798      6795      6798      6799      6795      6798      6800
      6795      6798      6801      6799      6798      6800      6799      6798      6801
      6800      6798      6801      6798      6801      6802      6798      6801      6803
      6798      6801      6807      6802      6801      6803      6802      6801      6807
      6803      6801      6807      6801      6803      6804      6801      6803      6805
      6801      6803      6806      6804      6803      6805      6804      6803      6806
      6805      6803      6806      6801      6807      6808      6801      6807      6809
      6801      6807      6810      6808      6807      6809      6808      6807      6810
      6809      6807      6810      1967      1966      1971      1967      1966      1975
      1967      1966      1979      1971      1966      1975      1971      1966      1979
      1975      1966      1979      1966      1967      1968      1966      1967      1969
      1966      1967      1970      1968      1967      1969      1968      1967      1970
      1969      1967      1970      1966      1971      1972      1966      1971      1973
      1966      1971      1974      1972      1971      1973      1972      1971      1974
      1973      1971      1974      1966      1975      1976      1966      1975      1977
      1966      1975      1978      1976      1975      1977      1976      1975      1978
      1977      1975      1978      1966      1979      1980      1966      1979      1981
      1966      1979      1982      1980      1979      1981      1980      1979      1982
      1981      1979      1982      1979      1982      1983      1979      1982      1984
      1979      1982      1989      1983      1982      1984      1983      1982      1989
      1984      1982      1989      1986      1985      1987      1986      1985      1988
      1986      1985      1989      1987      1985      1988      1987      1985      1989
      1988      1985      1989      1985      1988      1990      1982      1989      1985
      1988      1990      1991      1988      1990      1992      1988      1990      1995
      1991      1990      1992      1991      1990      1995      1992      1990      1995
      1994      1993      1995      1994      1993      2045      1995      1993      2045
      1990      1995      1993      1990      1995      1996      1990      1995      1997
      1993      1995      1996      1993      1995      1997      1996      1995      1997
      1995      1997      1998      1995      1997      1999      1995      1997      2001
      1998      1997      1999      1998      1997      2001      1999      1997      2001
      1997      1999      2000      1997      2001      2002      1997      2001      2003
      2002      2001      2003      2001      2003      2004      2001      2003      2005
      2004      2003      2005      2003      2005      2006      2003      2005      2007
      2003      2005      2008      2006      2005      2007      2006      2005      2008
      2007      2005      2008      2005      2008      2009      2005      2008      2010
      2005      2008      2011      2009      2008      2010      2009      2008      2011
      2010      2008      2011      2008      2011      2012      2008      2011      2013
      2008      2011      2014      2012      2011      2013      2012      2011      2014
      2013      2011      2014      2011      2014      2015      2011      2014      2016
      2011      2014      2017      2015      2014      2016      2015      2014      2017
      2016      2014      2017      2014      2017      2018      2014      2017      2019
      2014      2017      2020      2018      2017      2019      2018      2017      2020
      2019      2017      2020      2017      2020      2021      2017      2020      2022
      2017      2020      2023      2021      2020      2022      2021      2020      2023
      2022      2020      2023      2020      2023      2024      2020      2023      2025
      2020      2023      2026      2024      2023      2025      2024      2023      2026
      2025      2023      2026      2023      2026      2027      2023      2026      2028
      2023      2026      2029      2027      2026      2028      2027      2026      2029
      2028      2026      2029      2026      2029      2030      2026      2029      2031
      2026      2029      2032      2030      2029      2031      2030      2029      2032
      2031      2029      2032      2029      2032      2033      2029      2032      2034
      2029      2032      2035      2033      2032      2034      2033      2032      2035
      2034      2032      2035      2032      2035      2036      2032      2035      2037
      2032      2035      2038      2036      2035      2037      2036      2035      2038
      2037      2035      2038      2035      2038      2039      2035      2038      2040
      2035      2038      2041      2039      2038      2040      2039      2038      2041
      2040      2038      2041      2038      2041      2042      2038      2041      2043
      2038      2041      2044      2042      2041      2043      2042      2041      2044
      2043      2041      2044      1993      2045      2046      1993      2045      2047
      2046      2045      2047      2045      2047      2048      2045      2047      2049
      2045      2047      2050      2048      2047      2049      2048      2047      2050
      2049      2047      2050      2047      2050      2051      2047      2050      2052
      2047      2050      2053      2051      2050      2052      2051      2050      2053
      2052      2050      2053      2050      2053      2054      2050      2053      2055
      2050      2053      2056      2054      2053      2055      2054      2053      2056
      2055      2053      2056      2053      2056      2057      2053      2056      2058
      2053      2056      2059      2057      2056      2058      2057      2056      2059
      2058      2056      2059      2056      2059      2060      2056      2059      2061
      2056      2059      2062      2060      2059      2061      2060      2059      2062
      2061      2059      2062      2059      2062      2063      2059      2062      2064
      2059      2062      2065      2063      2062      2064      2063      2062      2065
      2064      2062      2065      2062      2065      2066      2062      2065      2067
      2062      2065      2068      2066      2065      2067      2066      2065      2068
      2067      2065      2068      2065      2068      2069      2065      2068      2070
      2069      2068      2070      2068      2070      2071      2068      2070      2072
      2071      2070      2072      2070      2072      2073      2070      2072      2074
      2070      2072      2075      2073      2072      2074      2073      2072      2075
      2074      2072      2075      2072      2075      2076      2072      2075      2077
      2072      2075      2078      2076      2075      2077      2076      2075      2078
      2077      2075      2078      2075      2078      2079      2075      2078      2080
      2075      2078      2081      2079      2078      2080      2079      2078      2081
      2080      2078      2081      2078      2081      2082      2078      2081      2083
      2078      2081      2084      2082      2081      2083      2082      2081      2084
      2083      2081      2084      2081      2084      2085      2081      2084      2086
      2081      2084      2087      2085      2084      2086      2085      2084      2087
      2086      2084      2087      2084      2087      2088      2084      2087      2089
      2084      2087      2090      2088      2087      2089      2088      2087      2090
      2089      2087      2090      2087      2090      2091      2087      2090      2092
      2087      2090      2093      2091      2090      2092      2091      2090      2093
      2092      2090      2093      2090      2093      2094      2090      2093      2095
      2090      2093      2096      2094      2093      2095      2094      2093      2096
      2095      2093      2096      8020      8019      8024      8020      8019      8028
      8020      8019      8032      8024      8019      8028      8024      8019      8032
      8028      8019      8032      8019      8020      8021      8019      8020      8022
      8019      8020      8023      8021      8020      8022      8021      8020      8023
      8022      8020      8023      8019      8024      8025      8019      8024      8026
      8019      8024      8027      8025      8024      8026      8025      8024      8027
      8026      8024      8027      8019      8028      8029      8019      8028      8030
      8019      8028      8031      8029      8028      8030      8029      8028      8031
      8030      8028      8031      8019      8032      8033      8019      8032      8034
      8019      8032      8035      8033      8032      8034      8033      8032      8035
      8034      8032      8035      8032      8035      8036      8032      8035      8037
      8032      8035      8041      8036      8035      8037      8036      8035      8041
      8037      8035      8041      8039      8038      8040      8039      8038      8041
      8039      8038      8042      8040      8038      8041      8040      8038      8042
      8041      8038      8042      8035      8041      8038      8038      8042      8043
      8042      8043      8044      8042      8043      8045      8042      8043      8046
      8044      8043      8045      8044      8043      8046      8045      8043      8046
      8043      8046      8047      8043      8046      8048      8043      8046      8054
      8047      8046      8048      8047      8046      8054      8048      8046      8054
      8046      8048      8049      8048      8049      8050      8048      8049      8051
      8050      8049      8051      8049      8051      8052      8049      8051      8053
      8049      8051      8063      8052      8051      8053      8052      8051      8063
      8053      8051      8063      8046      8054      8055      8046      8054      8056
      8046      8054      8057      8055      8054      8056      8055      8054      8057
      8056      8054      8057      8054      8057      8058      8057      8058      8059
      8057      8058      8060      8059      8058      8060      8058      8060      8061
      8058      8060      8062      8058      8060      8108      8061      8060      8062
      8061      8060      8108      8062      8060      8108      8051      8063      8064
      8051      8063      8065      8051      8063      8066      8064      8063      8065
      8064      8063      8066      8065      8063      8066      8063      8066      8067
      8063      8066      8068      8063      8066      8069      8067      8066      8068
      8067      8066      8069      8068      8066      8069      8066      8069      8070
      8066      8069      8071      8066      8069      8072      8070      8069      8071
      8070      8069      8072      8071      8069      8072      8069      8072      8073
      8069      8072      8074      8069      8072      8075      8073      8072      8074
      8073      8072      8075      8074      8072      8075      8072      8075      8076
      8072      8075      8077      8072      8075      8078      8076      8075      8077
      8076      8075      8078      8077      8075      8078      8075      8078      8079
      8075      8078      8080      8075      8078      8081      8079      8078      8080
      8079      8078      8081      8080      8078      8081      8078      8081      8082
      8078      8081      8083      8082      8081      8083      8081      8083      8084
      8081      8083      8085      8084      8083      8085      8083      8085      8086
      8083      8085      8087      8083      8085      8088      8086      8085      8087
      8086      8085      8088      8087      8085      8088      8085      8088      8089
      8085      8088      8090      8089      8088      8090      8088      8090      8091
      8088      8090      8092      8091      8090      8092      8090      8092      8093
      8090      8092      8094      8090      8092      8095      8093      8092      8094
      8093      8092      8095      8094      8092      8095      8092      8095      8096
      8092      8095      8097      8092      8095      8098      8096      8095      8097
      8096      8095      8098      8097      8095      8098      8095      8098      8099
      8095      8098      8100      8095      8098      8101      8099      8098      8100
      8099      8098      8101      8100      8098      8101      8098      8101      8102
      8098      8101      8103      8098      8101      8104      8102      8101      8103
      8102      8101      8104      8103      8101      8104      8101      8104      8105
      8101      8104      8106      8101      8104      8107      8105      8104      8106
      8105      8104      8107      8106      8104      8107      8060      8108      8109
      8060      8108      8110      8060      8108      8111      8109      8108      8110
      8109      8108      8111      8110      8108      8111      8108      8111      8112
      8108      8111      8113      8108      8111      8114      8112      8111      8113
      8112      8111      8114      8113      8111      8114      8111      8114      8115
      8111      8114      8116      8111      8114      8117      8115      8114      8116
      8115      8114      8117      8116      8114      8117      8114      8117      8118
      8114      8117      8119      8114      8117      8120      8118      8117      8119
      8118      8117      8120      8119      8117      8120      8117      8120      8121
      8117      8120      8122      8117      8120      8123      8121      8120      8122
      8121      8120      8123      8122      8120      8123      8120      8123      8124
      8120      8123      8125      8120      8123      8126      8124      8123      8125
      8124      8123      8126      8125      8123      8126      8123      8126      8127
      8123      8126      8128      8123      8126      8129      8127      8126      8128
      8127      8126      8129      8128      8126      8129      8126      8129      8130
      8126      8129      8131      8126      8129      8132      8130      8129      8131
      8130      8129      8132      8131      8129      8132      8129      8132      8133
      8129      8132      8134      8129      8132      8135      8133      8132      8134
      8133      8132      8135      8134      8132      8135      8132      8135      8136
      8132      8135      8137      8132      8135      8138      8136      8135      8137
      8136      8135      8138      8137      8135      8138      8135      8138      8139
      8135      8138      8140      8135      8138      8141      8139      8138      8140
      8139      8138      8141      8140      8138      8141      8138      8141      8142
      8138      8141      8143      8138      8141      8144      8142      8141      8143
      8142      8141      8144      8143      8141      8144      8141      8144      8145
      8141      8144      8146      8141      8144      8147      8145      8144      8146
      8145      8144      8147      8146      8144      8147      8144      8147      8148
      8144      8147      8149      8144      8147      8150      8148      8147      8149
      8148      8147      8150      8149      8147      8150      8147      8150      8151
      8147      8150      8152      8147      8150      8153      8151      8150      8152
      8151      8150      8153      8152      8150      8153      8150      8153      8154
      8150      8153      8155      8150      8153      8156      8154      8153      8155
      8154      8153      8156      8155      8153      8156      2892      2891      2893
      2892      2891      2894      2892      2891      2895      2893      2891      2894
      2893      2891      2895      2894      2891      2895      2891      2895      2896
      2891      2895      2897      2891      2895      2900      2896      2895      2897
      2896      2895      2900      2897      2895      2900      2895      2897      2898
      2895      2897      2899      2898      2897      2899      2895      2900      2901
      2895      2900      2902      2895      2900      2906      2901      2900      2902
      2901      2900      2906      2902      2900      2906      2904      2903      2905
      2904      2903      2906      2904      2903      2907      2905      2903      2906
      2905      2903      2907      2906      2903      2907      2900      2906      2903
      2903      2907      2908      2907      2908      2909      2907      2908      2910
      2907      2908      2911      2909      2908      2910      2909      2908      2911
      2910      2908      2911      2908      2911      2912      2908      2911      2913
      2908      2911      2919      2912      2911      2913      2912      2911      2919
      2913      2911      2919      2911      2913      2914      2913      2914      2915
      2913      2914      2916      2915      2914      2916      2914      2916      2917
      2914      2916      2918      2914      2916      2928      2917      2916      2918
      2917      2916      2928      2918      2916      2928      2911      2919      2920
      2911      2919      2921      2911      2919      2922      2920      2919      2921
      2920      2919      2922      2921      2919      2922      2919      2922      2923
      2922      2923      2924      2922      2923      2925      2924      2923      2925
      2923      2925      2926      2923      2925      2927      2923      2925      2975
      2926      2925      2927      2926      2925      2975      2927      2925      2975
      2916      2928      2929      2916      2928      2930      2916      2928      2931
      2929      2928      2930      2929      2928      2931      2930      2928      2931
      2928      2931      2932      2928      2931      2933      2928      2931      2934
      2932      2931      2933      2932      2931      2934      2933      2931      2934
      2931      2934      2935      2931      2934      2936      2935      2934      2936
      2934      2936      2937      2934      2936      2938      2937      2936      2938
      2936      2938      2939      2936      2938      2940      2936      2938      2941
      2939      2938      2940      2939      2938      2941      2940      2938      2941
      2938      2941      2942      2938      2941      2943      2942      2941      2943
      2941      2943      2944      2941      2943      2945      2944      2943      2945
      2943      2945      2946      2943      2945      2947      2943      2945      2948
      2946      2945      2947      2946      2945      2948      2947      2945      2948
      2945      2948      2949      2945      2948      2950      2949      2948      2950
      2948      2950      2951      2948      2950      2952      2951      2950      2952
      2950      2952      2953      2950      2952      2954      2950      2952      2955
      2953      2952      2954      2953      2952      2955      2954      2952      2955
      2952      2955      2956      2952      2955      2957      2956      2955      2957
      2955      2957      2958      2955      2957      2959      2958      2957      2959
      2957      2959      2960      2957      2959      2961      2957      2959      2962
      2960      2959      2961      2960      2959      2962      2961      2959      2962
      2959      2962      2963      2959      2962      2964      2959      2962      2965
      2963      2962      2964      2963      2962      2965      2964      2962      2965
      2962      2965      2966      2962      2965      2967      2962      2965      2968
      2966      2965      2967      2966      2965      2968      2967      2965      2968
      2965      2968      2969      2965      2968      2970      2965      2968      2971
      2969      2968      2970      2969      2968      2971      2970      2968      2971
      2968      2971      2972      2968      2971      2973      2968      2971      2974
      2972      2971      2973      2972      2971      2974      2973      2971      2974
      2925      2975      2976      2925      2975      2977      2925      2975      2978
      2976      2975      2977      2976      2975      2978      2977      2975      2978
      2975      2978      2979      2975      2978      2980      2975      2978      2981
      2979      2978      2980      2979      2978      2981      2980      2978      2981
      2978      2981      2982      2978      2981      2983      2978      2981      2984
      2982      2981      2983      2982      2981      2984      2983      2981      2984
      2981      2984      2985      2981      2984      2986      2981      2984      2987
      2985      2984      2986      2985      2984      2987      2986      2984      2987
      2984      2987      2988      2984      2987      2989      2984      2987      2990
      2988      2987      2989      2988      2987      2990      2989      2987      2990
      2987      2990      2991      2987      2990      2992      2987      2990      2993
      2991      2990      2992      2991      2990      2993      2992      2990      2993
      2990      2993      2994      2990      2993      2995      2990      2993      2996
      2994      2993      2995      2994      2993      2996      2995      2993      2996
      2993      2996      2997      2993      2996      2998      2993      2996      2999
      2997      2996      2998      2997      2996      2999      2998      2996      2999
      2996      2999      3000      2996      2999      3001      2996      2999      3002
      3000      2999      3001      3000      2999      3002      3001      2999      3002
      2999      3002      3003      2999      3002      3004      2999      3002      3005
      3003      3002      3004      3003      3002      3005      3004      3002      3005
      3002      3005      3006      3002      3005      3007      3002      3005      3008
      3006      3005      3007      3006      3005      3008      3007      3005      3008
      3005      3008      3009      3005      3008      3010      3005      3008      3011
      3009      3008      3010      3009      3008      3011      3010      3008      3011
      3008      3011      3012      3008      3011      3013      3008      3011      3014
      3012      3011      3013      3012      3011      3014      3013      3011      3014
      3011      3014      3015      3011      3014      3016      3011      3014      3017
      3015      3014      3016      3015      3014      3017      3016      3014      3017
      3014      3017      3018      3014      3017      3019      3014      3017      3020
      3018      3017      3019      3018      3017      3020      3019      3017      3020
      3017      3020      3021      3017      3020      3022      3017      3020      3023
      3021      3020      3022      3021      3020      3023      3022      3020      3023
      3025      3024      3026      3025      3024      3027      3025      3024      3028
      3026      3024      3027      3026      3024      3028      3027      3024      3028
      3024      3028      3029      3024      3028      3030      3024      3028      3033
      3029      3028      3030      3029      3028      3033      3030      3028      3033
      3028      3030      3031      3028      3030      3032      3031      3030      3032
      3028      3033      3034      3028      3033      3035      3028      3033      3039
      3034      3033      3035      3034      3033      3039      3035      3033      3039
      3037      3036      3038      3037      3036      3039      3037      3036      3040
      3038      3036      3039      3038      3036      3040      3039      3036      3040
      3033      3039      3036      3036      3040      3041      3040      3041      3042
      3040      3041      3043      3040      3041      3044      3042      3041      3043
      3042      3041      3044      3043      3041      3044      3041      3044      3045
      3041      3044      3046      3041      3044      3052      3045      3044      3046
      3045      3044      3052      3046      3044      3052      3044      3046      3047
      3046      3047      3048      3046      3047      3049      3048      3047      3049
      3047      3049      3050      3047      3049      3051      3047      3049      3061
      3050      3049      3051      3050      3049      3061      3051      3049      3061
      3044      3052      3053      3044      3052      3054      3044      3052      3055
      3053      3052      3054      3053      3052      3055      3054      3052      3055
      3052      3055      3056      3055      3056      3057      3055      3056      3058
      3057      3056      3058      3056      3058      3059      3056      3058      3060
      3056      3058      3108      3059      3058      3060      3059      3058      3108
      3060      3058      3108      3049      3061      3062      3049      3061      3063
      3049      3061      3064      3062      3061      3063      3062      3061      3064
      3063      3061      3064      3061      3064      3065      3061      3064      3066
      3061      3064      3067      3065      3064      3066      3065      3064      3067
      3066      3064      3067      3064      3067      3068      3064      3067      3069
      3068      3067      3069      3067      3069      3070      3067      3069      3071
      3070      3069      3071      3069      3071      3072      3069      3071      3073
      3069      3071      3074      3072      3071      3073      3072      3071      3074
      3073      3071      3074      3071      3074      3075      3071      3074      3076
      3075      3074      3076      3074      3076      3077      3074      3076      3078
      3077      3076      3078      3076      3078      3079      3076      3078      3080
      3076      3078      3081      3079      3078      3080      3079      3078      3081
      3080      3078      3081      3078      3081      3082      3078      3081      3083
      3082      3081      3083      3081      3083      3084      3081      3083      3085
      3084      3083      3085      3083      3085      3086      3083      3085      3087
      3083      3085      3088      3086      3085      3087      3086      3085      3088
      3087      3085      3088      3085      3088      3089      3085      3088      3090
      3089      3088      3090      3088      3090      3091      3088      3090      3092
      3091      3090      3092      3090      3092      3093      3090      3092      3094
      3090      3092      3095      3093      3092      3094      3093      3092      3095
      3094      3092      3095      3092      3095      3096      3092      3095      3097
      3092      3095      3098      3096      3095      3097      3096      3095      3098
      3097      3095      3098      3095      3098      3099      3095      3098      3100
      3095      3098      3101      3099      3098      3100      3099      3098      3101
      3100      3098      3101      3098      3101      3102      3098      3101      3103
      3098      3101      3104      3102      3101      3103      3102      3101      3104
      3103      3101      3104      3101      3104      3105      3101      3104      3106
      3101      3104      3107      3105      3104      3106      3105      3104      3107
      3106      3104      3107      3058      3108      3109      3058      3108      3110
      3058      3108      3111      3109      3108      3110      3109      3108      3111
      3110      3108      3111      3108      3111      3112      3108      3111      3113
      3108      3111      3114      3112      3111      3113      3112      3111      3114
      3113      3111      3114      3111      3114      3115      3111      3114      3116
      3111      3114      3117      3115      3114      3116      3115      3114      3117
      3116      3114      3117      3114      3117      3118      3114      3117      3119
      3114      3117      3120      3118      3117      3119      3118      3117      3120
      3119      3117      3120      3117      3120      3121      3117      3120      3122
      3117      3120      3123      3121      3120      3122      3121      3120      3123
      3122      3120      3123      3120      3123      3124      3120      3123      3125
      3120      3123      3126      3124      3123      3125      3124      3123      3126
      3125      3123      3126      3123      3126      3127      3123      3126      3128
      3123      3126      3129      3127      3126      3128      3127      3126      3129
      3128      3126      3129      3126      3129      3130      3126      3129      3131
      3126      3129      3132      3130      3129      3131      3130      3129      3132
      3131      3129      3132      3129      3132      3133      3129      3132      3134
      3129      3132      3135      3133      3132      3134      3133      3132      3135
      3134      3132      3135      3132      3135      3136      3132      3135      3137
      3132      3135      3138      3136      3135      3137      3136      3135      3138
      3137      3135      3138      3135      3138      3139      3135      3138      3140
      3135      3138      3141      3139      3138      3140      3139      3138      3141
      3140      3138      3141      3138      3141      3142      3138      3141      3143
      3138      3141      3144      3142      3141      3143      3142      3141      3144
      3143      3141      3144      3141      3144      3145      3141      3144      3146
      3141      3144      3147      3145      3144      3146      3145      3144      3147
      3146      3144      3147      3144      3147      3148      3144      3147      3149
      3144      3147      3150      3148      3147      3149      3148      3147      3150
      3149      3147      3150      3147      3150      3151      3147      3150      3152
      3147      3150      3153      3151      3150      3152      3151      3150      3153
      3152      3150      3153      3150      3153      3154      3150      3153      3155
      3150      3153      3156      3154      3153      3155      3154      3153      3156
      3155      3153      3156      9822      9821      9825      9822      9821      9829
      9822      9821      9833      9825      9821      9829      9825      9821      9833
      9829      9821      9833      9821      9822      9823      9821      9822      9824
      9821      9822      9837      9823      9822      9824      9823      9822      9837
      9824      9822      9837      9821      9825      9826      9821      9825      9827
      9821      9825      9828      9826      9825      9827      9826      9825      9828
      9827      9825      9828      9821      9829      9830      9821      9829      9831
      9821      9829      9832      9830      9829      9831      9830      9829      9832
      9831      9829      9832      9821      9833      9834      9821      9833      9835
      9821      9833      9836      9834      9833      9835      9834      9833      9836
      9835      9833      9836      9822      9837      9838      9822      9837      9839
      9822      9837      9843      9838      9837      9839      9838      9837      9843
      9839      9837      9843      9841      9840      9842      9841      9840      9843
      9841      9840      9844      9842      9840      9843      9842      9840      9844
      9843      9840      9844      9837      9843      9840      9840      9844      9845
      9844      9845      9846      9844      9845      9847      9844      9845      9848
      9846      9845      9847      9846      9845      9848      9847      9845      9848
      9845      9848      9849      9845      9848      9850      9845      9848      9856
      9849      9848      9850      9849      9848      9856      9850      9848      9856
      9848      9850      9851      9850      9851      9852      9850      9851      9853
      9852      9851      9853      9851      9853      9854      9851      9853      9855
      9851      9853      9865      9854      9853      9855      9854      9853      9865
      9855      9853      9865      9848      9856      9857      9848      9856      9858
      9848      9856      9859      9857      9856      9858      9857      9856      9859
      9858      9856      9859      9856      9859      9860      9859      9860      9861
      9859      9860      9862      9861      9860      9862      9860      9862      9863
      9860      9862      9864      9860      9862      9912      9863      9862      9864
      9863      9862      9912      9864      9862      9912      9853      9865      9866
      9853      9865      9867      9853      9865      9868      9866      9865      9867
      9866      9865      9868      9867      9865      9868      9865      9868      9869
      9865      9868      9870      9865      9868      9871      9869      9868      9870
      9869      9868      9871      9870      9868      9871      9868      9871      9872
      9868      9871      9873      9868      9871      9874      9872      9871      9873
      9872      9871      9874      9873      9871      9874      9871      9874      9875
      9871      9874      9876      9871      9874      9877      9875      9874      9876
      9875      9874      9877      9876      9874      9877      9874      9877      9878
      9874      9877      9879      9874      9877      9880      9878      9877      9879
      9878      9877      9880      9879      9877      9880      9877      9880      9881
      9877      9880      9882      9877      9880      9883      9881      9880      9882
      9881      9880      9883      9882      9880      9883      9880      9883      9884
      9880      9883      9885      9884      9883      9885      9883      9885      9886
      9883      9885      9887      9886      9885      9887      9885      9887      9888
      9885      9887      9889      9885      9887      9890      9888      9887      9889
      9888      9887      9890      9889      9887      9890      9887      9890      9891
      9887      9890      9892      9887      9890      9893      9891      9890      9892
      9891      9890      9893      9892      9890      9893      9890      9893      9894
      9890      9893      9895      9890      9893      9896      9894      9893      9895
      9894      9893      9896      9895      9893      9896      9893      9896      9897
      9893      9896      9898      9893      9896      9899      9897      9896      9898
      9897      9896      9899      9898      9896      9899      9896      9899      9900
      9896      9899      9901      9896      9899      9902      9900      9899      9901
      9900      9899      9902      9901      9899      9902      9899      9902      9903
      9899      9902      9904      9899      9902      9905      9903      9902      9904
      9903      9902      9905      9904      9902      9905      9902      9905      9906
      9902      9905      9907      9902      9905      9908      9906      9905      9907
      9906      9905      9908      9907      9905      9908      9905      9908      9909
      9905      9908      9910      9905      9908      9911      9909      9908      9910
      9909      9908      9911      9910      9908      9911      9862      9912      9913
      9862      9912      9914      9862      9912      9915      9913      9912      9914
      9913      9912      9915      9914      9912      9915      9912      9915      9916
      9912      9915      9917      9912      9915      9918      9916      9915      9917
      9916      9915      9918      9917      9915      9918      9915      9918      9919
      9915      9918      9920      9915      9918      9921      9919      9918      9920
      9919      9918      9921      9920      9918      9921      9918      9921      9922
      9918      9921      9923      9918      9921      9924      9922      9921      9923
      9922      9921      9924      9923      9921      9924      9921      9924      9925
      9921      9924      9926      9921      9924      9927      9925      9924      9926
      9925      9924      9927      9926      9924      9927      9924      9927      9928
      9924      9927      9929      9924      9927      9930      9928      9927      9929
      9928      9927      9930      9929      9927      9930      9927      9930      9931
      9927      9930      9932      9927      9930      9933      9931      9930      9932
      9931      9930      9933      9932      9930      9933      9930      9933      9934
      9930      9933      9935      9930      9933      9936      9934      9933      9935
      9934      9933      9936      9935      9933      9936      9933      9936      9937
      9933      9936      9938      9933      9936      9939      9937      9936      9938
      9937      9936      9939      9938      9936      9939      9936      9939      9940
      9936      9939      9941      9936      9939      9942      9940      9939      9941
      9940      9939      9942      9941      9939      9942      9939      9942      9943
      9939      9942      9944      9939      9942      9945      9943      9942      9944
      9943      9942      9945      9944      9942      9945      9942      9945      9946
      9942      9945      9947      9942      9945      9948      9946      9945      9947
      9946      9945      9948      9947      9945      9948      9945      9948      9949
      9945      9948      9950      9945      9948      9951      9949      9948      9950
      9949      9948      9951      9950      9948      9951      9948      9951      9952
      9948      9951      9953      9948      9951      9954      9952      9951      9953
      9952      9951      9954      9953      9951      9954      2098      2097      2102
      2098      2097      2106      2098      2097      2110      2102      2097      2106
      2102      2097      2110      2106      2097      2110      2097      2098      2099
      2097      2098      2100      2097      2098      2101      2099      2098      2100
      2099      2098      2101      2100      2098      2101      2097      2102      2103
      2097      2102      2104      2097      2102      2105      2103      2102      2104
      2103      2102      2105      2104      2102      2105      2097      2106      2107
      2097      2106      2108      2097      2106      2109      2107      2106      2108
      2107      2106      2109      2108      2106      2109      2097      2110      2111
      2097      2110      2112      2097      2110      2113      2111      2110      2112
      2111      2110      2113      2112      2110      2113      2110      2113      2114
      2110      2113      2115      2110      2113      2120      2114      2113      2115
      2114      2113      2120      2115      2113      2120      2117      2116      2118
      2117      2116      2119      2117      2116      2120      2118      2116      2119
      2118      2116      2120      2119      2116      2120      2116      2119      2121
      2113      2120      2116      2119      2121      2122      2119      2121      2123
      2119      2121      2126      2122      2121      2123      2122      2121      2126
      2123      2121      2126      2125      2124      2126      2125      2124      2176
      2126      2124      2176      2121      2126      2124      2121      2126      2127
      2121      2126      2128      2124      2126      2127      2124      2126      2128
      2127      2126      2128      2126      2128      2129      2126      2128      2130
      2126      2128      2132      2129      2128      2130      2129      2128      2132
      2130      2128      2132      2128      2130      2131      2128      2132      2133
      2128      2132      2134      2133      2132      2134      2132      2134      2135
      2132      2134      2136      2135      2134      2136      2134      2136      2137
      2134      2136      2138      2134      2136      2139      2137      2136      2138
      2137      2136      2139      2138      2136      2139      2136      2139      2140
      2136      2139      2141      2136      2139      2142      2140      2139      2141
      2140      2139      2142      2141      2139      2142      2139      2142      2143
      2139      2142      2144      2139      2142      2145      2143      2142      2144
      2143      2142      2145      2144      2142      2145      2142      2145      2146
      2142      2145      2147      2142      2145      2148      2146      2145      2147
      2146      2145      2148      2147      2145      2148      2145      2148      2149
      2145      2148      2150      2145      2148      2151      2149      2148      2150
      2149      2148      2151      2150      2148      2151      2148      2151      2152
      2148      2151      2153      2148      2151      2154      2152      2151      2153
      2152      2151      2154      2153      2151      2154      2151      2154      2155
      2151      2154      2156      2151      2154      2157      2155      2154      2156
      2155      2154      2157      2156      2154      2157      2154      2157      2158
      2154      2157      2159      2154      2157      2160      2158      2157      2159
      2158      2157      2160      2159      2157      2160      2157      2160      2161
      2157      2160      2162      2157      2160      2163      2161      2160      2162
      2161      2160      2163      2162      2160      2163      2160      2163      2164
      2160      2163      2165      2160      2163      2166      2164      2163      2165
      2164      2163      2166      2165      2163      2166      2163      2166      2167
      2163      2166      2168      2163      2166      2169      2167      2166      2168
      2167      2166      2169      2168      2166      2169      2166      2169      2170
      2166      2169      2171      2166      2169      2172      2170      2169      2171
      2170      2169      2172      2171      2169      2172      2169      2172      2173
      2169      2172      2174      2169      2172      2175      2173      2172      2174
      2173      2172      2175      2174      2172      2175      2124      2176      2177
      2124      2176      2178      2177      2176      2178      2176      2178      2179
      2176      2178      2180      2176      2178      2181      2179      2178      2180
      2179      2178      2181      2180      2178      2181      2178      2181      2182
      2178      2181      2183      2178      2181      2184      2182      2181      2183
      2182      2181      2184      2183      2181      2184      2181      2184      2185
      2181      2184      2186      2181      2184      2187      2185      2184      2186
      2185      2184      2187      2186      2184      2187      2184      2187      2188
      2184      2187      2189      2184      2187      2190      2188      2187      2189
      2188      2187      2190      2189      2187      2190      2187      2190      2191
      2187      2190      2192      2187      2190      2193      2191      2190      2192
      2191      2190      2193      2192      2190      2193      2190      2193      2194
      2190      2193      2195      2190      2193      2196      2194      2193      2195
      2194      2193      2196      2195      2193      2196      2193      2196      2197
      2193      2196      2198      2193      2196      2199      2197      2196      2198
      2197      2196      2199      2198      2196      2199      2196      2199      2200
      2196      2199      2201      2200      2199      2201      2199      2201      2202
      2199      2201      2203      2202      2201      2203      2201      2203      2204
      2201      2203      2205      2201      2203      2206      2204      2203      2205
      2204      2203      2206      2205      2203      2206      2203      2206      2207
      2203      2206      2208      2203      2206      2209      2207      2206      2208
      2207      2206      2209      2208      2206      2209      2206      2209      2210
      2206      2209      2211      2206      2209      2212      2210      2209      2211
      2210      2209      2212      2211      2209      2212      2209      2212      2213
      2209      2212      2214      2209      2212      2215      2213      2212      2214
      2213      2212      2215      2214      2212      2215      2212      2215      2216
      2212      2215      2217      2212      2215      2218      2216      2215      2217
      2216      2215      2218      2217      2215      2218      2215      2218      2219
      2215      2218      2220      2215      2218      2221      2219      2218      2220
      2219      2218      2221      2220      2218      2221      2218      2221      2222
      2218      2221      2223      2218      2221      2224      2222      2221      2223
      2222      2221      2224      2223      2221      2224      2221      2224      2225
      2221      2224      2226      2221      2224      2227      2225      2224      2226
      2225      2224      2227      2226      2224      2227      4865      4864      4866
      4865      4864      4867      4865      4864      4868      4866      4864      4867
      4866      4864      4868      4867      4864      4868      4864      4868      4869
      4864      4868      4870      4864      4868      4871      4869      4868      4870
      4869      4868      4871      4870      4868      4871      4868      4871      4872
      4868      4871      4873      4868      4871      4877      4872      4871      4873
      4872      4871      4877      4873      4871      4877      4875      4874      4876
      4875      4874      4877      4875      4874      4878      4876      4874      4877
      4876      4874      4878      4877      4874      4878      4871      4877      4874
      4874      4878      4879      4878      4879      4880      4878      4879      4881
      4878      4879      4882      4880      4879      4881      4880      4879      4882
      4881      4879      4882      4879      4882      4883      4879      4882      4884
      4879      4882      4890      4883      4882      4884      4883      4882      4890
      4884      4882      4890      4882      4884      4885      4884      4885      4886
      4884      4885      4887      4886      4885      4887      4885      4887      4888
      4885      4887      4889      4885      4887      4899      4888      4887      4889
      4888      4887      4899      4889      4887      4899      4882      4890      4891
      4882      4890      4892      4882      4890      4893      4891      4890      4892
      4891      4890      4893      4892      4890      4893      4890      4893      4894
      4893      4894      4895      4893      4894      4896      4895      4894      4896
      4894      4896      4897      4894      4896      4898      4894      4896      4946
      4897      4896      4898      4897      4896      4946      4898      4896      4946
      4887      4899      4900      4887      4899      4901      4887      4899      4902
      4900      4899      4901      4900      4899      4902      4901      4899      4902
      4899      4902      4903      4899      4902      4904      4899      4902      4905
      4903      4902      4904      4903      4902      4905      4904      4902      4905
      4902      4905      4906      4902      4905      4907      4906      4905      4907
      4905      4907      4908      4905      4907      4909      4908      4907      4909
      4907      4909      4910      4907      4909      4911      4907      4909      4912
      4910      4909      4911      4910      4909      4912      4911      4909      4912
      4909      4912      4913      4909      4912      4914      4913      4912      4914
      4912      4914      4915      4912      4914      4916      4915      4914      4916
      4914      4916      4917      4914      4916      4918      4914      4916      4919
      4917      4916      4918      4917      4916      4919      4918      4916      4919
      4916      4919      4920      4916      4919      4921      4920      4919      4921
      4919      4921      4922      4919      4921      4923      4922      4921      4923
      4921      4923      4924      4921      4923      4925      4921      4923      4926
      4924      4923      4925      4924      4923      4926      4925      4923      4926
      4923      4926      4927      4923      4926      4928      4927      4926      4928
      4926      4928      4929      4926      4928      4930      4929      4928      4930
      4928      4930      4931      4928      4930      4932      4928      4930      4933
      4931      4930      4932      4931      4930      4933      4932      4930      4933
      4930      4933      4934      4930      4933      4935      4930      4933      4936
      4934      4933      4935      4934      4933      4936      4935      4933      4936
      4933      4936      4937      4933      4936      4938      4933      4936      4939
      4937      4936      4938      4937      4936      4939      4938      4936      4939
      4936      4939      4940      4936      4939      4941      4936      4939      4942
      4940      4939      4941      4940      4939      4942      4941      4939      4942
      4939      4942      4943      4939      4942      4944      4939      4942      4945
      4943      4942      4944      4943      4942      4945      4944      4942      4945
      4896      4946      4947      4896      4946      4948      4896      4946      4949
      4947      4946      4948      4947      4946      4949      4948      4946      4949
      4946      4949      4950      4946      4949      4951      4946      4949      4952
      4950      4949      4951      4950      4949      4952      4951      4949      4952
      4949      4952      4953      4949      4952      4954      4949      4952      4955
      4953      4952      4954      4953      4952      4955      4954      4952      4955
      4952      4955      4956      4952      4955      4957      4952      4955      4958
      4956      4955      4957      4956      4955      4958      4957      4955      4958
      4955      4958      4959      4955      4958      4960      4955      4958      4961
      4959      4958      4960      4959      4958      4961      4960      4958      4961
      4958      4961      4962      4958      4961      4963      4958      4961      4964
      4962      4961      4963      4962      4961      4964      4963      4961      4964
      4961      4964      4965      4961      4964      4966      4961      4964      4967
      4965      4964      4966      4965      4964      4967      4966      4964      4967
      4964      4967      4968      4964      4967      4969      4964      4967      4970
      4968      4967      4969      4968      4967      4970      4969      4967      4970
      4967      4970      4971      4967      4970      4972      4967      4970      4973
      4971      4970      4972      4971      4970      4973      4972      4970      4973
      4970      4973      4974      4970      4973      4975      4970      4973      4976
      4974      4973      4975      4974      4973      4976      4975      4973      4976
      4973      4976      4977      4973      4976      4978      4973      4976      4979
      4977      4976      4978      4977      4976      4979      4978      4976      4979
      4976      4979      4980      4976      4979      4981      4976      4979      4982
      4980      4979      4981      4980      4979      4982      4981      4979      4982
      4979      4982      4983      4979      4982      4984      4979      4982      4985
      4983      4982      4984      4983      4982      4985      4984      4982      4985
      4982      4985      4986      4982      4985      4987      4982      4985      4988
      4986      4985      4987      4986      4985      4988      4987      4985      4988
      4985      4988      4989      4985      4988      4990      4985      4988      4991
      4989      4988      4990      4989      4988      4991      4990      4988      4991
      4988      4991      4992      4988      4991      4993      4988      4991      4994
      4992      4991      4993      4992      4991      4994      4993      4991      4994
      6812      6811      6813      6812      6811      6815      6812      6811      6857
      6813      6811      6815      6813      6811      6857      6815      6811      6857
      6811      6813      6814      6811      6815      6816      6811      6815      6817
      6811      6815      6818      6816      6815      6817      6816      6815      6818
      6817      6815      6818      6815      6818      6819      6815      6818      6849
      6819      6818      6849      6818      6819      6820      6818      6819      6821
      6820      6819      6821      6819      6821      6822      6819      6821      6823
      6819      6821      6824      6822      6821      6823      6822      6821      6824
      6823      6821      6824      6821      6824      6825      6821      6824      6826
      6821      6824      6847      6825      6824      6826      6825      6824      6847
      6826      6824      6847      6824      6826      6827      6824      6826      6828
      6824      6826      6836      6827      6826      6828      6827      6826      6836
      6828      6826      6836      6826      6828      6829      6826      6828      6830
      6826      6828      6831      6829      6828      6830      6829      6828      6831
      6830      6828      6831      6828      6831      6832      6828      6831      6833
      6828      6831      6834      6832      6831      6833      6832      6831      6834
      6833      6831      6834      6831      6834      6835      6831      6834      6836
      6831      6834      6860      6835      6834      6836      6835      6834      6860
      6836      6834      6860      6826      6836      6834      6826      6836      6837
      6826      6836      6841      6834      6836      6837      6834      6836      6841
      6837      6836      6841      6836      6837      6838      6836      6837      6839
      6836      6837      6840      6838      6837      6839      6838      6837      6840
      6839      6837      6840      6836      6841      6842      6836      6841      6843
      6836      6841      6844      6842      6841      6843      6842      6841      6844
      6843      6841      6844      6841      6844      6845      6841      6844      6846
      6841      6844      6847      6845      6844      6846      6845      6844      6847
      6846      6844      6847      6824      6847      6844      6824      6847      6848
      6824      6847      6849      6844      6847      6848      6844      6847      6849
      6848      6847      6849      6818      6849      6847      6818      6849      6850
      6818      6849      6854      6847      6849      6850      6847      6849      6854
      6850      6849      6854      6849      6850      6851      6849      6850      6852
      6849      6850      6853      6851      6850      6852      6851      6850      6853
      6852      6850      6853      6849      6854      6855      6849      6854      6856
      6849      6854      6857      6855      6854      6856      6855      6854      6857
      6856      6854      6857      6811      6857      6854      6811      6857      6858
      6811      6857      6859      6854      6857      6858      6854      6857      6859
      6858      6857      6859      6834      6860      6861      6834      6860      6862
      6834      6860      6866      6861      6860      6862      6861      6860      6866
      6862      6860      6866      6860      6862      6863      6860      6862      6864
      6860      6862      6865      6863      6862      6864      6863      6862      6865
      6864      6862      6865      6860      6866      6867      6860      6866      6868
      6860      6866      6869      6867      6866      6868      6867      6866      6869
      6868      6866      6869      6866      6869      6870      6866      6869      6871
      6866      6869      6872      6870      6869      6871      6870      6869      6872
      6871      6869      6872      6869      6872      6873      6869      6872      6874
      6869      6872      6875      6873      6872      6874      6873      6872      6875
      6874      6872      6875      6872      6875      6876      6872      6875      6877
      6872      6875      6881      6876      6875      6877      6876      6875      6881
      6877      6875      6881      6875      6877      6878      6875      6877      6879
      6875      6877      6880      6878      6877      6879      6878      6877      6880
      6879      6877      6880      6875      6881      6882      6875      6881      6883
      6875      6881      6884      6882      6881      6883      6882      6881      6884
      6883      6881      6884      6886      6885      6887      6886      6885      6889
      6886      6885      6931      6887      6885      6889      6887      6885      6931
      6889      6885      6931      6885      6887      6888      6885      6889      6890
      6885      6889      6891      6885      6889      6892      6890      6889      6891
      6890      6889      6892      6891      6889      6892      6889      6892      6893
      6889      6892      6923      6893      6892      6923      6892      6893      6894
      6892      6893      6895      6894      6893      6895      6893      6895      6896
      6893      6895      6897      6893      6895      6898      6896      6895      6897
      6896      6895      6898      6897      6895      6898      6895      6898      6899
      6895      6898      6900      6895      6898      6921      6899      6898      6900
      6899      6898      6921      6900      6898      6921      6898      6900      6901
      6898      6900      6902      6898      6900      6910      6901      6900      6902
      6901      6900      6910      6902      6900      6910      6900      6902      6903
      6900      6902      6904      6900      6902      6905      6903      6902      6904
      6903      6902      6905      6904      6902      6905      6902      6905      6906
      6902      6905      6907      6902      6905      6908      6906      6905      6907
      6906      6905      6908      6907      6905      6908      6905      6908      6909
      6905      6908      6910      6905      6908      6934      6909      6908      6910
      6909      6908      6934      6910      6908      6934      6900      6910      6908
      6900      6910      6911      6900      6910      6915      6908      6910      6911
      6908      6910      6915      6911      6910      6915      6910      6911      6912
      6910      6911      6913      6910      6911      6914      6912      6911      6913
      6912      6911      6914      6913      6911      6914      6910      6915      6916
      6910      6915      6917      6910      6915      6918      6916      6915      6917
      6916      6915      6918      6917      6915      6918      6915      6918      6919
      6915      6918      6920      6915      6918      6921      6919      6918      6920
      6919      6918      6921      6920      6918      6921      6898      6921      6918
      6898      6921      6922      6898      6921      6923      6918      6921      6922
      6918      6921      6923      6922      6921      6923      6892      6923      6921
      6892      6923      6924      6892      6923      6928      6921      6923      6924
      6921      6923      6928      6924      6923      6928      6923      6924      6925
      6923      6924      6926      6923      6924      6927      6925      6924      6926
      6925      6924      6927      6926      6924      6927      6923      6928      6929
      6923      6928      6930      6923      6928      6931      6929      6928      6930
      6929      6928      6931      6930      6928      6931      6885      6931      6928
      6885      6931      6932      6885      6931      6933      6928      6931      6932
      6928      6931      6933      6932      6931      6933      6908      6934      6935
      6908      6934      6936      6908      6934      6940      6935      6934      6936
      6935      6934      6940      6936      6934      6940      6934      6936      6937
      6934      6936      6938      6934      6936      6939      6937      6936      6938
      6937      6936      6939      6938      6936      6939      6934      6940      6941
      6934      6940      6942      6934      6940      6943      6941      6940      6942
      6941      6940      6943      6942      6940      6943      6940      6943      6944
      6940      6943      6945      6940      6943      6946      6944      6943      6945
      6944      6943      6946      6945      6943      6946      6943      6946      6947
      6943      6946      6948      6943      6946      6949      6947      6946      6948
      6947      6946      6949      6948      6946      6949      6946      6949      6950
      6946      6949      6951      6946      6949      6955      6950      6949      6951
      6950      6949      6955      6951      6949      6955      6949      6951      6952
      6949      6951      6953      6949      6951      6954      6952      6951      6953
      6952      6951      6954      6953      6951      6954      6949      6955      6956
      6949      6955      6957      6949      6955      6958      6956      6955      6957
      6956      6955      6958      6957      6955      6958     11019     11018     11020
     11019     11018     11022     11019     11018     11038     11020     11018     11022
     11020     11018     11038     11022     11018     11038     11018     11020     11021
     11018     11022     11023     11018     11022     11024     11018     11022     11026
     11023     11022     11024     11023     11022     11026     11024     11022     11026
     11022     11024     11025     11022     11026     11027     11022     11026     11028
     11022     11026     11030     11027     11026     11028     11027     11026     11030
     11028     11026     11030     11026     11028     11029     11026     11030     11031
     11026     11030     11032     11026     11030     11034     11031     11030     11032
     11031     11030     11034     11032     11030     11034     11030     11032     11033
     11030     11034     11035     11030     11034     11036     11030     11034     11038
     11035     11034     11036     11035     11034     11038     11036     11034     11038
     11034     11036     11037     11018     11038     11034     11018     11038     11039
     11018     11038     11043     11034     11038     11039     11034     11038     11043
     11039     11038     11043     11041     11040     11042     11041     11040     11043
     11041     11040     11044     11042     11040     11043     11042     11040     11044
     11043     11040     11044     11038     11043     11040     11040     11044     11045
     11044     11045     11046     11044     11045     11047     11044     11045     11048
     11046     11045     11047     11046     11045     11048     11047     11045     11048
     11045     11048     11049     11045     11048     11050     11045     11048     11056
     11049     11048     11050     11049     11048     11056     11050     11048     11056
     11048     11050     11051     11050     11051     11052     11050     11051     11053
     11052     11051     11053     11051     11053     11054     11051     11053     11055
     11051     11053     11065     11054     11053     11055     11054     11053     11065
     11055     11053     11065     11048     11056     11057     11048     11056     11058
     11048     11056     11059     11057     11056     11058     11057     11056     11059
     11058     11056     11059     11056     11059     11060     11059     11060     11061
     11059     11060     11062     11061     11060     11062     11060     11062     11063
     11060     11062     11064     11060     11062     11112     11063     11062     11064
     11063     11062     11112     11064     11062     11112     11053     11065     11066
     11053     11065     11067     11053     11065     11068     11066     11065     11067
     11066     11065     11068     11067     11065     11068     11065     11068     11069
     11065     11068     11070     11065     11068     11071     11069     11068     11070
     11069     11068     11071     11070     11068     11071     11068     11071     11072
     11068     11071     11073     11072     11071     11073     11071     11073     11074
     11071     11073     11075     11074     11073     11075     11073     11075     11076
     11073     11075     11077     11073     11075     11078     11076     11075     11077
     11076     11075     11078     11077     11075     11078     11075     11078     11079
     11075     11078     11080     11079     11078     11080     11078     11080     11081
     11078     11080     11082     11081     11080     11082     11080     11082     11083
     11080     11082     11084     11080     11082     11085     11083     11082     11084
     11083     11082     11085     11084     11082     11085     11082     11085     11086
     11082     11085     11087     11086     11085     11087     11085     11087     11088
     11085     11087     11089     11088     11087     11089     11087     11089     11090
     11087     11089     11091     11087     11089     11092     11090     11089     11091
     11090     11089     11092     11091     11089     11092     11089     11092     11093
     11089     11092     11094     11093     11092     11094     11092     11094     11095
     11092     11094     11096     11095     11094     11096     11094     11096     11097
     11094     11096     11098     11094     11096     11099     11097     11096     11098
     11097     11096     11099     11098     11096     11099     11096     11099     11100
     11096     11099     11101     11096     11099     11102     11100     11099     11101
     11100     11099     11102     11101     11099     11102     11099     11102     11103
     11099     11102     11104     11099     11102     11105     11103     11102     11104
     11103     11102     11105     11104     11102     11105     11102     11105     11106
     11102     11105     11107     11102     11105     11108     11106     11105     11107
     11106     11105     11108     11107     11105     11108     11105     11108     11109
     11105     11108     11110     11105     11108     11111     11109     11108     11110
     11109     11108     11111     11110     11108     11111     11062     11112     11113
     11062     11112     11114     11062     11112     11115     11113     11112     11114
     11113     11112     11115     11114     11112     11115     11112     11115     11116
     11112     11115     11117     11112     11115     11118     11116     11115     11117
     11116     11115     11118     11117     11115     11118     11115     11118     11119
     11115     11118     11120     11115     11118     11121     11119     11118     11120
     11119     11118     11121     11120     11118     11121     11118     11121     11122
     11118     11121     11123     11118     11121     11124     11122     11121     11123
     11122     11121     11124     11123     11121     11124     11121     11124     11125
     11121     11124     11126     11121     11124     11127     11125     11124     11126
     11125     11124     11127     11126     11124     11127     11124     11127     11128
     11124     11127     11129     11124     11127     11130     11128     11127     11129
     11128     11127     11130     11129     11127     11130     11127     11130     11131
     11127     11130     11132     11127     11130     11133     11131     11130     11132
     11131     11130     11133     11132     11130     11133     11130     11133     11134
     11130     11133     11135     11130     11133     11136     11134     11133     11135
     11134     11133     11136     11135     11133     11136     11133     11136     11137
     11133     11136     11138     11133     11136     11139     11137     11136     11138
     11137     11136     11139     11138     11136     11139     11136     11139     11140
     11136     11139     11141     11136     11139     11142     11140     11139     11141
     11140     11139     11142     11141     11139     11142     11139     11142     11143
     11139     11142     11144     11139     11142     11145     11143     11142     11144
     11143     11142     11145     11144     11142     11145     11142     11145     11146
     11142     11145     11147     11142     11145     11148     11146     11145     11147
     11146     11145     11148     11147     11145     11148     11145     11148     11149
     11145     11148     11150     11145     11148     11151     11149     11148     11150
     11149     11148     11151     11150     11148     11151     11148     11151     11152
     11148     11151     11153     11148     11151     11154     11152     11151     11153
     11152     11151     11154     11153     11151     11154     11151     11154     11155
     11151     11154     11156     11151     11154     11157     11155     11154     11156
     11155     11154     11157     11156     11154     11157     11154     11157     11158
     11154     11157     11159     11154     11157     11160     11158     11157     11159
     11158     11157     11160     11159     11157     11160      6960      6959      6961
      6960      6959      6963      6960      6959      7005      6961      6959      6963
      6961      6959      7005      6963      6959      7005      6959      6961      6962
      6959      6963      6964      6959      6963      6965      6959      6963      6966
      6964      6963      6965      6964      6963      6966      6965      6963      6966
      6963      6966      6967      6963      6966      6997      6967      6966      6997
      6966      6967      6968      6966      6967      6969      6968      6967      6969
      6967      6969      6970      6967      6969      6971      6967      6969      6972
      6970      6969      6971      6970      6969      6972      6971      6969      6972
      6969      6972      6973      6969      6972      6974      6969      6972      6995
      6973      6972      6974      6973      6972      6995      6974      6972      6995
      6972      6974      6975      6972      6974      6976      6972      6974      6984
      6975      6974      6976      6975      6974      6984      6976      6974      6984
      6974      6976      6977      6974      6976      6978      6974      6976      6979
      6977      6976      6978      6977      6976      6979      6978      6976      6979
      6976      6979      6980      6976      6979      6981      6976      6979      6982
      6980      6979      6981      6980      6979      6982      6981      6979      6982
      6979      6982      6983      6979      6982      6984      6979      6982      7008
      6983      6982      6984      6983      6982      7008      6984      6982      7008
      6974      6984      6982      6974      6984      6985      6974      6984      6989
      6982      6984      6985      6982      6984      6989      6985      6984      6989
      6984      6985      6986      6984      6985      6987      6984      6985      6988
      6986      6985      6987      6986      6985      6988      6987      6985      6988
      6984      6989      6990      6984      6989      6991      6984      6989      6992
      6990      6989      6991      6990      6989      6992      6991      6989      6992
      6989      6992      6993      6989      6992      6994      6989      6992      6995
      6993      6992      6994      6993      6992      6995      6994      6992      6995
      6972      6995      6992      6972      6995      6996      6972      6995      6997
      6992      6995      6996      6992      6995      6997      6996      6995      6997
      6966      6997      6995      6966      6997      6998      6966      6997      7002
      6995      6997      6998      6995      6997      7002      6998      6997      7002
      6997      6998      6999      6997      6998      7000      6997      6998      7001
      6999      6998      7000      6999      6998      7001      7000      6998      7001
      6997      7002      7003      6997      7002      7004      6997      7002      7005
      7003      7002      7004      7003      7002      7005      7004      7002      7005
      6959      7005      7002      6959      7005      7006      6959      7005      7007
      7002      7005      7006      7002      7005      7007      7006      7005      7007
      6982      7008      7009      6982      7008      7010      6982      7008      7014
      7009      7008      7010      7009      7008      7014      7010      7008      7014
      7008      7010      7011      7008      7010      7012      7008      7010      7013
      7011      7010      7012      7011      7010      7013      7012      7010      7013
      7008      7014      7015      7008      7014      7016      7008      7014      7017
      7015      7014      7016      7015      7014      7017      7016      7014      7017
      7014      7017      7018      7014      7017      7019      7014      7017      7020
      7018      7017      7019      7018      7017      7020      7019      7017      7020
      7017      7020      7021      7017      7020      7022      7017      7020      7023
      7021      7020      7022      7021      7020      7023      7022      7020      7023
      7020      7023      7024      7020      7023      7025      7020      7023      7029
      7024      7023      7025      7024      7023      7029      7025      7023      7029
      7023      7025      7026      7023      7025      7027      7023      7025      7028
      7026      7025      7027      7026      7025      7028      7027      7025      7028
      7023      7029      7030      7023      7029      7031      7023      7029      7032
      7030      7029      7031      7030      7029      7032      7031      7029      7032
     10745     10744     10746     10745     10744     10747     10745     10744     10748
     10746     10744     10747     10746     10744     10748     10747     10744     10748
     10744     10748     10749     10744     10748     10750     10744     10748     10751
     10749     10748     10750     10749     10748     10751     10750     10748     10751
     10748     10751     10752     10748     10751     10753     10748     10751     10757
     10752     10751     10753     10752     10751     10757     10753     10751     10757
     10755     10754     10756     10755     10754     10757     10755     10754     10758
     10756     10754     10757     10756     10754     10758     10757     10754     10758
     10751     10757     10754     10754     10758     10759     10758     10759     10760
     10758     10759     10761     10758     10759     10762     10760     10759     10761
     10760     10759     10762     10761     10759     10762     10759     10762     10763
     10759     10762     10764     10759     10762     10770     10763     10762     10764
     10763     10762     10770     10764     10762     10770     10762     10764     10765
     10764     10765     10766     10764     10765     10767     10766     10765     10767
     10765     10767     10768     10765     10767     10769     10765     10767     10779
     10768     10767     10769     10768     10767     10779     10769     10767     10779
     10762     10770     10771     10762     10770     10772     10762     10770     10773
     10771     10770     10772     10771     10770     10773     10772     10770     10773
     10770     10773     10774     10773     10774     10775     10773     10774     10776
     10775     10774     10776     10774     10776     10777     10774     10776     10778
     10774     10776     10826     10777     10776     10778     10777     10776     10826
     10778     10776     10826     10767     10779     10780     10767     10779     10781
     10767     10779     10782     10780     10779     10781     10780     10779     10782
     10781     10779     10782     10779     10782     10783     10779     10782     10784
     10779     10782     10785     10783     10782     10784     10783     10782     10785
     10784     10782     10785     10782     10785     10786     10782     10785     10787
     10782     10785     10788     10786     10785     10787     10786     10785     10788
     10787     10785     10788     10785     10788     10789     10785     10788     10790
     10785     10788     10791     10789     10788     10790     10789     10788     10791
     10790     10788     10791     10788     10791     10792     10788     10791     10793
     10788     10791     10794     10792     10791     10793     10792     10791     10794
     10793     10791     10794     10791     10794     10795     10791     10794     10796
     10791     10794     10797     10795     10794     10796     10795     10794     10797
     10796     10794     10797     10794     10797     10798     10794     10797     10799
     10798     10797     10799     10797     10799     10800     10797     10799     10801
     10800     10799     10801     10799     10801     10802     10799     10801     10803
     10799     10801     10804     10802     10801     10803     10802     10801     10804
     10803     10801     10804     10801     10804     10805     10801     10804     10806
     10801     10804     10807     10805     10804     10806     10805     10804     10807
     10806     10804     10807     10804     10807     10808     10804     10807     10809
     10804     10807     10810     10808     10807     10809     10808     10807     10810
     10809     10807     10810     10807     10810     10811     10807     10810     10812
     10807     10810     10813     10811     10810     10812     10811     10810     10813
     10812     10810     10813     10810     10813     10814     10810     10813     10815
     10810     10813     10816     10814     10813     10815     10814     10813     10816
     10815     10813     10816     10813     10816     10817     10813     10816     10818
     10813     10816     10819     10817     10816     10818     10817     10816     10819
     10818     10816     10819     10816     10819     10820     10816     10819     10821
     10816     10819     10822     10820     10819     10821     10820     10819     10822
     10821     10819     10822     10819     10822     10823     10819     10822     10824
     10819     10822     10825     10823     10822     10824     10823     10822     10825
     10824     10822     10825     10776     10826     10827     10776     10826     10828
     10776     10826     10829     10827     10826     10828     10827     10826     10829
     10828     10826     10829     10826     10829     10830     10826     10829     10831
     10826     10829     10832     10830     10829     10831     10830     10829     10832
     10831     10829     10832     10829     10832     10833     10829     10832     10834
     10829     10832     10835     10833     10832     10834     10833     10832     10835
     10834     10832     10835     10832     10835     10836     10832     10835     10837
     10832     10835     10838     10836     10835     10837     10836     10835     10838
     10837     10835     10838     10835     10838     10839     10835     10838     10840
     10835     10838     10841     10839     10838     10840     10839     10838     10841
     10840     10838     10841     10838     10841     10842     10838     10841     10843
     10838     10841     10844     10842     10841     10843     10842     10841     10844
     10843     10841     10844     10841     10844     10845     10841     10844     10846
     10841     10844     10847     10845     10844     10846     10845     10844     10847
     10846     10844     10847     10844     10847     10848     10844     10847     10849
     10844     10847     10850     10848     10847     10849     10848     10847     10850
     10849     10847     10850     10847     10850     10851     10847     10850     10852
     10847     10850     10853     10851     10850     10852     10851     10850     10853
     10852     10850     10853     10850     10853     10854     10850     10853     10855
     10850     10853     10856     10854     10853     10855     10854     10853     10856
     10855     10853     10856     10853     10856     10857     10853     10856     10858
     10853     10856     10859     10857     10856     10858     10857     10856     10859
     10858     10856     10859     10856     10859     10860     10856     10859     10861
     10856     10859     10862     10860     10859     10861     10860     10859     10862
     10861     10859     10862     10859     10862     10863     10859     10862     10864
     10859     10862     10865     10863     10862     10864     10863     10862     10865
     10864     10862     10865     10862     10865     10866     10862     10865     10867
     10862     10865     10868     10866     10865     10867     10866     10865     10868
     10867     10865     10868     10865     10868     10869     10865     10868     10870
     10865     10868     10871     10869     10868     10870     10869     10868     10871
     10870     10868     10871     10868     10871     10872     10868     10871     10873
     10868     10871     10874     10872     10871     10873     10872     10871     10874
     10873     10871     10874      2229      2228      2233      2229      2228      2237
      2229      2228      2241      2233      2228      2237      2233      2228      2241
      2237      2228      2241      2228      2229      2230      2228      2229      2231
      2228      2229      2232      2230      2229      2231      2230      2229      2232
      2231      2229      2232      2228      2233      2234      2228      2233      2235
      2228      2233      2236      2234      2233      2235      2234      2233      2236
      2235      2233      2236      2228      2237      2238      2228      2237      2239
      2228      2237      2240      2238      2237      2239      2238      2237      2240
      2239      2237      2240      2228      2241      2242      2228      2241      2243
      2228      2241      2244      2242      2241      2243      2242      2241      2244
      2243      2241      2244      2241      2244      2245      2241      2244      2246
      2241      2244      2251      2245      2244      2246      2245      2244      2251
      2246      2244      2251      2248      2247      2249      2248      2247      2250
      2248      2247      2251      2249      2247      2250      2249      2247      2251
      2250      2247      2251      2247      2250      2252      2244      2251      2247
      2250      2252      2253      2250      2252      2254      2250      2252      2257
      2253      2252      2254      2253      2252      2257      2254      2252      2257
      2256      2255      2257      2256      2255      2307      2257      2255      2307
      2252      2257      2255      2252      2257      2258      2252      2257      2259
      2255      2257      2258      2255      2257      2259      2258      2257      2259
      2257      2259      2260      2257      2259      2261      2257      2259      2263
      2260      2259      2261      2260      2259      2263      2261      2259      2263
      2259      2261      2262      2259      2263      2264      2259      2263      2265
      2264      2263      2265      2263      2265      2266      2263      2265      2267
      2266      2265      2267      2265      2267      2268      2265      2267      2269
      2265      2267      2270      2268      2267      2269      2268      2267      2270
      2269      2267      2270      2267      2270      2271      2267      2270      2272
      2267      2270      2273      2271      2270      2272      2271      2270      2273
      2272      2270      2273      2270      2273      2274      2270      2273      2275
      2270      2273      2276      2274      2273      2275      2274      2273      2276
      2275      2273      2276      2273      2276      2277      2273      2276      2278
      2273      2276      2279      2277      2276      2278      2277      2276      2279
      2278      2276      2279      2276      2279      2280      2276      2279      2281
      2276      2279      2282      2280      2279      2281      2280      2279      2282
      2281      2279      2282      2279      2282      2283      2279      2282      2284
      2279      2282      2285      2283      2282      2284      2283      2282      2285
      2284      2282      2285      2282      2285      2286      2282      2285      2287
      2282      2285      2288      2286      2285      2287      2286      2285      2288
      2287      2285      2288      2285      2288      2289      2285      2288      2290
      2285      2288      2291      2289      2288      2290      2289      2288      2291
      2290      2288      2291      2288      2291      2292      2288      2291      2293
      2288      2291      2294      2292      2291      2293      2292      2291      2294
      2293      2291      2294      2291      2294      2295      2291      2294      2296
      2291      2294      2297      2295      2294      2296      2295      2294      2297
      2296      2294      2297      2294      2297      2298      2294      2297      2299
      2294      2297      2300      2298      2297      2299      2298      2297      2300
      2299      2297      2300      2297      2300      2301      2297      2300      2302
      2297      2300      2303      2301      2300      2302      2301      2300      2303
      2302      2300      2303      2300      2303      2304      2300      2303      2305
      2300      2303      2306      2304      2303      2305      2304      2303      2306
      2305      2303      2306      2255      2307      2308      2255      2307      2309
      2308      2307      2309      2307      2309      2310      2307      2309      2311
      2307      2309      2312      2310      2309      2311      2310      2309      2312
      2311      2309      2312      2309      2312      2313      2309      2312      2314
      2309      2312      2315      2313      2312      2314      2313      2312      2315
      2314      2312      2315      2312      2315      2316      2312      2315      2317
      2312      2315      2318      2316      2315      2317      2316      2315      2318
      2317      2315      2318      2315      2318      2319      2315      2318      2320
      2315      2318      2321      2319      2318      2320      2319      2318      2321
      2320      2318      2321      2318      2321      2322      2318      2321      2323
      2318      2321      2324      2322      2321      2323      2322      2321      2324
      2323      2321      2324      2321      2324      2325      2321      2324      2326
      2321      2324      2327      2325      2324      2326      2325      2324      2327
      2326      2324      2327      2324      2327      2328      2324      2327      2329
      2324      2327      2330      2328      2327      2329      2328      2327      2330
      2329      2327      2330      2327      2330      2331      2327      2330      2332
      2331      2330      2332      2330      2332      2333      2330      2332      2334
      2333      2332      2334      2332      2334      2335      2332      2334      2336
      2332      2334      2337      2335      2334      2336      2335      2334      2337
      2336      2334      2337      2334      2337      2338      2334      2337      2339
      2334      2337      2340      2338      2337      2339      2338      2337      2340
      2339      2337      2340      2337      2340      2341      2337      2340      2342
      2337      2340      2343      2341      2340      2342      2341      2340      2343
      2342      2340      2343      2340      2343      2344      2340      2343      2345
      2340      2343      2346      2344      2343      2345      2344      2343      2346
      2345      2343      2346      2343      2346      2347      2343      2346      2348
      2343      2346      2349      2347      2346      2348      2347      2346      2349
      2348      2346      2349      2346      2349      2350      2346      2349      2351
      2346      2349      2352      2350      2349      2351      2350      2349      2352
      2351      2349      2352      2349      2352      2353      2349      2352      2354
      2349      2352      2355      2353      2352      2354      2353      2352      2355
      2354      2352      2355      2352      2355      2356      2352      2355      2357
      2352      2355      2358      2356      2355      2357      2356      2355      2358
      2357      2355      2358      3158      3157      3159      3158      3157      3160
      3158      3157      3161      3159      3157      3160      3159      3157      3161
      3160      3157      3161      3157      3161      3162      3157      3161      3163
      3157      3161      3166      3162      3161      3163      3162      3161      3166
      3163      3161      3166      3161      3163      3164      3161      3163      3165
      3164      3163      3165      3161      3166      3167      3161      3166      3168
      3161      3166      3172      3167      3166      3168      3167      3166      3172
      3168      3166      3172      3170      3169      3171      3170      3169      3172
      3170      3169      3173      3171      3169      3172      3171      3169      3173
      3172      3169      3173      3166      3172      3169      3169      3173      3174
      3173      3174      3175      3173      3174      3176      3173      3174      3177
      3175      3174      3176      3175      3174      3177      3176      3174      3177
      3174      3177      3178      3174      3177      3179      3174      3177      3185
      3178      3177      3179      3178      3177      3185      3179      3177      3185
      3177      3179      3180      3179      3180      3181      3179      3180      3182
      3181      3180      3182      3180      3182      3183      3180      3182      3184
      3180      3182      3194      3183      3182      3184      3183      3182      3194
      3184      3182      3194      3177      3185      3186      3177      3185      3187
      3177      3185      3188      3186      3185      3187      3186      3185      3188
      3187      3185      3188      3185      3188      3189      3188      3189      3190
      3188      3189      3191      3190      3189      3191      3189      3191      3192
      3189      3191      3193      3189      3191      3241      3192      3191      3193
      3192      3191      3241      3193      3191      3241      3182      3194      3195
      3182      3194      3196      3182      3194      3197      3195      3194      3196
      3195      3194      3197      3196      3194      3197      3194      3197      3198
      3194      3197      3199      3194      3197      3200      3198      3197      3199
      3198      3197      3200      3199      3197      3200      3197      3200      3201
      3197      3200      3202      3201      3200      3202      3200      3202      3203
      3200      3202      3204      3203      3202      3204      3202      3204      3205
      3202      3204      3206      3202      3204      3207      3205      3204      3206
      3205      3204      3207      3206      3204      3207      3204      3207      3208
      3204      3207      3209      3208      3207      3209      3207      3209      3210
      3207      3209      3211      3210      3209      3211      3209      3211      3212
      3209      3211      3213      3209      3211      3214      3212      3211      3213
      3212      3211      3214      3213      3211      3214      3211      3214      3215
      3211      3214      3216      3215      3214      3216      3214      3216      3217
      3214      3216      3218      3217      3216      3218      3216      3218      3219
      3216      3218      3220      3216      3218      3221      3219      3218      3220
      3219      3218      3221      3220      3218      3221      3218      3221      3222
      3218      3221      3223      3222      3221      3223      3221      3223      3224
      3221      3223      3225      3224      3223      3225      3223      3225      3226
      3223      3225      3227      3223      3225      3228      3226      3225      3227
      3226      3225      3228      3227      3225      3228      3225      3228      3229
      3225      3228      3230      3225      3228      3231      3229      3228      3230
      3229      3228      3231      3230      3228      3231      3228      3231      3232
      3228      3231      3233      3228      3231      3234      3232      3231      3233
      3232      3231      3234      3233      3231      3234      3231      3234      3235
      3231      3234      3236      3231      3234      3237      3235      3234      3236
      3235      3234      3237      3236      3234      3237      3234      3237      3238
      3234      3237      3239      3234      3237      3240      3238      3237      3239
      3238      3237      3240      3239      3237      3240      3191      3241      3242
      3191      3241      3243      3191      3241      3244      3242      3241      3243
      3242      3241      3244      3243      3241      3244      3241      3244      3245
      3241      3244      3246      3241      3244      3247      3245      3244      3246
      3245      3244      3247      3246      3244      3247      3244      3247      3248
      3244      3247      3249      3244      3247      3250      3248      3247      3249
      3248      3247      3250      3249      3247      3250      3247      3250      3251
      3247      3250      3252      3247      3250      3253      3251      3250      3252
      3251      3250      3253      3252      3250      3253      3250      3253      3254
      3250      3253      3255      3250      3253      3256      3254      3253      3255
      3254      3253      3256      3255      3253      3256      3253      3256      3257
      3253      3256      3258      3253      3256      3259      3257      3256      3258
      3257      3256      3259      3258      3256      3259      3256      3259      3260
      3256      3259      3261      3256      3259      3262      3260      3259      3261
      3260      3259      3262      3261      3259      3262      3259      3262      3263
      3259      3262      3264      3259      3262      3265      3263      3262      3264
      3263      3262      3265      3264      3262      3265      3262      3265      3266
      3262      3265      3267      3262      3265      3268      3266      3265      3267
      3266      3265      3268      3267      3265      3268      3265      3268      3269
      3265      3268      3270      3265      3268      3271      3269      3268      3270
      3269      3268      3271      3270      3268      3271      3268      3271      3272
      3268      3271      3273      3268      3271      3274      3272      3271      3273
      3272      3271      3274      3273      3271      3274      3271      3274      3275
      3271      3274      3276      3271      3274      3277      3275      3274      3276
      3275      3274      3277      3276      3274      3277      3274      3277      3278
      3274      3277      3279      3274      3277      3280      3278      3277      3279
      3278      3277      3280      3279      3277      3280      3277      3280      3281
      3277      3280      3282      3277      3280      3283      3281      3280      3282
      3281      3280      3283      3282      3280      3283      3280      3283      3284
      3280      3283      3285      3280      3283      3286      3284      3283      3285
      3284      3283      3286      3285      3283      3286      3283      3286      3287
      3283      3286      3288      3283      3286      3289      3287      3286      3288
      3287      3286      3289      3288      3286      3289      7034      7033      7035
      7034      7033      7037      7034      7033      7079      7035      7033      7037
      7035      7033      7079      7037      7033      7079      7033      7035      7036
      7033      7037      7038      7033      7037      7039      7033      7037      7040
      7038      7037      7039      7038      7037      7040      7039      7037      7040
      7037      7040      7041      7037      7040      7071      7041      7040      7071
      7040      7041      7042      7040      7041      7043      7042      7041      7043
      7041      7043      7044      7041      7043      7045      7041      7043      7046
      7044      7043      7045      7044      7043      7046      7045      7043      7046
      7043      7046      7047      7043      7046      7048      7043      7046      7069
      7047      7046      7048      7047      7046      7069      7048      7046      7069
      7046      7048      7049      7046      7048      7050      7046      7048      7058
      7049      7048      7050      7049      7048      7058      7050      7048      7058
      7048      7050      7051      7048      7050      7052      7048      7050      7053
      7051      7050      7052      7051      7050      7053      7052      7050      7053
      7050      7053      7054      7050      7053      7055      7050      7053      7056
      7054      7053      7055      7054      7053      7056      7055      7053      7056
      7053      7056      7057      7053      7056      7058      7053      7056      7082
      7057      7056      7058      7057      7056      7082      7058      7056      7082
      7048      7058      7056      7048      7058      7059      7048      7058      7063
      7056      7058      7059      7056      7058      7063      7059      7058      7063
      7058      7059      7060      7058      7059      7061      7058      7059      7062
      7060      7059      7061      7060      7059      7062      7061      7059      7062
      7058      7063      7064      7058      7063      7065      7058      7063      7066
      7064      7063      7065      7064      7063      7066      7065      7063      7066
      7063      7066      7067      7063      7066      7068      7063      7066      7069
      7067      7066      7068      7067      7066      7069      7068      7066      7069
      7046      7069      7066      7046      7069      7070      7046      7069      7071
      7066      7069      7070      7066      7069      7071      7070      7069      7071
      7040      7071      7069      7040      7071      7072      7040      7071      7076
      7069      7071      7072      7069      7071      7076      7072      7071      7076
      7071      7072      7073      7071      7072      7074      7071      7072      7075
      7073      7072      7074      7073      7072      7075      7074      7072      7075
      7071      7076      7077      7071      7076      7078      7071      7076      7079
      7077      7076      7078      7077      7076      7079      7078      7076      7079
      7033      7079      7076      7033      7079      7080      7033      7079      7081
      7076      7079      7080      7076      7079      7081      7080      7079      7081
      7056      7082      7083      7056      7082      7084      7056      7082      7088
      7083      7082      7084      7083      7082      7088      7084      7082      7088
      7082      7084      7085      7082      7084      7086      7082      7084      7087
      7085      7084      7086      7085      7084      7087      7086      7084      7087
      7082      7088      7089      7082      7088      7090      7082      7088      7091
      7089      7088      7090      7089      7088      7091      7090      7088      7091
      7088      7091      7092      7088      7091      7093      7088      7091      7094
      7092      7091      7093      7092      7091      7094      7093      7091      7094
      7091      7094      7095      7091      7094      7096      7091      7094      7097
      7095      7094      7096      7095      7094      7097      7096      7094      7097
      7094      7097      7098      7094      7097      7099      7094      7097      7103
      7098      7097      7099      7098      7097      7103      7099      7097      7103
      7097      7099      7100      7097      7099      7101      7097      7099      7102
      7100      7099      7101      7100      7099      7102      7101      7099      7102
      7097      7103      7104      7097      7103      7105      7097      7103      7106
      7104      7103      7105      7104      7103      7106      7105      7103      7106
      4996      4995      4997      4996      4995      4998      4996      4995      4999
      4997      4995      4998      4997      4995      4999      4998      4995      4999
      4995      4999      5000      4995      4999      5001      4995      4999      5002
      5000      4999      5001      5000      4999      5002      5001      4999      5002
      4999      5002      5003      4999      5002      5004      4999      5002      5008
      5003      5002      5004      5003      5002      5008      5004      5002      5008
      5006      5005      5007      5006      5005      5008      5006      5005      5009
      5007      5005      5008      5007      5005      5009      5008      5005      5009
      5002      5008      5005      5005      5009      5010      5009      5010      5011
      5009      5010      5012      5009      5010      5013      5011      5010      5012
      5011      5010      5013      5012      5010      5013      5010      5013      5014
      5010      5013      5015      5010      5013      5021      5014      5013      5015
      5014      5013      5021      5015      5013      5021      5013      5015      5016
      5015      5016      5017      5015      5016      5018      5017      5016      5018
      5016      5018      5019      5016      5018      5020      5016      5018      5030
      5019      5018      5020      5019      5018      5030      5020      5018      5030
      5013      5021      5022      5013      5021      5023      5013      5021      5024
      5022      5021      5023      5022      5021      5024      5023      5021      5024
      5021      5024      5025      5024      5025      5026      5024      5025      5027
      5026      5025      5027      5025      5027      5028      5025      5027      5029
      5025      5027      5077      5028      5027      5029      5028      5027      5077
      5029      5027      5077      5018      5030      5031      5018      5030      5032
      5018      5030      5033      5031      5030      5032      5031      5030      5033
      5032      5030      5033      5030      5033      5034      5030      5033      5035
      5030      5033      5036      5034      5033      5035      5034      5033      5036
      5035      5033      5036      5033      5036      5037      5033      5036      5038
      5037      5036      5038      5036      5038      5039      5036      5038      5040
      5039      5038      5040      5038      5040      5041      5038      5040      5042
      5038      5040      5043      5041      5040      5042      5041      5040      5043
      5042      5040      5043      5040      5043      5044      5040      5043      5045
      5044      5043      5045      5043      5045      5046      5043      5045      5047
      5046      5045      5047      5045      5047      5048      5045      5047      5049
      5045      5047      5050      5048      5047      5049      5048      5047      5050
      5049      5047      5050      5047      5050      5051      5047      5050      5052
      5051      5050      5052      5050      5052      5053      5050      5052      5054
      5053      5052      5054      5052      5054      5055      5052      5054      5056
      5052      5054      5057      5055      5054      5056      5055      5054      5057
      5056      5054      5057      5054      5057      5058      5054      5057      5059
      5058      5057      5059      5057      5059      5060      5057      5059      5061
      5060      5059      5061      5059      5061      5062      5059      5061      5063
      5059      5061      5064      5062      5061      5063      5062      5061      5064
      5063      5061      5064      5061      5064      5065      5061      5064      5066
      5061      5064      5067      5065      5064      5066      5065      5064      5067
      5066      5064      5067      5064      5067      5068      5064      5067      5069
      5064      5067      5070      5068      5067      5069      5068      5067      5070
      5069      5067      5070      5067      5070      5071      5067      5070      5072
      5067      5070      5073      5071      5070      5072      5071      5070      5073
      5072      5070      5073      5070      5073      5074      5070      5073      5075
      5070      5073      5076      5074      5073      5075      5074      5073      5076
      5075      5073      5076      5027      5077      5078      5027      5077      5079
      5027      5077      5080      5078      5077      5079      5078      5077      5080
      5079      5077      5080      5077      5080      5081      5077      5080      5082
      5077      5080      5083      5081      5080      5082      5081      5080      5083
      5082      5080      5083      5080      5083      5084      5080      5083      5085
      5080      5083      5086      5084      5083      5085      5084      5083      5086
      5085      5083      5086      5083      5086      5087      5083      5086      5088
      5083      5086      5089      5087      5086      5088      5087      5086      5089
      5088      5086      5089      5086      5089      5090      5086      5089      5091
      5086      5089      5092      5090      5089      5091      5090      5089      5092
      5091      5089      5092      5089      5092      5093      5089      5092      5094
      5089      5092      5095      5093      5092      5094      5093      5092      5095
      5094      5092      5095      5092      5095      5096      5092      5095      5097
      5092      5095      5098      5096      5095      5097      5096      5095      5098
      5097      5095      5098      5095      5098      5099      5095      5098      5100
      5095      5098      5101      5099      5098      5100      5099      5098      5101
      5100      5098      5101      5098      5101      5102      5098      5101      5103
      5098      5101      5104      5102      5101      5103      5102      5101      5104
      5103      5101      5104      5101      5104      5105      5101      5104      5106
      5101      5104      5107      5105      5104      5106      5105      5104      5107
      5106      5104      5107      5104      5107      5108      5104      5107      5109
      5104      5107      5110      5108      5107      5109      5108      5107      5110
      5109      5107      5110      5107      5110      5111      5107      5110      5112
      5107      5110      5113      5111      5110      5112      5111      5110      5113
      5112      5110      5113      5110      5113      5114      5110      5113      5115
      5110      5113      5116      5114      5113      5115      5114      5113      5116
      5115      5113      5116      5113      5116      5117      5113      5116      5118
      5113      5116      5119      5117      5116      5118      5117      5116      5119
      5118      5116      5119      5116      5119      5120      5116      5119      5121
      5116      5119      5122      5120      5119      5121      5120      5119      5122
      5121      5119      5122      5119      5122      5123      5119      5122      5124
      5119      5122      5125      5123      5122      5124      5123      5122      5125
      5124      5122      5125      7108      7107      7109      7108      7107      7111
      7108      7107      7153      7109      7107      7111      7109      7107      7153
      7111      7107      7153      7107      7109      7110      7107      7111      7112
      7107      7111      7113      7107      7111      7114      7112      7111      7113
      7112      7111      7114      7113      7111      7114      7111      7114      7115
      7111      7114      7145      7115      7114      7145      7114      7115      7116
      7114      7115      7117      7116      7115      7117      7115      7117      7118
      7115      7117      7119      7115      7117      7120      7118      7117      7119
      7118      7117      7120      7119      7117      7120      7117      7120      7121
      7117      7120      7122      7117      7120      7143      7121      7120      7122
      7121      7120      7143      7122      7120      7143      7120      7122      7123
      7120      7122      7124      7120      7122      7132      7123      7122      7124
      7123      7122      7132      7124      7122      7132      7122      7124      7125
      7122      7124      7126      7122      7124      7127      7125      7124      7126
      7125      7124      7127      7126      7124      7127      7124      7127      7128
      7124      7127      7129      7124      7127      7130      7128      7127      7129
      7128      7127      7130      7129      7127      7130      7127      7130      7131
      7127      7130      7132      7127      7130      7156      7131      7130      7132
      7131      7130      7156      7132      7130      7156      7122      7132      7130
      7122      7132      7133      7122      7132      7137      7130      7132      7133
      7130      7132      7137      7133      7132      7137      7132      7133      7134
      7132      7133      7135      7132      7133      7136      7134      7133      7135
      7134      7133      7136      7135      7133      7136      7132      7137      7138
      7132      7137      7139      7132      7137      7140      7138      7137      7139
      7138      7137      7140      7139      7137      7140      7137      7140      7141
      7137      7140      7142      7137      7140      7143      7141      7140      7142
      7141      7140      7143      7142      7140      7143      7120      7143      7140
      7120      7143      7144      7120      7143      7145      7140      7143      7144
      7140      7143      7145      7144      7143      7145      7114      7145      7143
      7114      7145      7146      7114      7145      7150      7143      7145      7146
      7143      7145      7150      7146      7145      7150      7145      7146      7147
      7145      7146      7148      7145      7146      7149      7147      7146      7148
      7147      7146      7149      7148      7146      7149      7145      7150      7151
      7145      7150      7152      7145      7150      7153      7151      7150      7152
      7151      7150      7153      7152      7150      7153      7107      7153      7150
      7107      7153      7154      7107      7153      7155      7150      7153      7154
      7150      7153      7155      7154      7153      7155      7130      7156      7157
      7130      7156      7158      7130      7156      7162      7157      7156      7158
      7157      7156      7162      7158      7156      7162      7156      7158      7159
      7156      7158      7160      7156      7158      7161      7159      7158      7160
      7159      7158      7161      7160      7158      7161      7156      7162      7163
      7156      7162      7164      7156      7162      7165      7163      7162      7164
      7163      7162      7165      7164      7162      7165      7162      7165      7166
      7162      7165      7167      7162      7165      7168      7166      7165      7167
      7166      7165      7168      7167      7165      7168      7165      7168      7169
      7165      7168      7170      7165      7168      7171      7169      7168      7170
      7169      7168      7171      7170      7168      7171      7168      7171      7172
      7168      7171      7173      7168      7171      7177      7172      7171      7173
      7172      7171      7177      7173      7171      7177      7171      7173      7174
      7171      7173      7175      7171      7173      7176      7174      7173      7175
      7174      7173      7176      7175      7173      7176      7171      7177      7178
      7171      7177      7179      7171      7177      7180      7178      7177      7179
      7178      7177      7180      7179      7177      7180      8158      8157      8162
      8158      8157      8166      8158      8157      8170      8162      8157      8166
      8162      8157      8170      8166      8157      8170      8157      8158      8159
      8157      8158      8160      8157      8158      8161      8159      8158      8160
      8159      8158      8161      8160      8158      8161      8157      8162      8163
      8157      8162      8164      8157      8162      8165      8163      8162      8164
      8163      8162      8165      8164      8162      8165      8157      8166      8167
      8157      8166      8168      8157      8166      8169      8167      8166      8168
      8167      8166      8169      8168      8166      8169      8157      8170      8171
      8157      8170      8172      8157      8170      8173      8171      8170      8172
      8171      8170      8173      8172      8170      8173      8170      8173      8174
      8170      8173      8175      8170      8173      8179      8174      8173      8175
      8174      8173      8179      8175      8173      8179      8177      8176      8178
      8177      8176      8179      8177      8176      8180      8178      8176      8179
      8178      8176      8180      8179      8176      8180      8173      8179      8176
      8176      8180      8181      8180      8181      8182      8180      8181      8183
      8180      8181      8184      8182      8181      8183      8182      8181      8184
      8183      8181      8184      8181      8184      8185      8181      8184      8186
      8181      8184      8192      8185      8184      8186      8185      8184      8192
      8186      8184      8192      8184      8186      8187      8186      8187      8188
      8186      8187      8189      8188      8187      8189      8187      8189      8190
      8187      8189      8191      8187      8189      8201      8190      8189      8191
      8190      8189      8201      8191      8189      8201      8184      8192      8193
      8184      8192      8194      8184      8192      8195      8193      8192      8194
      8193      8192      8195      8194      8192      8195      8192      8195      8196
      8195      8196      8197      8195      8196      8198      8197      8196      8198
      8196      8198      8199      8196      8198      8200      8196      8198      8246
      8199      8198      8200      8199      8198      8246      8200      8198      8246
      8189      8201      8202      8189      8201      8203      8189      8201      8204
      8202      8201      8203      8202      8201      8204      8203      8201      8204
      8201      8204      8205      8201      8204      8206      8201      8204      8207
      8205      8204      8206      8205      8204      8207      8206      8204      8207
      8204      8207      8208      8204      8207      8209      8204      8207      8210
      8208      8207      8209      8208      8207      8210      8209      8207      8210
      8207      8210      8211      8207      8210      8212      8207      8210      8213
      8211      8210      8212      8211      8210      8213      8212      8210      8213
      8210      8213      8214      8210      8213      8215      8210      8213      8216
      8214      8213      8215      8214      8213      8216      8215      8213      8216
      8213      8216      8217      8213      8216      8218      8213      8216      8219
      8217      8216      8218      8217      8216      8219      8218      8216      8219
      8216      8219      8220      8216      8219      8221      8220      8219      8221
      8219      8221      8222      8219      8221      8223      8222      8221      8223
      8221      8223      8224      8221      8223      8225      8221      8223      8226
      8224      8223      8225      8224      8223      8226      8225      8223      8226
      8223      8226      8227      8223      8226      8228      8227      8226      8228
      8226      8228      8229      8226      8228      8230      8229      8228      8230
      8228      8230      8231      8228      8230      8232      8228      8230      8233
      8231      8230      8232      8231      8230      8233      8232      8230      8233
      8230      8233      8234      8230      8233      8235      8230      8233      8236
      8234      8233      8235      8234      8233      8236      8235      8233      8236
      8233      8236      8237      8233      8236      8238      8233      8236      8239
      8237      8236      8238      8237      8236      8239      8238      8236      8239
      8236      8239      8240      8236      8239      8241      8236      8239      8242
      8240      8239      8241      8240      8239      8242      8241      8239      8242
      8239      8242      8243      8239      8242      8244      8239      8242      8245
      8243      8242      8244      8243      8242      8245      8244      8242      8245
      8198      8246      8247      8198      8246      8248      8198      8246      8249
      8247      8246      8248      8247      8246      8249      8248      8246      8249
      8246      8249      8250      8246      8249      8251      8246      8249      8252
      8250      8249      8251      8250      8249      8252      8251      8249      8252
      8249      8252      8253      8249      8252      8254      8249      8252      8255
      8253      8252      8254      8253      8252      8255      8254      8252      8255
      8252      8255      8256      8252      8255      8257      8252      8255      8258
      8256      8255      8257      8256      8255      8258      8257      8255      8258
      8255      8258      8259      8255      8258      8260      8255      8258      8261
      8259      8258      8260      8259      8258      8261      8260      8258      8261
      8258      8261      8262      8258      8261      8263      8258      8261      8264
      8262      8261      8263      8262      8261      8264      8263      8261      8264
      8261      8264      8265      8261      8264      8266      8261      8264      8267
      8265      8264      8266      8265      8264      8267      8266      8264      8267
      8264      8267      8268      8264      8267      8269      8264      8267      8270
      8268      8267      8269      8268      8267      8270      8269      8267      8270
      8267      8270      8271      8267      8270      8272      8267      8270      8273
      8271      8270      8272      8271      8270      8273      8272      8270      8273
      8270      8273      8274      8270      8273      8275      8270      8273      8276
      8274      8273      8275      8274      8273      8276      8275      8273      8276
      8273      8276      8277      8273      8276      8278      8273      8276      8279
      8277      8276      8278      8277      8276      8279      8278      8276      8279
      8276      8279      8280      8276      8279      8281      8276      8279      8282
      8280      8279      8281      8280      8279      8282      8281      8279      8282
      8279      8282      8283      8279      8282      8284      8279      8282      8285
      8283      8282      8284      8283      8282      8285      8284      8282      8285
      8282      8285      8286      8282      8285      8287      8282      8285      8288
      8286      8285      8287      8286      8285      8288      8287      8285      8288
      8285      8288      8289      8285      8288      8290      8285      8288      8291
      8289      8288      8290      8289      8288      8291      8290      8288      8291
      8288      8291      8292      8288      8291      8293      8288      8291      8294
      8292      8291      8293      8292      8291      8294      8293      8291      8294
      9414      9413      9417      9414      9413      9421      9414      9413      9425
      9417      9413      9421      9417      9413      9425      9421      9413      9425
      9413      9414      9415      9413      9414      9416      9413      9414      9429
      9415      9414      9416      9415      9414      9429      9416      9414      9429
      9413      9417      9418      9413      9417      9419      9413      9417      9420
      9418      9417      9419      9418      9417      9420      9419      9417      9420
      9413      9421      9422      9413      9421      9423      9413      9421      9424
      9422      9421      9423      9422      9421      9424      9423      9421      9424
      9413      9425      9426      9413      9425      9427      9413      9425      9428
      9426      9425      9427      9426      9425      9428      9427      9425      9428
      9414      9429      9430      9414      9429      9431      9414      9429      9435
      9430      9429      9431      9430      9429      9435      9431      9429      9435
      9433      9432      9434      9433      9432      9435      9433      9432      9436
      9434      9432      9435      9434      9432      9436      9435      9432      9436
      9429      9435      9432      9432      9436      9437      9436      9437      9438
      9436      9437      9439      9436      9437      9440      9438      9437      9439
      9438      9437      9440      9439      9437      9440      9437      9440      9441
      9437      9440      9442      9437      9440      9448      9441      9440      9442
      9441      9440      9448      9442      9440      9448      9440      9442      9443
      9442      9443      9444      9442      9443      9445      9444      9443      9445
      9443      9445      9446      9443      9445      9447      9443      9445      9457
      9446      9445      9447      9446      9445      9457      9447      9445      9457
      9440      9448      9449      9440      9448      9450      9440      9448      9451
      9449      9448      9450      9449      9448      9451      9450      9448      9451
      9448      9451      9452      9451      9452      9453      9451      9452      9454
      9453      9452      9454      9452      9454      9455      9452      9454      9456
      9452      9454      9504      9455      9454      9456      9455      9454      9504
      9456      9454      9504      9445      9457      9458      9445      9457      9459
      9445      9457      9460      9458      9457      9459      9458      9457      9460
      9459      9457      9460      9457      9460      9461      9457      9460      9462
      9457      9460      9463      9461      9460      9462      9461      9460      9463
      9462      9460      9463      9460      9463      9464      9460      9463      9465
      9464      9463      9465      9463      9465      9466      9463      9465      9467
      9466      9465      9467      9465      9467      9468      9465      9467      9469
      9465      9467      9470      9468      9467      9469      9468      9467      9470
      9469      9467      9470      9467      9470      9471      9467      9470      9472
      9471      9470      9472      9470      9472      9473      9470      9472      9474
      9473      9472      9474      9472      9474      9475      9472      9474      9476
      9472      9474      9477      9475      9474      9476      9475      9474      9477
      9476      9474      9477      9474      9477      9478      9474      9477      9479
      9478      9477      9479      9477      9479      9480      9477      9479      9481
      9480      9479      9481      9479      9481      9482      9479      9481      9483
      9479      9481      9484      9482      9481      9483      9482      9481      9484
      9483      9481      9484      9481      9484      9485      9481      9484      9486
      9485      9484      9486      9484      9486      9487      9484      9486      9488
      9487      9486      9488      9486      9488      9489      9486      9488      9490
      9486      9488      9491      9489      9488      9490      9489      9488      9491
      9490      9488      9491      9488      9491      9492      9488      9491      9493
      9488      9491      9494      9492      9491      9493      9492      9491      9494
      9493      9491      9494      9491      9494      9495      9491      9494      9496
      9491      9494      9497      9495      9494      9496      9495      9494      9497
      9496      9494      9497      9494      9497      9498      9494      9497      9499
      9494      9497      9500      9498      9497      9499      9498      9497      9500
      9499      9497      9500      9497      9500      9501      9497      9500      9502
      9497      9500      9503      9501      9500      9502      9501      9500      9503
      9502      9500      9503      9454      9504      9505      9454      9504      9506
      9454      9504      9507      9505      9504      9506      9505      9504      9507
      9506      9504      9507      9504      9507      9508      9504      9507      9509
      9504      9507      9510      9508      9507      9509      9508      9507      9510
      9509      9507      9510      9507      9510      9511      9507      9510      9512
      9507      9510      9513      9511      9510      9512      9511      9510      9513
      9512      9510      9513      9510      9513      9514      9510      9513      9515
      9510      9513      9516      9514      9513      9515      9514      9513      9516
      9515      9513      9516      9513      9516      9517      9513      9516      9518
      9513      9516      9519      9517      9516      9518      9517      9516      9519
      9518      9516      9519      9516      9519      9520      9516      9519      9521
      9516      9519      9522      9520      9519      9521      9520      9519      9522
      9521      9519      9522      9519      9522      9523      9519      9522      9524
      9519      9522      9525      9523      9522      9524      9523      9522      9525
      9524      9522      9525      9522      9525      9526      9522      9525      9527
      9522      9525      9528      9526      9525      9527      9526      9525      9528
      9527      9525      9528      9525      9528      9529      9525      9528      9530
      9525      9528      9531      9529      9528      9530      9529      9528      9531
      9530      9528      9531      9528      9531      9532      9528      9531      9533
      9528      9531      9534      9532      9531      9533      9532      9531      9534
      9533      9531      9534      9531      9534      9535      9531      9534      9536
      9531      9534      9537      9535      9534      9536      9535      9534      9537
      9536      9534      9537      9534      9537      9538      9534      9537      9539
      9534      9537      9540      9538      9537      9539      9538      9537      9540
      9539      9537      9540      9537      9540      9541      9537      9540      9542
      9537      9540      9543      9541      9540      9542      9541      9540      9543
      9542      9540      9543      9540      9543      9544      9540      9543      9545
      9540      9543      9546      9544      9543      9545      9544      9543      9546
      9545      9543      9546      9543      9546      9547      9543      9546      9548
      9543      9546      9549      9547      9546      9548      9547      9546      9549
      9548      9546      9549      9546      9549      9550      9546      9549      9551
      9546      9549      9552      9550      9549      9551      9550      9549      9552
      9551      9549      9552      7182      7181      7183      7182      7181      7185
      7182      7181      7227      7183      7181      7185      7183      7181      7227
      7185      7181      7227      7181      7183      7184      7181      7185      7186
      7181      7185      7187      7181      7185      7188      7186      7185      7187
      7186      7185      7188      7187      7185      7188      7185      7188      7189
      7185      7188      7219      7189      7188      7219      7188      7189      7190
      7188      7189      7191      7190      7189      7191      7189      7191      7192
      7189      7191      7193      7189      7191      7194      7192      7191      7193
      7192      7191      7194      7193      7191      7194      7191      7194      7195
      7191      7194      7196      7191      7194      7217      7195      7194      7196
      7195      7194      7217      7196      7194      7217      7194      7196      7197
      7194      7196      7198      7194      7196      7206      7197      7196      7198
      7197      7196      7206      7198      7196      7206      7196      7198      7199
      7196      7198      7200      7196      7198      7201      7199      7198      7200
      7199      7198      7201      7200      7198      7201      7198      7201      7202
      7198      7201      7203      7198      7201      7204      7202      7201      7203
      7202      7201      7204      7203      7201      7204      7201      7204      7205
      7201      7204      7206      7201      7204      7230      7205      7204      7206
      7205      7204      7230      7206      7204      7230      7196      7206      7204
      7196      7206      7207      7196      7206      7211      7204      7206      7207
      7204      7206      7211      7207      7206      7211      7206      7207      7208
      7206      7207      7209      7206      7207      7210      7208      7207      7209
      7208      7207      7210      7209      7207      7210      7206      7211      7212
      7206      7211      7213      7206      7211      7214      7212      7211      7213
      7212      7211      7214      7213      7211      7214      7211      7214      7215
      7211      7214      7216      7211      7214      7217      7215      7214      7216
      7215      7214      7217      7216      7214      7217      7194      7217      7214
      7194      7217      7218      7194      7217      7219      7214      7217      7218
      7214      7217      7219      7218      7217      7219      7188      7219      7217
      7188      7219      7220      7188      7219      7224      7217      7219      7220
      7217      7219      7224      7220      7219      7224      7219      7220      7221
      7219      7220      7222      7219      7220      7223      7221      7220      7222
      7221      7220      7223      7222      7220      7223      7219      7224      7225
      7219      7224      7226      7219      7224      7227      7225      7224      7226
      7225      7224      7227      7226      7224      7227      7181      7227      7224
      7181      7227      7228      7181      7227      7229      7224      7227      7228
      7224      7227      7229      7228      7227      7229      7204      7230      7231
      7204      7230      7232      7204      7230      7236      7231      7230      7232
      7231      7230      7236      7232      7230      7236      7230      7232      7233
      7230      7232      7234      7230      7232      7235      7233      7232      7234
      7233      7232      7235      7234      7232      7235      7230      7236      7237
      7230      7236      7238      7230      7236      7239      7237      7236      7238
      7237      7236      7239      7238      7236      7239      7236      7239      7240
      7236      7239      7241      7236      7239      7242      7240      7239      7241
      7240      7239      7242      7241      7239      7242      7239      7242      7243
      7239      7242      7244      7239      7242      7245      7243      7242      7244
      7243      7242      7245      7244      7242      7245      7242      7245      7246
      7242      7245      7247      7242      7245      7251      7246      7245      7247
      7246      7245      7251      7247      7245      7251      7245      7247      7248
      7245      7247      7249      7245      7247      7250      7248      7247      7249
      7248      7247      7250      7249      7247      7250      7245      7251      7252
      7245      7251      7253      7245      7251      7254      7252      7251      7253
      7252      7251      7254      7253      7251      7254      5127      5126      5128
      5127      5126      5129      5127      5126      5130      5128      5126      5129
      5128      5126      5130      5129      5126      5130      5126      5130      5131
      5126      5130      5132      5126      5130      5133      5131      5130      5132
      5131      5130      5133      5132      5130      5133      5130      5133      5134
      5130      5133      5135      5130      5133      5139      5134      5133      5135
      5134      5133      5139      5135      5133      5139      5137      5136      5138
      5137      5136      5139      5137      5136      5140      5138      5136      5139
      5138      5136      5140      5139      5136      5140      5133      5139      5136
      5136      5140      5141      5140      5141      5142      5140      5141      5143
      5140      5141      5144      5142      5141      5143      5142      5141      5144
      5143      5141      5144      5141      5144      5145      5141      5144      5146
      5141      5144      5152      5145      5144      5146      5145      5144      5152
      5146      5144      5152      5144      5146      5147      5146      5147      5148
      5146      5147      5149      5148      5147      5149      5147      5149      5150
      5147      5149      5151      5147      5149      5161      5150      5149      5151
      5150      5149      5161      5151      5149      5161      5144      5152      5153
      5144      5152      5154      5144      5152      5155      5153      5152      5154
      5153      5152      5155      5154      5152      5155      5152      5155      5156
      5155      5156      5157      5155      5156      5158      5157      5156      5158
      5156      5158      5159      5156      5158      5160      5156      5158      5208
      5159      5158      5160      5159      5158      5208      5160      5158      5208
      5149      5161      5162      5149      5161      5163      5149      5161      5164
      5162      5161      5163      5162      5161      5164      5163      5161      5164
      5161      5164      5165      5161      5164      5166      5161      5164      5167
      5165      5164      5166      5165      5164      5167      5166      5164      5167
      5164      5167      5168      5164      5167      5169      5168      5167      5169
      5167      5169      5170      5167      5169      5171      5170      5169      5171
      5169      5171      5172      5169      5171      5173      5169      5171      5174
      5172      5171      5173      5172      5171      5174      5173      5171      5174
      5171      5174      5175      5171      5174      5176      5175      5174      5176
      5174      5176      5177      5174      5176      5178      5177      5176      5178
      5176      5178      5179      5176      5178      5180      5176      5178      5181
      5179      5178      5180      5179      5178      5181      5180      5178      5181
      5178      5181      5182      5178      5181      5183      5182      5181      5183
      5181      5183      5184      5181      5183      5185      5184      5183      5185
      5183      5185      5186      5183      5185      5187      5183      5185      5188
      5186      5185      5187      5186      5185      5188      5187      5185      5188
      5185      5188      5189      5185      5188      5190      5189      5188      5190
      5188      5190      5191      5188      5190      5192      5191      5190      5192
      5190      5192      5193      5190      5192      5194      5190      5192      5195
      5193      5192      5194      5193      5192      5195      5194      5192      5195
      5192      5195      5196      5192      5195      5197      5192      5195      5198
      5196      5195      5197      5196      5195      5198      5197      5195      5198
      5195      5198      5199      5195      5198      5200      5195      5198      5201
      5199      5198      5200      5199      5198      5201      5200      5198      5201
      5198      5201      5202      5198      5201      5203      5198      5201      5204
      5202      5201      5203      5202      5201      5204      5203      5201      5204
      5201      5204      5205      5201      5204      5206      5201      5204      5207
      5205      5204      5206      5205      5204      5207      5206      5204      5207
      5158      5208      5209      5158      5208      5210      5158      5208      5211
      5209      5208      5210      5209      5208      5211      5210      5208      5211
      5208      5211      5212      5208      5211      5213      5208      5211      5214
      5212      5211      5213      5212      5211      5214      5213      5211      5214
      5211      5214      5215      5211      5214      5216      5211      5214      5217
      5215      5214      5216      5215      5214      5217      5216      5214      5217
      5214      5217      5218      5214      5217      5219      5214      5217      5220
      5218      5217      5219      5218      5217      5220      5219      5217      5220
      5217      5220      5221      5217      5220      5222      5217      5220      5223
      5221      5220      5222      5221      5220      5223      5222      5220      5223
      5220      5223      5224      5220      5223      5225      5220      5223      5226
      5224      5223      5225      5224      5223      5226      5225      5223      5226
      5223      5226      5227      5223      5226      5228      5223      5226      5229
      5227      5226      5228      5227      5226      5229      5228      5226      5229
      5226      5229      5230      5226      5229      5231      5226      5229      5232
      5230      5229      5231      5230      5229      5232      5231      5229      5232
      5229      5232      5233      5229      5232      5234      5229      5232      5235
      5233      5232      5234      5233      5232      5235      5234      5232      5235
      5232      5235      5236      5232      5235      5237      5232      5235      5238
      5236      5235      5237      5236      5235      5238      5237      5235      5238
      5235      5238      5239      5235      5238      5240      5235      5238      5241
      5239      5238      5240      5239      5238      5241      5240      5238      5241
      5238      5241      5242      5238      5241      5243      5238      5241      5244
      5242      5241      5243      5242      5241      5244      5243      5241      5244
      5241      5244      5245      5241      5244      5246      5241      5244      5247
      5245      5244      5246      5245      5244      5247      5246      5244      5247
      5244      5247      5248      5244      5247      5249      5244      5247      5250
      5248      5247      5249      5248      5247      5250      5249      5247      5250
      5247      5250      5251      5247      5250      5252      5247      5250      5253
      5251      5250      5252      5251      5250      5253      5252      5250      5253
      5250      5253      5254      5250      5253      5255      5250      5253      5256
      5254      5253      5255      5254      5253      5256      5255      5253      5256
      7256      7255      7257      7256      7255      7259      7256      7255      7301
      7257      7255      7259      7257      7255      7301      7259      7255      7301
      7255      7257      7258      7255      7259      7260      7255      7259      7261
      7255      7259      7262      7260      7259      7261      7260      7259      7262
      7261      7259      7262      7259      7262      7263      7259      7262      7293
      7263      7262      7293      7262      7263      7264      7262      7263      7265
      7264      7263      7265      7263      7265      7266      7263      7265      7267
      7263      7265      7268      7266      7265      7267      7266      7265      7268
      7267      7265      7268      7265      7268      7269      7265      7268      7270
      7265      7268      7291      7269      7268      7270      7269      7268      7291
      7270      7268      7291      7268      7270      7271      7268      7270      7272
      7268      7270      7280      7271      7270      7272      7271      7270      7280
      7272      7270      7280      7270      7272      7273      7270      7272      7274
      7270      7272      7275      7273      7272      7274      7273      7272      7275
      7274      7272      7275      7272      7275      7276      7272      7275      7277
      7272      7275      7278      7276      7275      7277      7276      7275      7278
      7277      7275      7278      7275      7278      7279      7275      7278      7280
      7275      7278      7304      7279      7278      7280      7279      7278      7304
      7280      7278      7304      7270      7280      7278      7270      7280      7281
      7270      7280      7285      7278      7280      7281      7278      7280      7285
      7281      7280      7285      7280      7281      7282      7280      7281      7283
      7280      7281      7284      7282      7281      7283      7282      7281      7284
      7283      7281      7284      7280      7285      7286      7280      7285      7287
      7280      7285      7288      7286      7285      7287      7286      7285      7288
      7287      7285      7288      7285      7288      7289      7285      7288      7290
      7285      7288      7291      7289      7288      7290      7289      7288      7291
      7290      7288      7291      7268      7291      7288      7268      7291      7292
      7268      7291      7293      7288      7291      7292      7288      7291      7293
      7292      7291      7293      7262      7293      7291      7262      7293      7294
      7262      7293      7298      7291      7293      7294      7291      7293      7298
      7294      7293      7298      7293      7294      7295      7293      7294      7296
      7293      7294      7297      7295      7294      7296      7295      7294      7297
      7296      7294      7297      7293      7298      7299      7293      7298      7300
      7293      7298      7301      7299      7298      7300      7299      7298      7301
      7300      7298      7301      7255      7301      7298      7255      7301      7302
      7255      7301      7303      7298      7301      7302      7298      7301      7303
      7302      7301      7303      7278      7304      7305      7278      7304      7306
      7278      7304      7310      7305      7304      7306      7305      7304      7310
      7306      7304      7310      7304      7306      7307      7304      7306      7308
      7304      7306      7309      7307      7306      7308      7307      7306      7309
      7308      7306      7309      7304      7310      7311      7304      7310      7312
      7304      7310      7313      7311      7310      7312      7311      7310      7313
      7312      7310      7313      7310      7313      7314      7310      7313      7315
      7310      7313      7316      7314      7313      7315      7314      7313      7316
      7315      7313      7316      7313      7316      7317      7313      7316      7318
      7313      7316      7319      7317      7316      7318      7317      7316      7319
      7318      7316      7319      7316      7319      7320      7316      7319      7321
      7316      7319      7325      7320      7319      7321      7320      7319      7325
      7321      7319      7325      7319      7321      7322      7319      7321      7323
      7319      7321      7324      7322      7321      7323      7322      7321      7324
      7323      7321      7324      7319      7325      7326      7319      7325      7327
      7319      7325      7328      7326      7325      7327      7326      7325      7328
      7327      7325      7328      9956      9955      9959      9956      9955      9963
      9956      9955      9967      9959      9955      9963      9959      9955      9967
      9963      9955      9967      9955      9956      9957      9955      9956      9958
      9955      9956      9971      9957      9956      9958      9957      9956      9971
      9958      9956      9971      9955      9959      9960      9955      9959      9961
      9955      9959      9962      9960      9959      9961      9960      9959      9962
      9961      9959      9962      9955      9963      9964      9955      9963      9965
      9955      9963      9966      9964      9963      9965      9964      9963      9966
      9965      9963      9966      9955      9967      9968      9955      9967      9969
      9955      9967      9970      9968      9967      9969      9968      9967      9970
      9969      9967      9970      9956      9971      9972      9956      9971      9973
      9956      9971      9977      9972      9971      9973      9972      9971      9977
      9973      9971      9977      9975      9974      9976      9975      9974      9977
      9975      9974      9978      9976      9974      9977      9976      9974      9978
      9977      9974      9978      9971      9977      9974      9974      9978      9979
      9978      9979      9980      9978      9979      9981      9978      9979      9982
      9980      9979      9981      9980      9979      9982      9981      9979      9982
      9979      9982      9983      9979      9982      9984      9979      9982      9990
      9983      9982      9984      9983      9982      9990      9984      9982      9990
      9982      9984      9985      9984      9985      9986      9984      9985      9987
      9986      9985      9987      9985      9987      9988      9985      9987      9989
      9985      9987      9999      9988      9987      9989      9988      9987      9999
      9989      9987      9999      9982      9990      9991      9982      9990      9992
      9982      9990      9993      9991      9990      9992      9991      9990      9993
      9992      9990      9993      9990      9993      9994      9993      9994      9995
      9993      9994      9996      9995      9994      9996      9994      9996      9997
      9994      9996      9998      9994      9996     10046      9997      9996      9998
      9997      9996     10046      9998      9996     10046      9987      9999     10000
      9987      9999     10001      9987      9999     10002     10000      9999     10001
     10000      9999     10002     10001      9999     10002      9999     10002     10003
      9999     10002     10004      9999     10002     10005     10003     10002     10004
     10003     10002     10005     10004     10002     10005     10002     10005     10006
     10002     10005     10007     10002     10005     10008     10006     10005     10007
     10006     10005     10008     10007     10005     10008     10005     10008     10009
     10005     10008     10010     10005     10008     10011     10009     10008     10010
     10009     10008     10011     10010     10008     10011     10008     10011     10012
     10008     10011     10013     10008     10011     10014     10012     10011     10013
     10012     10011     10014     10013     10011     10014     10011     10014     10015
     10011     10014     10016     10011     10014     10017     10015     10014     10016
     10015     10014     10017     10016     10014     10017     10014     10017     10018
     10014     10017     10019     10018     10017     10019     10017     10019     10020
     10017     10019     10021     10020     10019     10021     10019     10021     10022
     10019     10021     10023     10019     10021     10024     10022     10021     10023
     10022     10021     10024     10023     10021     10024     10021     10024     10025
     10021     10024     10026     10021     10024     10027     10025     10024     10026
     10025     10024     10027     10026     10024     10027     10024     10027     10028
     10024     10027     10029     10024     10027     10030     10028     10027     10029
     10028     10027     10030     10029     10027     10030     10027     10030     10031
     10027     10030     10032     10027     10030     10033     10031     10030     10032
     10031     10030     10033     10032     10030     10033     10030     10033     10034
     10030     10033     10035     10030     10033     10036     10034     10033     10035
     10034     10033     10036     10035     10033     10036     10033     10036     10037
     10033     10036     10038     10033     10036     10039     10037     10036     10038
     10037     10036     10039     10038     10036     10039     10036     10039     10040
     10036     10039     10041     10036     10039     10042     10040     10039     10041
     10040     10039     10042     10041     10039     10042     10039     10042     10043
     10039     10042     10044     10039     10042     10045     10043     10042     10044
     10043     10042     10045     10044     10042     10045      9996     10046     10047
      9996     10046     10048      9996     10046     10049     10047     10046     10048
     10047     10046     10049     10048     10046     10049     10046     10049     10050
     10046     10049     10051     10046     10049     10052     10050     10049     10051
     10050     10049     10052     10051     10049     10052     10049     10052     10053
     10049     10052     10054     10049     10052     10055     10053     10052     10054
     10053     10052     10055     10054     10052     10055     10052     10055     10056
     10052     10055     10057     10052     10055     10058     10056     10055     10057
     10056     10055     10058     10057     10055     10058     10055     10058     10059
     10055     10058     10060     10055     10058     10061     10059     10058     10060
     10059     10058     10061     10060     10058     10061     10058     10061     10062
     10058     10061     10063     10058     10061     10064     10062     10061     10063
     10062     10061     10064     10063     10061     10064     10061     10064     10065
     10061     10064     10066     10061     10064     10067     10065     10064     10066
     10065     10064     10067     10066     10064     10067     10064     10067     10068
     10064     10067     10069     10064     10067     10070     10068     10067     10069
     10068     10067     10070     10069     10067     10070     10067     10070     10071
     10067     10070     10072     10067     10070     10073     10071     10070     10072
     10071     10070     10073     10072     10070     10073     10070     10073     10074
     10070     10073     10075     10070     10073     10076     10074     10073     10075
     10074     10073     10076     10075     10073     10076     10073     10076     10077
     10073     10076     10078     10073     10076     10079     10077     10076     10078
     10077     10076     10079     10078     10076     10079     10076     10079     10080
     10076     10079     10081     10076     10079     10082     10080     10079     10081
     10080     10079     10082     10081     10079     10082     10079     10082     10083
     10079     10082     10084     10079     10082     10085     10083     10082     10084
     10083     10082     10085     10084     10082     10085     10082     10085     10086
     10082     10085     10087     10082     10085     10088     10086     10085     10087
     10086     10085     10088     10087     10085     10088      3291      3290      3292
      3291      3290      3293      3291      3290      3294      3292      3290      3293
      3292      3290      3294      3293      3290      3294      3290      3294      3295
      3290      3294      3296      3290      3294      3299      3295      3294      3296
      3295      3294      3299      3296      3294      3299      3294      3296      3297
      3294      3296      3298      3297      3296      3298      3294      3299      3300
      3294      3299      3301      3294      3299      3305      3300      3299      3301
      3300      3299      3305      3301      3299      3305      3303      3302      3304
      3303      3302      3305      3303      3302      3306      3304      3302      3305
      3304      3302      3306      3305      3302      3306      3299      3305      3302
      3302      3306      3307      3306      3307      3308      3306      3307      3309
      3306      3307      3310      3308      3307      3309      3308      3307      3310
      3309      3307      3310      3307      3310      3311      3307      3310      3312
      3307      3310      3318      3311      3310      3312      3311      3310      3318
      3312      3310      3318      3310      3312      3313      3312      3313      3314
      3312      3313      3315      3314      3313      3315      3313      3315      3316
      3313      3315      3317      3313      3315      3327      3316      3315      3317
      3316      3315      3327      3317      3315      3327      3310      3318      3319
      3310      3318      3320      3310      3318      3321      3319      3318      3320
      3319      3318      3321      3320      3318      3321      3318      3321      3322
      3321      3322      3323      3321      3322      3324      3323      3322      3324
      3322      3324      3325      3322      3324      3326      3322      3324      3374
      3325      3324      3326      3325      3324      3374      3326      3324      3374
      3315      3327      3328      3315      3327      3329      3315      3327      3330
      3328      3327      3329      3328      3327      3330      3329      3327      3330
      3327      3330      3331      3327      3330      3332      3327      3330      3333
      3331      3330      3332      3331      3330      3333      3332      3330      3333
      3330      3333      3334      3330      3333      3335      3334      3333      3335
      3333      3335      3336      3333      3335      3337      3336      3335      3337
      3335      3337      3338      3335      3337      3339      3335      3337      3340
      3338      3337      3339      3338      3337      3340      3339      3337      3340
      3337      3340      3341      3337      3340      3342      3341      3340      3342
      3340      3342      3343      3340      3342      3344      3343      3342      3344
      3342      3344      3345      3342      3344      3346      3342      3344      3347
      3345      3344      3346      3345      3344      3347      3346      3344      3347
      3344      3347      3348      3344      3347      3349      3348      3347      3349
      3347      3349      3350      3347      3349      3351      3350      3349      3351
      3349      3351      3352      3349      3351      3353      3349      3351      3354
      3352      3351      3353      3352      3351      3354      3353      3351      3354
      3351      3354      3355      3351      3354      3356      3355      3354      3356
      3354      3356      3357      3354      3356      3358      3357      3356      3358
      3356      3358      3359      3356      3358      3360      3356      3358      3361
      3359      3358      3360      3359      3358      3361      3360      3358      3361
      3358      3361      3362      3358      3361      3363      3358      3361      3364
      3362      3361      3363      3362      3361      3364      3363      3361      3364
      3361      3364      3365      3361      3364      3366      3361      3364      3367
      3365      3364      3366      3365      3364      3367      3366      3364      3367
      3364      3367      3368      3364      3367      3369      3364      3367      3370
      3368      3367      3369      3368      3367      3370      3369      3367      3370
      3367      3370      3371      3367      3370      3372      3367      3370      3373
      3371      3370      3372      3371      3370      3373      3372      3370      3373
      3324      3374      3375      3324      3374      3376      3324      3374      3377
      3375      3374      3376      3375      3374      3377      3376      3374      3377
      3374      3377      3378      3374      3377      3379      3374      3377      3380
      3378      3377      3379      3378      3377      3380      3379      3377      3380
      3377      3380      3381      3377      3380      3382      3377      3380      3383
      3381      3380      3382      3381      3380      3383      3382      3380      3383
      3380      3383      3384      3380      3383      3385      3380      3383      3386
      3384      3383      3385      3384      3383      3386      3385      3383      3386
      3383      3386      3387      3383      3386      3388      3383      3386      3389
      3387      3386      3388      3387      3386      3389      3388      3386      3389
      3386      3389      3390      3386      3389      3391      3386      3389      3392
      3390      3389      3391      3390      3389      3392      3391      3389      3392
      3389      3392      3393      3389      3392      3394      3389      3392      3395
      3393      3392      3394      3393      3392      3395      3394      3392      3395
      3392      3395      3396      3392      3395      3397      3392      3395      3398
      3396      3395      3397      3396      3395      3398      3397      3395      3398
      3395      3398      3399      3395      3398      3400      3395      3398      3401
      3399      3398      3400      3399      3398      3401      3400      3398      3401
      3398      3401      3402      3398      3401      3403      3398      3401      3404
      3402      3401      3403      3402      3401      3404      3403      3401      3404
      3401      3404      3405      3401      3404      3406      3401      3404      3407
      3405      3404      3406      3405      3404      3407      3406      3404      3407
      3404      3407      3408      3404      3407      3409      3404      3407      3410
      3408      3407      3409      3408      3407      3410      3409      3407      3410
      3407      3410      3411      3407      3410      3412      3407      3410      3413
      3411      3410      3412      3411      3410      3413      3412      3410      3413
      3410      3413      3414      3410      3413      3415      3410      3413      3416
      3414      3413      3415      3414      3413      3416      3415      3413      3416
      3413      3416      3417      3413      3416      3418      3413      3416      3419
      3417      3416      3418      3417      3416      3419      3418      3416      3419
      3416      3419      3420      3416      3419      3421      3416      3419      3422
      3420      3419      3421      3420      3419      3422      3421      3419      3422
      8296      8295      8300      8296      8295      8304      8296      8295      8308
      8300      8295      8304      8300      8295      8308      8304      8295      8308
      8295      8296      8297      8295      8296      8298      8295      8296      8299
      8297      8296      8298      8297      8296      8299      8298      8296      8299
      8295      8300      8301      8295      8300      8302      8295      8300      8303
      8301      8300      8302      8301      8300      8303      8302      8300      8303
      8295      8304      8305      8295      8304      8306      8295      8304      8307
      8305      8304      8306      8305      8304      8307      8306      8304      8307
      8295      8308      8309      8295      8308      8310      8295      8308      8311
      8309      8308      8310      8309      8308      8311      8310      8308      8311
      8308      8311      8312      8308      8311      8313      8308      8311      8317
      8312      8311      8313      8312      8311      8317      8313      8311      8317
      8315      8314      8316      8315      8314      8317      8315      8314      8318
      8316      8314      8317      8316      8314      8318      8317      8314      8318
      8311      8317      8314      8314      8318      8319      8318      8319      8320
      8318      8319      8321      8318      8319      8322      8320      8319      8321
      8320      8319      8322      8321      8319      8322      8319      8322      8323
      8319      8322      8324      8319      8322      8330      8323      8322      8324
      8323      8322      8330      8324      8322      8330      8322      8324      8325
      8324      8325      8326      8324      8325      8327      8326      8325      8327
      8325      8327      8328      8325      8327      8329      8325      8327      8339
      8328      8327      8329      8328      8327      8339      8329      8327      8339
      8322      8330      8331      8322      8330      8332      8322      8330      8333
      8331      8330      8332      8331      8330      8333      8332      8330      8333
      8330      8333      8334      8333      8334      8335      8333      8334      8336
      8335      8334      8336      8334      8336      8337      8334      8336      8338
      8334      8336      8384      8337      8336      8338      8337      8336      8384
      8338      8336      8384      8327      8339      8340      8327      8339      8341
      8327      8339      8342      8340      8339      8341      8340      8339      8342
      8341      8339      8342      8339      8342      8343      8339      8342      8344
      8339      8342      8345      8343      8342      8344      8343      8342      8345
      8344      8342      8345      8342      8345      8346      8342      8345      8347
      8342      8345      8348      8346      8345      8347      8346      8345      8348
      8347      8345      8348      8345      8348      8349      8345      8348      8350
      8345      8348      8351      8349      8348      8350      8349      8348      8351
      8350      8348      8351      8348      8351      8352      8348      8351      8353
      8348      8351      8354      8352      8351      8353      8352      8351      8354
      8353      8351      8354      8351      8354      8355      8351      8354      8356
      8351      8354      8357      8355      8354      8356      8355      8354      8357
      8356      8354      8357      8354      8357      8358      8354      8357      8359
      8358      8357      8359      8357      8359      8360      8357      8359      8361
      8360      8359      8361      8359      8361      8362      8359      8361      8363
      8359      8361      8364      8362      8361      8363      8362      8361      8364
      8363      8361      8364      8361      8364      8365      8361      8364      8366
      8365      8364      8366      8364      8366      8367      8364      8366      8368
      8367      8366      8368      8366      8368      8369      8366      8368      8370
      8366      8368      8371      8369      8368      8370      8369      8368      8371
      8370      8368      8371      8368      8371      8372      8368      8371      8373
      8368      8371      8374      8372      8371      8373      8372      8371      8374
      8373      8371      8374      8371      8374      8375      8371      8374      8376
      8371      8374      8377      8375      8374      8376      8375      8374      8377
      8376      8374      8377      8374      8377      8378      8374      8377      8379
      8374      8377      8380      8378      8377      8379      8378      8377      8380
      8379      8377      8380      8377      8380      8381      8377      8380      8382
      8377      8380      8383      8381      8380      8382      8381      8380      8383
      8382      8380      8383      8336      8384      8385      8336      8384      8386
      8336      8384      8387      8385      8384      8386      8385      8384      8387
      8386      8384      8387      8384      8387      8388      8384      8387      8389
      8384      8387      8390      8388      8387      8389      8388      8387      8390
      8389      8387      8390      8387      8390      8391      8387      8390      8392
      8387      8390      8393      8391      8390      8392      8391      8390      8393
      8392      8390      8393      8390      8393      8394      8390      8393      8395
      8390      8393      8396      8394      8393      8395      8394      8393      8396
      8395      8393      8396      8393      8396      8397      8393      8396      8398
      8393      8396      8399      8397      8396      8398      8397      8396      8399
      8398      8396      8399      8396      8399      8400      8396      8399      8401
      8396      8399      8402      8400      8399      8401      8400      8399      8402
      8401      8399      8402      8399      8402      8403      8399      8402      8404
      8399      8402      8405      8403      8402      8404      8403      8402      8405
      8404      8402      8405      8402      8405      8406      8402      8405      8407
      8402      8405      8408      8406      8405      8407      8406      8405      8408
      8407      8405      8408      8405      8408      8409      8405      8408      8410
      8405      8408      8411      8409      8408      8410      8409      8408      8411
      8410      8408      8411      8408      8411      8412      8408      8411      8413
      8408      8411      8414      8412      8411      8413      8412      8411      8414
      8413      8411      8414      8411      8414      8415      8411      8414      8416
      8411      8414      8417      8415      8414      8416      8415      8414      8417
      8416      8414      8417      8414      8417      8418      8414      8417      8419
      8414      8417      8420      8418      8417      8419      8418      8417      8420
      8419      8417      8420      8417      8420      8421      8417      8420      8422
      8417      8420      8423      8421      8420      8422      8421      8420      8423
      8422      8420      8423      8420      8423      8424      8420      8423      8425
      8420      8423      8426      8424      8423      8425      8424      8423      8426
      8425      8423      8426      8423      8426      8427      8423      8426      8428
      8423      8426      8429      8427      8426      8428      8427      8426      8429
      8428      8426      8429      8426      8429      8430      8426      8429      8431
      8426      8429      8432      8430      8429      8431      8430      8429      8432
      8431      8429      8432     11186     11185     11187     11189     11188     11190
     11192     11191     11193     11195     11194     11196     11198     11197     11199
     11201     11200     11202     11204     11203     11205     11207     11206     11208
     11210     11209     11211     11213     11212     11214     11216     11215     11217
     11219     11218     11220     11222     11221     11223     11225     11224     11226
     11228     11227     11229     11231     11230     11232     11234     11233     11235
     11237     11236     11238     11240     11239     11241     11243     11242     11244
     11246     11245     11247     11249     11248     11250     11252     11251     11253
     11255     11254     11256     11258     11257     11259     11261     11260     11262
     11264     11263     11265     11267     11266     11268     11270     11269     11271
     11273     11272     11274     11276     11275     11277     11279     11278     11280
     11282     11281     11283     11285     11284     11286     11288     11287     11289
     11291     11290     11292     11294     11293     11295     11297     11296     11298
     11300     11299     11301     11303     11302     11304     11306     11305     11307
     11309     11308     11310     11312     11311     11313     11315     11314     11316
     11318     11317     11319     11321     11320     11322     11324     11323     11325
     11327     11326     11328     11330     11329     11331     11333     11332     11334
     11336     11335     11337     11339     11338     11340     11342     11341     11343
     11345     11344     11346     11348     11347     11349     11351     11350     11352
     11354     11353     11355     11357     11356     11358     11360     11359     11361
     11363     11362     11364     11366     11365     11367     11369     11368     11370
     11372     11371     11373     11375     11374     11376     11378     11377     11379
     11381     11380     11382     11384     11383     11385     11387     11386     11388
     11390     11389     11391     11393     11392     11394     11396     11395     11397
     11399     11398     11400     11402     11401     11403     11405     11404     11406
     11408     11407     11409     11411     11410     11412     11414     11413     11415
     11417     11416     11418     11420     11419     11421     11423     11422     11424
     11426     11425     11427     11429     11428     11430     11432     11431     11433
     11435     11434     11436     11438     11437     11439     11441     11440     11442
     11444     11443     11445     11447     11446     11448     11450     11449     11451
     11453     11452     11454     11456     11455     11457     11459     11458     11460
     11462     11461     11463     11465     11464     11466     11468     11467     11469
     11471     11470     11472     11474     11473     11475     11477     11476     11478
     11480     11479     11481     11483     11482     11484     11486     11485     11487
     11489     11488     11490     11492     11491     11493     11495     11494     11496
     11498     11497     11499     11501     11500     11502     11504     11503     11505
     11507     11506     11508     11510     11509     11511     11513     11512     11514
     11516     11515     11517     11519     11518     11520     11522     11521     11523
     11525     11524     11526     11528     11527     11529     11531     11530     11532
     11534     11533     11535     11537     11536     11538     11540     11539     11541
     11543     11542     11544     11546     11545     11547     11549     11548     11550
     11552     11551     11553     11555     11554     11556     11558     11557     11559
     11561     11560     11562     11564     11563     11565     11567     11566     11568
     11570     11569     11571     11573     11572     11574     11576     11575     11577
     11579     11578     11580     11582     11581     11583     11585     11584     11586
     11588     11587     11589     11591     11590     11592     11594     11593     11595
     11597     11596     11598     11600     11599     11601     11603     11602     11604
     11606     11605     11607     11609     11608     11610     11612     11611     11613
     11615     11614     11616     11618     11617     11619     11621     11620     11622
     11624     11623     11625     11627     11626     11628     11630     11629     11631
     11633     11632     11634     11636     11635     11637     11639     11638     11640
     11642     11641     11643     11645     11644     11646     11648     11647     11649
     11651     11650     11652     11654     11653     11655     11657     11656     11658
     11660     11659     11661     11663     11662     11664     11666     11665     11667
     11669     11668     11670     11672     11671     11673     11675     11674     11676
     11678     11677     11679     11681     11680     11682     11684     11683     11685
     11687     11686     11688     11690     11689     11691     11693     11692     11694
     11696     11695     11697     11699     11698     11700     11702     11701     11703
     11705     11704     11706     11708     11707     11709     11711     11710     11712
     11714     11713     11715     11717     11716     11718     11720     11719     11721
     11723     11722     11724     11726     11725     11727     11729     11728     11730
     11732     11731     11733     11735     11734     11736     11738     11737     11739
     11741     11740     11742     11744     11743     11745     11747     11746     11748
     11750     11749     11751     11753     11752     11754     11756     11755     11757
     11759     11758     11760     11762     11761     11763     11765     11764     11766
     11768     11767     11769     11771     11770     11772     11774     11773     11775
     11777     11776     11778     11780     11779     11781     11783     11782     11784
     11786     11785     11787     11789     11788     11790     11792     11791     11793
     11795     11794     11796     11798     11797     11799     11801     11800     11802
     11804     11803     11805     11807     11806     11808     11810     11809     11811
     11813     11812     11814     11816     11815     11817     11819     11818     11820
     11822     11821     11823     11825     11824     11826     11828     11827     11829
     11831     11830     11832     11834     11833     11835     11837     11836     11838
     11840     11839     11841     11843     11842     11844     11846     11845     11847
     11849     11848     11850     11852     11851     11853     11855     11854     11856
     11858     11857     11859     11861     11860     11862     11864     11863     11865
     11867     11866     11868     11870     11869     11871     11873     11872     11874
     11876     11875     11877     11879     11878     11880     11882     11881     11883
     11885     11884     11886     11888     11887     11889     11891     11890     11892
     11894     11893     11895     11897     11896     11898     11900     11899     11901
     11903     11902     11904     11906     11905     11907     11909     11908     11910
     11912     11911     11913     11915     11914     11916     11918     11917     11919
     11921     11920     11922     11924     11923     11925     11927     11926     11928
     11930     11929     11931     11933     11932     11934     11936     11935     11937
     11939     11938     11940     11942     11941     11943     11945     11944     11946
     11948     11947     11949     11951     11950     11952     11954     11953     11955
     11957     11956     11958     11960     11959     11961     11963     11962     11964
     11966     11965     11967     11969     11968     11970     11972     11971     11973
     11975     11974     11976     11978     11977     11979     11981     11980     11982
     11984     11983     11985     11987     11986     11988     11990     11989     11991
     11993     11992     11994     11996     11995     11997     11999     11998     12000
     12002     12001     12003     12005     12004     12006     12008     12007     12009
     12011     12010     12012     12014     12013     12015     12017     12016     12018
     12020     12019     12021     12023     12022     12024     12026     12025     12027
     12029     12028     12030     12032     12031     12033     12035     12034     12036
     12038     12037     12039     12041     12040     12042     12044     12043     12045
     12047     12046     12048     12050     12049     12051     12053     12052     12054
     12056     12055     12057     12059     12058     12060     12062     12061     12063
     12065     12064     12066     12068     12067     12069     12071     12070     12072
     12074     12073     12075     12077     12076     12078     12080     12079     12081
     12083     12082     12084     12086     12085     12087     12089     12088     12090
     12092     12091     12093     12095     12094     12096     12098     12097     12099
     12101     12100     12102     12104     12103     12105     12107     12106     12108
     12110     12109     12111     12113     12112     12114     12116     12115     12117
     12119     12118     12120     12122     12121     12123     12125     12124     12126
     12128     12127     12129     12131     12130     12132     12134     12133     12135
     12137     12136     12138     12140     12139     12141     12143     12142     12144
     12146     12145     12147     12149     12148     12150     12152     12151     12153
     12155     12154     12156     12158     12157     12159     12161     12160     12162
     12164     12163     12165     12167     12166     12168     12170     12169     12171
     12173     12172     12174     12176     12175     12177     12179     12178     12180
     12182     12181     12183     12185     12184     12186     12188     12187     12189
     12191     12190     12192     12194     12193     12195     12197     12196     12198
     12200     12199     12201     12203     12202     12204     12206     12205     12207
     12209     12208     12210     12212     12211     12213     12215     12214     12216
     12218     12217     12219     12221     12220     12222     12224     12223     12225
     12227     12226     12228     12230     12229     12231     12233     12232     12234
     12236     12235     12237     12239     12238     12240     12242     12241     12243
     12245     12244     12246     12248     12247     12249     12251     12250     12252
     12254     12253     12255     12257     12256     12258     12260     12259     12261
     12263     12262     12264     12266     12265     12267     12269     12268     12270
     12272     12271     12273     12275     12274     12276     12278     12277     12279
     12281     12280     12282     12284     12283     12285     12287     12286     12288
     12290     12289     12291     12293     12292     12294     12296     12295     12297
     12299     12298     12300     12302     12301     12303     12305     12304     12306
     12308     12307     12309     12311     12310     12312     12314     12313     12315
     12317     12316     12318     12320     12319     12321     12323     12322     12324
     12326     12325     12327     12329     12328     12330     12332     12331     12333
     12335     12334     12336     12338     12337     12339     12341     12340     12342
     12344     12343     12345     12347     12346     12348     12350     12349     12351
     12353     12352     12354     12356     12355     12357     12359     12358     12360
     12362     12361     12363     12365     12364     12366     12368     12367     12369
     12371     12370     12372     12374     12373     12375     12377     12376     12378
     12380     12379     12381     12383     12382     12384     12386     12385     12387
     12389     12388     12390     12392     12391     12393     12395     12394     12396
     12398     12397     12399     12401     12400     12402     12404     12403     12405
     12407     12406     12408     12410     12409     12411     12413     12412     12414
     12416     12415     12417     12419     12418     12420     12422     12421     12423
     12425     12424     12426     12428     12427     12429     12431     12430     12432
     12434     12433     12435     12437     12436     12438     12440     12439     12441
     12443     12442     12444     12446     12445     12447     12449     12448     12450
     12452     12451     12453     12455     12454     12456     12458     12457     12459
     12461     12460     12462     12464     12463     12465     12467     12466     12468
     12470     12469     12471     12473     12472     12474     12476     12475     12477
     12479     12478     12480     12482     12481     12483     12485     12484     12486
     12488     12487     12489     12491     12490     12492     12494     12493     12495
     12497     12496     12498     12500     12499     12501     12503     12502     12504
     12506     12505     12507     12509     12508     12510     12512     12511     12513
     12515     12514     12516     12518     12517     12519     12521     12520     12522
     12524     12523     12525     12527     12526     12528     12530     12529     12531
     12533     12532     12534     12536     12535     12537     12539     12538     12540
     12542     12541     12543     12545     12544     12546     12548     12547     12549
     12551     12550     12552     12554     12553     12555     12557     12556     12558
     12560     12559     12561     12563     12562     12564     12566     12565     12567
     12569     12568     12570     12572     12571     12573     12575     12574     12576
     12578     12577     12579     12581     12580     12582     12584     12583     12585
     12587     12586     12588     12590     12589     12591     12593     12592     12594
     12596     12595     12597     12599     12598     12600     12602     12601     12603
     12605     12604     12606     12608     12607     12609     12611     12610     12612
     12614     12613     12615     12617     12616     12618     12620     12619     12621
     12623     12622     12624     12626     12625     12627     12629     12628     12630
     12632     12631     12633     12635     12634     12636     12638     12637     12639
     12641     12640     12642     12644     12643     12645     12647     12646     12648
     12650     12649     12651     12653     12652     12654     12656     12655     12657
     12659     12658     12660     12662     12661     12663     12665     12664     12666
     12668     12667     12669     12671     12670     12672     12674     12673     12675
     12677     12676     12678     12680     12679     12681     12683     12682     12684
     12686     12685     12687     12689     12688     12690     12692     12691     12693
     12695     12694     12696     12698     12697     12699     12701     12700     12702
     12704     12703     12705     12707     12706     12708     12710     12709     12711
     12713     12712     12714     12716     12715     12717     12719     12718     12720
     12722     12721     12723     12725     12724     12726     12728     12727     12729
     12731     12730     12732     12734     12733     12735     12737     12736     12738
     12740     12739     12741     12743     12742     12744     12746     12745     12747
     12749     12748     12750     12752     12751     12753     12755     12754     12756
     12758     12757     12759     12761     12760     12762     12764     12763     12765
     12767     12766     12768     12770     12769     12771     12773     12772     12774
     12776     12775     12777     12779     12778     12780     12782     12781     12783
     12785     12784     12786     12788     12787     12789     12791     12790     12792
     12794     12793     12795     12797     12796     12798     12800     12799     12801
     12803     12802     12804     12806     12805     12807     12809     12808     12810
     12812     12811     12813     12815     12814     12816     12818     12817     12819
     12821     12820     12822     12824     12823     12825     12827     12826     12828
     12830     12829     12831     12833     12832     12834     12836     12835     12837
     12839     12838     12840     12842     12841     12843     12845     12844     12846
     12848     12847     12849     12851     12850     12852     12854     12853     12855
     12857     12856     12858     12860     12859     12861     12863     12862     12864
     12866     12865     12867     12869     12868     12870     12872     12871     12873
     12875     12874     12876     12878     12877     12879     12881     12880     12882
     12884     12883     12885     12887     12886     12888     12890     12889     12891
     12893     12892     12894     12896     12895     12897     12899     12898     12900
     12902     12901     12903     12905     12904     12906     12908     12907     12909
     12911     12910     12912     12914     12913     12915     12917     12916     12918
     12920     12919     12921     12923     12922     12924     12926     12925     12927
     12929     12928     12930     12932     12931     12933     12935     12934     12936
     12938     12937     12939     12941     12940     12942     12944     12943     12945
     12947     12946     12948     12950     12949     12951     12953     12952     12954
     12956     12955     12957     12959     12958     12960     12962     12961     12963
     12965     12964     12966     12968     12967     12969     12971     12970     12972
     12974     12973     12975     12977     12976     12978     12980     12979     12981
     12983     12982     12984     12986     12985     12987     12989     12988     12990
     12992     12991     12993     12995     12994     12996     12998     12997     12999
     13001     13000     13002     13004     13003     13005     13007     13006     13008
     13010     13009     13011     13013     13012     13014     13016     13015     13017
     13019     13018     13020     13022     13021     13023     13025     13024     13026
     13028     13027     13029     13031     13030     13032     13034     13033     13035
     13037     13036     13038     13040     13039     13041     13043     13042     13044
     13046     13045     13047     13049     13048     13050     13052     13051     13053
     13055     13054     13056     13058     13057     13059     13061     13060     13062
     13064     13063     13065     13067     13066     13068     13070     13069     13071
     13073     13072     13074     13076     13075     13077     13079     13078     13080
     13082     13081     13083     13085     13084     13086     13088     13087     13089
     13091     13090     13092     13094     13093     13095     13097     13096     13098
     13100     13099     13101     13103     13102     13104     13106     13105     13107
     13109     13108     13110     13112     13111     13113     13115     13114     13116
     13118     13117     13119     13121     13120     13122     13124     13123     13125
     13127     13126     13128     13130     13129     13131     13133     13132     13134
     13136     13135     13137     13139     13138     13140     13142     13141     13143
     13145     13144     13146     13148     13147     13149     13151     13150     13152
     13154     13153     13155     13157     13156     13158     13160     13159     13161
     13163     13162     13164     13166     13165     13167     13169     13168     13170
     13172     13171     13173     13175     13174     13176     13178     13177     13179
     13181     13180     13182     13184     13183     13185     13187     13186     13188
     13190     13189     13191     13193     13192     13194     13196     13195     13197
     13199     13198     13200     13202     13201     13203     13205     13204     13206
     13208     13207     13209     13211     13210     13212     13214     13213     13215
     13217     13216     13218     13220     13219     13221     13223     13222     13224
     13226     13225     13227     13229     13228     13230     13232     13231     13233
     13235     13234     13236     13238     13237     13239     13241     13240     13242
     13244     13243     13245     13247     13246     13248     13250     13249     13251
     13253     13252     13254     13256     13255     13257     13259     13258     13260
     13262     13261     13263     13265     13264     13266     13268     13267     13269
     13271     13270     13272     13274     13273     13275     13277     13276     13278
     13280     13279     13281     13283     13282     13284     13286     13285     13287
     13289     13288     13290     13292     13291     13293     13295     13294     13296
     13298     13297     13299     13301     13300     13302     13304     13303     13305
     13307     13306     13308     13310     13309     13311     13313     13312     13314
     13316     13315     13317     13319     13318     13320     13322     13321     13323
     13325     13324     13326     13328     13327     13329     13331     13330     13332
     13334     13333     13335     13337     13336     13338     13340     13339     13341
     13343     13342     13344     13346     13345     13347     13349     13348     13350
     13352     13351     13353     13355     13354     13356     13358     13357     13359
     13361     13360     13362     13364     13363     13365     13367     13366     13368
     13370     13369     13371     13373     13372     13374     13376     13375     13377
     13379     13378     13380     13382     13381     13383     13385     13384     13386
     13388     13387     13389     13391     13390     13392     13394     13393     13395
     13397     13396     13398     13400     13399     13401     13403     13402     13404
     13406     13405     13407     13409     13408     13410     13412     13411     13413
     13415     13414     13416     13418     13417     13419     13421     13420     13422
     13424     13423     13425     13427     13426     13428     13430     13429     13431
     13433     13432     13434     13436     13435     13437     13439     13438     13440
     13442     13441     13443     13445     13444     13446     13448     13447     13449
     13451     13450     13452     13454     13453     13455     13457     13456     13458
     13460     13459     13461     13463     13462     13464     13466     13465     13467
     13469     13468     13470     13472     13471     13473     13475     13474     13476
     13478     13477     13479     13481     13480     13482     13484     13483     13485
     13487     13486     13488     13490     13489     13491     13493     13492     13494
     13496     13495     13497     13499     13498     13500     13502     13501     13503
     13505     13504     13506     13508     13507     13509     13511     13510     13512
     13514     13513     13515     13517     13516     13518     13520     13519     13521
     13523     13522     13524     13526     13525     13527     13529     13528     13530
     13532     13531     13533     13535     13534     13536     13538     13537     13539
     13541     13540     13542     13544     13543     13545     13547     13546     13548
     13550     13549     13551     13553     13552     13554     13556     13555     13557
     13559     13558     13560     13562     13561     13563     13565     13564     13566
     13568     13567     13569     13571     13570     13572     13574     13573     13575
     13577     13576     13578     13580     13579     13581     13583     13582     13584
     13586     13585     13587     13589     13588     13590     13592     13591     13593
     13595     13594     13596     13598     13597     13599     13601     13600     13602
     13604     13603     13605     13607     13606     13608     13610     13609     13611
     13613     13612     13614     13616     13615     13617     13619     13618     13620
     13622     13621     13623     13625     13624     13626     13628     13627     13629
     13631     13630     13632     13634     13633     13635     13637     13636     13638
     13640     13639     13641     13643     13642     13644     13646     13645     13647
     13649     13648     13650     13652     13651     13653     13655     13654     13656
     13658     13657     13659     13661     13660     13662     13664     13663     13665
     13667     13666     13668     13670     13669     13671     13673     13672     13674
     13676     13675     13677     13679     13678     13680     13682     13681     13683
     13685     13684     13686     13688     13687     13689     13691     13690     13692
     13694     13693     13695     13697     13696     13698     13700     13699     13701
     13703     13702     13704     13706     13705     13707     13709     13708     13710
     13712     13711     13713     13715     13714     13716     13718     13717     13719
     13721     13720     13722     13724     13723     13725     13727     13726     13728
     13730     13729     13731     13733     13732     13734     13736     13735     13737
     13739     13738     13740     13742     13741     13743     13745     13744     13746
     13748     13747     13749     13751     13750     13752     13754     13753     13755
     13757     13756     13758     13760     13759     13761     13763     13762     13764
     13766     13765     13767     13769     13768     13770     13772     13771     13773
     13775     13774     13776     13778     13777     13779     13781     13780     13782
     13784     13783     13785     13787     13786     13788     13790     13789     13791
     13793     13792     13794     13796     13795     13797     13799     13798     13800
     13802     13801     13803     13805     13804     13806     13808     13807     13809
     13811     13810     13812     13814     13813     13815     13817     13816     13818
     13820     13819     13821     13823     13822     13824     13826     13825     13827
     13829     13828     13830     13832     13831     13833     13835     13834     13836
     13838     13837     13839     13841     13840     13842     13844     13843     13845
     13847     13846     13848     13850     13849     13851     13853     13852     13854
     13856     13855     13857     13859     13858     13860     13862     13861     13863
     13865     13864     13866     13868     13867     13869     13871     13870     13872
     13874     13873     13875     13877     13876     13878     13880     13879     13881
     13883     13882     13884     13886     13885     13887     13889     13888     13890
     13892     13891     13893     13895     13894     13896     13898     13897     13899
     13901     13900     13902     13904     13903     13905     13907     13906     13908
     13910     13909     13911     13913     13912     13914     13916     13915     13917
     13919     13918     13920     13922     13921     13923     13925     13924     13926
     13928     13927     13929     13931     13930     13932     13934     13933     13935
     13937     13936     13938     13940     13939     13941     13943     13942     13944
     13946     13945     13947     13949     13948     13950     13952     13951     13953
     13955     13954     13956     13958     13957     13959     13961     13960     13962
     13964     13963     13965     13967     13966     13968     13970     13969     13971
     13973     13972     13974     13976     13975     13977     13979     13978     13980
     13982     13981     13983     13985     13984     13986     13988     13987     13989
     13991     13990     13992     13994     13993     13995     13997     13996     13998
     14000     13999     14001     14003     14002     14004     14006     14005     14007
     14009     14008     14010     14012     14011     14013     14015     14014     14016
     14018     14017     14019     14021     14020     14022     14024     14023     14025
     14027     14026     14028     14030     14029     14031     14033     14032     14034
     14036     14035     14037     14039     14038     14040     14042     14041     14043
     14045     14044     14046     14048     14047     14049     14051     14050     14052
     14054     14053     14055     14057     14056     14058     14060     14059     14061
     14063     14062     14064     14066     14065     14067     14069     14068     14070
     14072     14071     14073     14075     14074     14076     14078     14077     14079
     14081     14080     14082     14084     14083     14085     14087     14086     14088
     14090     14089     14091     14093     14092     14094     14096     14095     14097
     14099     14098     14100     14102     14101     14103     14105     14104     14106
     14108     14107     14109     14111     14110     14112     14114     14113     14115
     14117     14116     14118     14120     14119     14121     14123     14122     14124
     14126     14125     14127     14129     14128     14130     14132     14131     14133
     14135     14134     14136     14138     14137     14139     14141     14140     14142
     14144     14143     14145     14147     14146     14148     14150     14149     14151
     14153     14152     14154     14156     14155     14157     14159     14158     14160
     14162     14161     14163     14165     14164     14166     14168     14167     14169
     14171     14170     14172     14174     14173     14175     14177     14176     14178
     14180     14179     14181     14183     14182     14184     14186     14185     14187
     14189     14188     14190     14192     14191     14193     14195     14194     14196
     14198     14197     14199     14201     14200     14202     14204     14203     14205
     14207     14206     14208     14210     14209     14211     14213     14212     14214
     14216     14215     14217     14219     14218     14220     14222     14221     14223
     14225     14224     14226     14228     14227     14229     14231     14230     14232
     14234     14233     14235     14237     14236     14238     14240     14239     14241
     14243     14242     14244     14246     14245     14247     14249     14248     14250
     14252     14251     14253     14255     14254     14256     14258     14257     14259
     14261     14260     14262     14264     14263     14265     14267     14266     14268
     14270     14269     14271     14273     14272     14274     14276     14275     14277
     14279     14278     14280     14282     14281     14283     14285     14284     14286
     14288     14287     14289     14291     14290     14292     14294     14293     14295
     14297     14296     14298     14300     14299     14301     14303     14302     14304
     14306     14305     14307     14309     14308     14310     14312     14311     14313
     14315     14314     14316     14318     14317     14319     14321     14320     14322
     14324     14323     14325     14327     14326     14328     14330     14329     14331
     14333     14332     14334     14336     14335     14337     14339     14338     14340
     14342     14341     14343     14345     14344     14346     14348     14347     14349
     14351     14350     14352     14354     14353     14355     14357     14356     14358
     14360     14359     14361     14363     14362     14364     14366     14365     14367
     14369     14368     14370     14372     14371     14373     14375     14374     14376
     14378     14377     14379     14381     14380     14382     14384     14383     14385
     14387     14386     14388     14390     14389     14391     14393     14392     14394
     14396     14395     14397     14399     14398     14400     14402     14401     14403
     14405     14404     14406     14408     14407     14409     14411     14410     14412
     14414     14413     14415     14417     14416     14418     14420     14419     14421
     14423     14422     14424     14426     14425     14427     14429     14428     14430
     14432     14431     14433     14435     14434     14436     14438     14437     14439
     14441     14440     14442     14444     14443     14445     14447     14446     14448
     14450     14449     14451     14453     14452     14454     14456     14455     14457
     14459     14458     14460     14462     14461     14463     14465     14464     14466
     14468     14467     14469     14471     14470     14472     14474     14473     14475
     14477     14476     14478     14480     14479     14481     14483     14482     14484
     14486     14485     14487     14489     14488     14490     14492     14491     14493
     14495     14494     14496     14498     14497     14499     14501     14500     14502
     14504     14503     14505     14507     14506     14508     14510     14509     14511
     14513     14512     14514     14516     14515     14517     14519     14518     14520
     14522     14521     14523     14525     14524     14526     14528     14527     14529
     14531     14530     14532     14534     14533     14535     14537     14536     14538
     14540     14539     14541     14543     14542     14544     14546     14545     14547
     14549     14548     14550     14552     14551     14553     14555     14554     14556
     14558     14557     14559     14561     14560     14562     14564     14563     14565
     14567     14566     14568     14570     14569     14571     14573     14572     14574
     14576     14575     14577     14579     14578     14580     14582     14581     14583
     14585     14584     14586     14588     14587     14589     14591     14590     14592
     14594     14593     14595     14597     14596     14598     14600     14599     14601
     14603     14602     14604     14606     14605     14607     14609     14608     14610
     14612     14611     14613     14615     14614     14616     14618     14617     14619
     14621     14620     14622     14624     14623     14625     14627     14626     14628
     14630     14629     14631     14633     14632     14634     14636     14635     14637
     14639     14638     14640     14642     14641     14643     14645     14644     14646
     14648     14647     14649     14651     14650     14652     14654     14653     14655
     14657     14656     14658     14660     14659     14661     14663     14662     14664
     14666     14665     14667     14669     14668     14670     14672     14671     14673
     14675     14674     14676     14678     14677     14679     14681     14680     14682
     14684     14683     14685     14687     14686     14688     14690     14689     14691
     14693     14692     14694     14696     14695     14697     14699     14698     14700
     14702     14701     14703     14705     14704     14706     14708     14707     14709
     14711     14710     14712     14714     14713     14715     14717     14716     14718
     14720     14719     14721     14723     14722     14724     14726     14725     14727
     14729     14728     14730     14732     14731     14733     14735     14734     14736
     14738     14737     14739     14741     14740     14742     14744     14743     14745
     14747     14746     14748     14750     14749     14751     14753     14752     14754
     14756     14755     14757     14759     14758     14760     14762     14761     14763
     14765     14764     14766     14768     14767     14769     14771     14770     14772
     14774     14773     14775     14777     14776     14778     14780     14779     14781
     14783     14782     14784     14786     14785     14787     14789     14788     14790
     14792     14791     14793     14795     14794     14796     14798     14797     14799
     14801     14800     14802     14804     14803     14805     14807     14806     14808
     14810     14809     14811     14813     14812     14814     14816     14815     14817
     14819     14818     14820     14822     14821     14823     14825     14824     14826
     14828     14827     14829     14831     14830     14832     14834     14833     14835
     14837     14836     14838     14840     14839     14841     14843     14842     14844
     14846     14845     14847     14849     14848     14850     14852     14851     14853
     14855     14854     14856     14858     14857     14859     14861     14860     14862
     14864     14863     14865     14867     14866     14868     14870     14869     14871
     14873     14872     14874     14876     14875     14877     14879     14878     14880
     14882     14881     14883     14885     14884     14886     14888     14887     14889
     14891     14890     14892     14894     14893     14895     14897     14896     14898
     14900     14899     14901     14903     14902     14904     14906     14905     14907
     14909     14908     14910     14912     14911     14913     14915     14914     14916
     14918     14917     14919     14921     14920     14922     14924     14923     14925
     14927     14926     14928     14930     14929     14931     14933     14932     14934
     14936     14935     14937     14939     14938     14940     14942     14941     14943
     14945     14944     14946     14948     14947     14949     14951     14950     14952
     14954     14953     14955     14957     14956     14958     14960     14959     14961
     14963     14962     14964     14966     14965     14967     14969     14968     14970
     14972     14971     14973     14975     14974     14976     14978     14977     14979
     14981     14980     14982     14984     14983     14985     14987     14986     14988
     14990     14989     14991     14993     14992     14994     14996     14995     14997
     14999     14998     15000     15002     15001     15003     15005     15004     15006
     15008     15007     15009     15011     15010     15012     15014     15013     15015
     15017     15016     15018     15020     15019     15021     15023     15022     15024
     15026     15025     15027     15029     15028     15030     15032     15031     15033
     15035     15034     15036     15038     15037     15039     15041     15040     15042
     15044     15043     15045     15047     15046     15048     15050     15049     15051
     15053     15052     15054     15056     15055     15057     15059     15058     15060
     15062     15061     15063     15065     15064     15066     15068     15067     15069
     15071     15070     15072     15074     15073     15075     15077     15076     15078
     15080     15079     15081     15083     15082     15084     15086     15085     15087
     15089     15088     15090     15092     15091     15093     15095     15094     15096
     15098     15097     15099     15101     15100     15102     15104     15103     15105
     15107     15106     15108     15110     15109     15111     15113     15112     15114
     15116     15115     15117     15119     15118     15120     15122     15121     15123
     15125     15124     15126     15128     15127     15129     15131     15130     15132
     15134     15133     15135     15137     15136     15138     15140     15139     15141
     15143     15142     15144     15146     15145     15147     15149     15148     15150
     15152     15151     15153     15155     15154     15156     15158     15157     15159
     15161     15160     15162     15164     15163     15165     15167     15166     15168
     15170     15169     15171     15173     15172     15174     15176     15175     15177
     15179     15178     15180     15182     15181     15183     15185     15184     15186
     15188     15187     15189     15191     15190     15192     15194     15193     15195
     15197     15196     15198     15200     15199     15201     15203     15202     15204
     15206     15205     15207     15209     15208     15210     15212     15211     15213
     15215     15214     15216     15218     15217     15219     15221     15220     15222
     15224     15223     15225     15227     15226     15228     15230     15229     15231
     15233     15232     15234     15236     15235     15237     15239     15238     15240
     15242     15241     15243     15245     15244     15246     15248     15247     15249
     15251     15250     15252     15254     15253     15255     15257     15256     15258
     15260     15259     15261     15263     15262     15264     15266     15265     15267
     15269     15268     15270     15272     15271     15273     15275     15274     15276
     15278     15277     15279     15281     15280     15282     15284     15283     15285
     15287     15286     15288     15290     15289     15291     15293     15292     15294
     15296     15295     15297     15299     15298     15300     15302     15301     15303
     15305     15304     15306     15308     15307     15309     15311     15310     15312
     15314     15313     15315     15317     15316     15318     15320     15319     15321
     15323     15322     15324     15326     15325     15327     15329     15328     15330
     15332     15331     15333     15335     15334     15336     15338     15337     15339
     15341     15340     15342     15344     15343     15345     15347     15346     15348
     15350     15349     15351     15353     15352     15354     15356     15355     15357
     15359     15358     15360     15362     15361     15363     15365     15364     15366
     15368     15367     15369     15371     15370     15372     15374     15373     15375
     15377     15376     15378     15380     15379     15381     15383     15382     15384
     15386     15385     15387     15389     15388     15390     15392     15391     15393
     15395     15394     15396     15398     15397     15399     15401     15400     15402
     15404     15403     15405     15407     15406     15408     15410     15409     15411
     15413     15412     15414     15416     15415     15417     15419     15418     15420
     15422     15421     15423     15425     15424     15426     15428     15427     15429
     15431     15430     15432     15434     15433     15435     15437     15436     15438
     15440     15439     15441     15443     15442     15444     15446     15445     15447
     15449     15448     15450     15452     15451     15453     15455     15454     15456
     15458     15457     15459     15461     15460     15462     15464     15463     15465
     15467     15466     15468     15470     15469     15471     15473     15472     15474
     15476     15475     15477     15479     15478     15480     15482     15481     15483
     15485     15484     15486     15488     15487     15489     15491     15490     15492
     15494     15493     15495     15497     15496     15498     15500     15499     15501
     15503     15502     15504     15506     15505     15507     15509     15508     15510
     15512     15511     15513     15515     15514     15516     15518     15517     15519
     15521     15520     15522     15524     15523     15525     15527     15526     15528
     15530     15529     15531     15533     15532     15534     15536     15535     15537
     15539     15538     15540     15542     15541     15543     15545     15544     15546
     15548     15547     15549     15551     15550     15552     15554     15553     15555
     15557     15556     15558     15560     15559     15561     15563     15562     15564
     15566     15565     15567     15569     15568     15570     15572     15571     15573
     15575     15574     15576     15578     15577     15579     15581     15580     15582
     15584     15583     15585     15587     15586     15588     15590     15589     15591
     15593     15592     15594     15596     15595     15597     15599     15598     15600
     15602     15601     15603     15605     15604     15606     15608     15607     15609
     15611     15610     15612     15614     15613     15615     15617     15616     15618
     15620     15619     15621     15623     15622     15624     15626     15625     15627
     15629     15628     15630     15632     15631     15633     15635     15634     15636
     15638     15637     15639     15641     15640     15642     15644     15643     15645
     15647     15646     15648     15650     15649     15651     15653     15652     15654
     15656     15655     15657     15659     15658     15660     15662     15661     15663
     15665     15664     15666     15668     15667     15669     15671     15670     15672
     15674     15673     15675     15677     15676     15678     15680     15679     15681
     15683     15682     15684     15686     15685     15687     15689     15688     15690
     15692     15691     15693     15695     15694     15696     15698     15697     15699
     15701     15700     15702     15704     15703     15705     15707     15706     15708
     15710     15709     15711     15713     15712     15714     15716     15715     15717
     15719     15718     15720     15722     15721     15723     15725     15724     15726
     15728     15727     15729     15731     15730     15732     15734     15733     15735
     15737     15736     15738     15740     15739     15741     15743     15742     15744
     15746     15745     15747     15749     15748     15750     15752     15751     15753
     15755     15754     15756     15758     15757     15759     15761     15760     15762
     15764     15763     15765     15767     15766     15768     15770     15769     15771
     15773     15772     15774     15776     15775     15777     15779     15778     15780
     15782     15781     15783     15785     15784     15786     15788     15787     15789
     15791     15790     15792     15794     15793     15795     15797     15796     15798
     15800     15799     15801     15803     15802     15804     15806     15805     15807
     15809     15808     15810     15812     15811     15813     15815     15814     15816
     15818     15817     15819     15821     15820     15822     15824     15823     15825
     15827     15826     15828     15830     15829     15831     15833     15832     15834
     15836     15835     15837     15839     15838     15840     15842     15841     15843
     15845     15844     15846     15848     15847     15849     15851     15850     15852
     15854     15853     15855     15857     15856     15858     15860     15859     15861
     15863     15862     15864     15866     15865     15867     15869     15868     15870
     15872     15871     15873     15875     15874     15876     15878     15877     15879
     15881     15880     15882     15884     15883     15885     15887     15886     15888
     15890     15889     15891     15893     15892     15894     15896     15895     15897
     15899     15898     15900     15902     15901     15903     15905     15904     15906
     15908     15907     15909     15911     15910     15912     15914     15913     15915
     15917     15916     15918     15920     15919     15921     15923     15922     15924
     15926     15925     15927     15929     15928     15930     15932     15931     15933
     15935     15934     15936     15938     15937     15939     15941     15940     15942
     15944     15943     15945     15947     15946     15948     15950     15949     15951
     15953     15952     15954     15956     15955     15957     15959     15958     15960
     15962     15961     15963     15965     15964     15966     15968     15967     15969
     15971     15970     15972     15974     15973     15975     15977     15976     15978
     15980     15979     15981     15983     15982     15984     15986     15985     15987
     15989     15988     15990     15992     15991     15993     15995     15994     15996
     15998     15997     15999     16001     16000     16002     16004     16003     16005
     16007     16006     16008     16010     16009     16011     16013     16012     16014
     16016     16015     16017     16019     16018     16020     16022     16021     16023
     16025     16024     16026     16028     16027     16029     16031     16030     16032
     16034     16033     16035     16037     16036     16038     16040     16039     16041
     16043     16042     16044     16046     16045     16047     16049     16048     16050
     16052     16051     16053     16055     16054     16056     16058     16057     16059
     16061     16060     16062     16064     16063     16065     16067     16066     16068
     16070     16069     16071     16073     16072     16074     16076     16075     16077
     16079     16078     16080     16082     16081     16083     16085     16084     16086
     16088     16087     16089     16091     16090     16092     16094     16093     16095
     16097     16096     16098     16100     16099     16101     16103     16102     16104
     16106     16105     16107     16109     16108     16110     16112     16111     16113
     16115     16114     16116     16118     16117     16119     16121     16120     16122
     16124     16123     16125     16127     16126     16128     16130     16129     16131
     16133     16132     16134     16136     16135     16137     16139     16138     16140
     16142     16141     16143     16145     16144     16146     16148     16147     16149
     16151     16150     16152     16154     16153     16155     16157     16156     16158
     16160     16159     16161     16163     16162     16164     16166     16165     16167
     16169     16168     16170     16172     16171     16173     16175     16174     16176
     16178     16177     16179     16181     16180     16182     16184     16183     16185
     16187     16186     16188     16190     16189     16191     16193     16192     16194
     16196     16195     16197     16199     16198     16200     16202     16201     16203
     16205     16204     16206     16208     16207     16209     16211     16210     16212
     16214     16213     16215     16217     16216     16218     16220     16219     16221
     16223     16222     16224     16226     16225     16227     16229     16228     16230
     16232     16231     16233     16235     16234     16236     16238     16237     16239
     16241     16240     16242     16244     16243     16245     16247     16246     16248
     16250     16249     16251     16253     16252     16254     16256     16255     16257
     16259     16258     16260     16262     16261     16263     16265     16264     16266
     16268     16267     16269     16271     16270     16272     16274     16273     16275
     16277     16276     16278     16280     16279     16281     16283     16282     16284
     16286     16285     16287     16289     16288     16290     16292     16291     16293
     16295     16294     16296     16298     16297     16299     16301     16300     16302
     16304     16303     16305     16307     16306     16308     16310     16309     16311
     16313     16312     16314     16316     16315     16317     16319     16318     16320
     16322     16321     16323     16325     16324     16326     16328     16327     16329
     16331     16330     16332     16334     16333     16335     16337     16336     16338
     16340     16339     16341     16343     16342     16344     16346     16345     16347
     16349     16348     16350     16352     16351     16353     16355     16354     16356
     16358     16357     16359     16361     16360     16362     16364     16363     16365
     16367     16366     16368     16370     16369     16371     16373     16372     16374
     16376     16375     16377     16379     16378     16380     16382     16381     16383
     16385     16384     16386     16388     16387     16389     16391     16390     16392
     16394     16393     16395     16397     16396     16398     16400     16399     16401
     16403     16402     16404     16406     16405     16407     16409     16408     16410
     16412     16411     16413     16415     16414     16416     16418     16417     16419
     16421     16420     16422     16424     16423     16425     16427     16426     16428
     16430     16429     16431     16433     16432     16434     16436     16435     16437
     16439     16438     16440     16442     16441     16443     16445     16444     16446
     16448     16447     16449     16451     16450     16452     16454     16453     16455
     16457     16456     16458     16460     16459     16461     16463     16462     16464
     16466     16465     16467     16469     16468     16470     16472     16471     16473
     16475     16474     16476     16478     16477     16479     16481     16480     16482
     16484     16483     16485     16487     16486     16488     16490     16489     16491
     16493     16492     16494     16496     16495     16497     16499     16498     16500
     16502     16501     16503     16505     16504     16506     16508     16507     16509
     16511     16510     16512     16514     16513     16515     16517     16516     16518
     16520     16519     16521     16523     16522     16524     16526     16525     16527
     16529     16528     16530     16532     16531     16533     16535     16534     16536
     16538     16537     16539     16541     16540     16542     16544     16543     16545
     16547     16546     16548     16550     16549     16551     16553     16552     16554
     16556     16555     16557     16559     16558     16560     16562     16561     16563
     16565     16564     16566     16568     16567     16569     16571     16570     16572
     16574     16573     16575     16577     16576     16578     16580     16579     16581
     16583     16582     16584     16586     16585     16587     16589     16588     16590
     16592     16591     16593     16595     16594     16596     16598     16597     16599
     16601     16600     16602     16604     16603     16605     16607     16606     16608
     16610     16609     16611     16613     16612     16614     16616     16615     16617
     16619     16618     16620     16622     16621     16623     16625     16624     16626
     16628     16627     16629     16631     16630     16632     16634     16633     16635
     16637     16636     16638     16640     16639     16641     16643     16642     16644
     16646     16645     16647     16649     16648     16650     16652     16651     16653
     16655     16654     16656     16658     16657     16659     16661     16660     16662
     16664     16663     16665     16667     16666     16668     16670     16669     16671
     16673     16672     16674     16676     16675     16677     16679     16678     16680
     16682     16681     16683     16685     16684     16686     16688     16687     16689
     16691     16690     16692     16694     16693     16695     16697     16696     16698
     16700     16699     16701     16703     16702     16704     16706     16705     16707
     16709     16708     16710     16712     16711     16713     16715     16714     16716
     16718     16717     16719     16721     16720     16722     16724     16723     16725
     16727     16726     16728     16730     16729     16731     16733     16732     16734
     16736     16735     16737     16739     16738     16740     16742     16741     16743
     16745     16744     16746     16748     16747     16749     16751     16750     16752
     16754     16753     16755     16757     16756     16758     16760     16759     16761
     16763     16762     16764     16766     16765     16767     16769     16768     16770
     16772     16771     16773     16775     16774     16776     16778     16777     16779
     16781     16780     16782     16784     16783     16785     16787     16786     16788
     16790     16789     16791     16793     16792     16794     16796     16795     16797
     16799     16798     16800     16802     16801     16803     16805     16804     16806
     16808     16807     16809     16811     16810     16812     16814     16813     16815
     16817     16816     16818     16820     16819     16821     16823     16822     16824
     16826     16825     16827     16829     16828     16830     16832     16831     16833
     16835     16834     16836     16838     16837     16839     16841     16840     16842
     16844     16843     16845     16847     16846     16848     16850     16849     16851
     16853     16852     16854     16856     16855     16857     16859     16858     16860
     16862     16861     16863     16865     16864     16866     16868     16867     16869
     16871     16870     16872     16874     16873     16875     16877     16876     16878
     16880     16879     16881     16883     16882     16884     16886     16885     16887
     16889     16888     16890     16892     16891     16893     16895     16894     16896
     16898     16897     16899     16901     16900     16902     16904     16903     16905
     16907     16906     16908     16910     16909     16911     16913     16912     16914
     16916     16915     16917     16919     16918     16920     16922     16921     16923
     16925     16924     16926     16928     16927     16929     16931     16930     16932
     16934     16933     16935     16937     16936     16938     16940     16939     16941
     16943     16942     16944     16946     16945     16947     16949     16948     16950
     16952     16951     16953     16955     16954     16956     16958     16957     16959
     16961     16960     16962     16964     16963     16965     16967     16966     16968
     16970     16969     16971     16973     16972     16974     16976     16975     16977
     16979     16978     16980     16982     16981     16983     16985     16984     16986
     16988     16987     16989     16991     16990     16992     16994     16993     16995
     16997     16996     16998     17000     16999     17001     17003     17002     17004
     17006     17005     17007     17009     17008     17010     17012     17011     17013
     17015     17014     17016     17018     17017     17019     17021     17020     17022
     17024     17023     17025     17027     17026     17028     17030     17029     17031
     17033     17032     17034     17036     17035     17037     17039     17038     17040
     17042     17041     17043     17045     17044     17046     17048     17047     17049
     17051     17050     17052     17054     17053     17055     17057     17056     17058
     17060     17059     17061     17063     17062     17064     17066     17065     17067
     17069     17068     17070     17072     17071     17073     17075     17074     17076
     17078     17077     17079     17081     17080     17082     17084     17083     17085
     17087     17086     17088     17090     17089     17091     17093     17092     17094
     17096     17095     17097     17099     17098     17100     17102     17101     17103
     17105     17104     17106     17108     17107     17109     17111     17110     17112
     17114     17113     17115     17117     17116     17118     17120     17119     17121
     17123     17122     17124     17126     17125     17127     17129     17128     17130
     17132     17131     17133     17135     17134     17136     17138     17137     17139
     17141     17140     17142     17144     17143     17145     17147     17146     17148
     17150     17149     17151     17153     17152     17154     17156     17155     17157
     17159     17158     17160     17162     17161     17163     17165     17164     17166
     17168     17167     17169     17171     17170     17172     17174     17173     17175
     17177     17176     17178     17180     17179     17181     17183     17182     17184
     17186     17185     17187     17189     17188     17190     17192     17191     17193
     17195     17194     17196     17198     17197     17199     17201     17200     17202
     17204     17203     17205     17207     17206     17208     17210     17209     17211
     17213     17212     17214     17216     17215     17217     17219     17218     17220
     17222     17221     17223     17225     17224     17226     17228     17227     17229
     17231     17230     17232     17234     17233     17235     17237     17236     17238
     17240     17239     17241     17243     17242     17244     17246     17245     17247
     17249     17248     17250     17252     17251     17253     17255     17254     17256
     17258     17257     17259     17261     17260     17262     17264     17263     17265
     17267     17266     17268     17270     17269     17271     17273     17272     17274
     17276     17275     17277     17279     17278     17280     17282     17281     17283
     17285     17284     17286     17288     17287     17289     17291     17290     17292
     17294     17293     17295     17297     17296     17298     17300     17299     17301
     17303     17302     17304     17306     17305     17307     17309     17308     17310
     17312     17311     17313     17315     17314     17316     17318     17317     17319
     17321     17320     17322     17324     17323     17325     17327     17326     17328
     17330     17329     17331     17333     17332     17334     17336     17335     17337
     17339     17338     17340     17342     17341     17343     17345     17344     17346
     17348     17347     17349     17351     17350     17352     17354     17353     17355
     17357     17356     17358     17360     17359     17361     17363     17362     17364
     17366     17365     17367     17369     17368     17370     17372     17371     17373
     17375     17374     17376     17378     17377     17379     17381     17380     17382
     17384     17383     17385     17387     17386     17388     17390     17389     17391
     17393     17392     17394     17396     17395     17397     17399     17398     17400
     17402     17401     17403     17405     17404     17406     17408     17407     17409
     17411     17410     17412     17414     17413     17415     17417     17416     17418
     17420     17419     17421     17423     17422     17424     17426     17425     17427
     17429     17428     17430     17432     17431     17433     17435     17434     17436
     17438     17437     17439     17441     17440     17442     17444     17443     17445
     17447     17446     17448     17450     17449     17451     17453     17452     17454
     17456     17455     17457     17459     17458     17460     17462     17461     17463
     17465     17464     17466     17468     17467     17469     17471     17470     17472
     17474     17473     17475     17477     17476     17478     17480     17479     17481
     17483     17482     17484     17486     17485     17487     17489     17488     17490
     17492     17491     17493     17495     17494     17496     17498     17497     17499
     17501     17500     17502     17504     17503     17505     17507     17506     17508
     17510     17509     17511     17513     17512     17514     17516     17515     17517
     17519     17518     17520     17522     17521     17523     17525     17524     17526
     17528     17527     17529     17531     17530     17532     17534     17533     17535
     17537     17536     17538     17540     17539     17541     17543     17542     17544
     17546     17545     17547     17549     17548     17550     17552     17551     17553
     17555     17554     17556     17558     17557     17559     17561     17560     17562
     17564     17563     17565     17567     17566     17568     17570     17569     17571
     17573     17572     17574     17576     17575     17577     17579     17578     17580
     17582     17581     17583     17585     17584     17586     17588     17587     17589
     17591     17590     17592     17594     17593     17595     17597     17596     17598
     17600     17599     17601     17603     17602     17604     17606     17605     17607
     17609     17608     17610     17612     17611     17613     17615     17614     17616
     17618     17617     17619     17621     17620     17622     17624     17623     17625
     17627     17626     17628     17630     17629     17631     17633     17632     17634
     17636     17635     17637     17639     17638     17640     17642     17641     17643
     17645     17644     17646     17648     17647     17649     17651     17650     17652
     17654     17653     17655     17657     17656     17658     17660     17659     17661
     17663     17662     17664     17666     17665     17667     17669     17668     17670
     17672     17671     17673     17675     17674     17676     17678     17677     17679
     17681     17680     17682     17684     17683     17685     17687     17686     17688
     17690     17689     17691     17693     17692     17694     17696     17695     17697
     17699     17698     17700     17702     17701     17703     17705     17704     17706
     17708     17707     17709     17711     17710     17712     17714     17713     17715
     17717     17716     17718     17720     17719     17721     17723     17722     17724
     17726     17725     17727     17729     17728     17730     17732     17731     17733
     17735     17734     17736     17738     17737     17739     17741     17740     17742
     17744     17743     17745     17747     17746     17748     17750     17749     17751
     17753     17752     17754     17756     17755     17757     17759     17758     17760
     17762     17761     17763     17765     17764     17766     17768     17767     17769
     17771     17770     17772     17774     17773     17775     17777     17776     17778
     17780     17779     17781     17783     17782     17784     17786     17785     17787
     17789     17788     17790     17792     17791     17793     17795     17794     17796
     17798     17797     17799     17801     17800     17802     17804     17803     17805
     17807     17806     17808     17810     17809     17811     17813     17812     17814
     17816     17815     17817     17819     17818     17820     17822     17821     17823
     17825     17824     17826     17828     17827     17829     17831     17830     17832
     17834     17833     17835     17837     17836     17838     17840     17839     17841
     17843     17842     17844     17846     17845     17847     17849     17848     17850
     17852     17851     17853     17855     17854     17856     17858     17857     17859
     17861     17860     17862     17864     17863     17865     17867     17866     17868
     17870     17869     17871     17873     17872     17874     17876     17875     17877
     17879     17878     17880     17882     17881     17883     17885     17884     17886
     17888     17887     17889     17891     17890     17892     17894     17893     17895
     17897     17896     17898     17900     17899     17901     17903     17902     17904
     17906     17905     17907     17909     17908     17910     17912     17911     17913
     17915     17914     17916     17918     17917     17919     17921     17920     17922
     17924     17923     17925     17927     17926     17928     17930     17929     17931
     17933     17932     17934     17936     17935     17937     17939     17938     17940
     17942     17941     17943     17945     17944     17946     17948     17947     17949
     17951     17950     17952     17954     17953     17955     17957     17956     17958
     17960     17959     17961     17963     17962     17964     17966     17965     17967
     17969     17968     17970     17972     17971     17973     17975     17974     17976
     17978     17977     17979     17981     17980     17982     17984     17983     17985
     17987     17986     17988     17990     17989     17991     17993     17992     17994
     17996     17995     17997     17999     17998     18000     18002     18001     18003
     18005     18004     18006     18008     18007     18009     18011     18010     18012
     18014     18013     18015     18017     18016     18018     18020     18019     18021
     18023     18022     18024     18026     18025     18027     18029     18028     18030
     18032     18031     18033     18035     18034     18036     18038     18037     18039
     18041     18040     18042     18044     18043     18045     18047     18046     18048
     18050     18049     18051     18053     18052     18054     18056     18055     18057
     18059     18058     18060     18062     18061     18063     18065     18064     18066
     18068     18067     18069     18071     18070     18072     18074     18073     18075
     18077     18076     18078     18080     18079     18081     18083     18082     18084
     18086     18085     18087     18089     18088     18090     18092     18091     18093
     18095     18094     18096     18098     18097     18099     18101     18100     18102
     18104     18103     18105     18107     18106     18108     18110     18109     18111
     18113     18112     18114     18116     18115     18117     18119     18118     18120
     18122     18121     18123     18125     18124     18126     18128     18127     18129
     18131     18130     18132     18134     18133     18135     18137     18136     18138
     18140     18139     18141     18143     18142     18144     18146     18145     18147
     18149     18148     18150     18152     18151     18153     18155     18154     18156
     18158     18157     18159     18161     18160     18162     18164     18163     18165
     18167     18166     18168     18170     18169     18171     18173     18172     18174
     18176     18175     18177     18179     18178     18180     18182     18181     18183
     18185     18184     18186     18188     18187     18189     18191     18190     18192
     18194     18193     18195     18197     18196     18198     18200     18199     18201
     18203     18202     18204     18206     18205     18207     18209     18208     18210
     18212     18211     18213     18215     18214     18216     18218     18217     18219
     18221     18220     18222     18224     18223     18225     18227     18226     18228
     18230     18229     18231     18233     18232     18234     18236     18235     18237
     18239     18238     18240     18242     18241     18243     18245     18244     18246
     18248     18247     18249     18251     18250     18252     18254     18253     18255
     18257     18256     18258     18260     18259     18261     18263     18262     18264
     18266     18265     18267     18269     18268     18270     18272     18271     18273
     18275     18274     18276     18278     18277     18279     18281     18280     18282
     18284     18283     18285     18287     18286     18288     18290     18289     18291
     18293     18292     18294     18296     18295     18297     18299     18298     18300
     18302     18301     18303     18305     18304     18306     18308     18307     18309
     18311     18310     18312     18314     18313     18315     18317     18316     18318
     18320     18319     18321     18323     18322     18324     18326     18325     18327
     18329     18328     18330     18332     18331     18333     18335     18334     18336
     18338     18337     18339     18341     18340     18342     18344     18343     18345
     18347     18346     18348     18350     18349     18351     18353     18352     18354
     18356     18355     18357     18359     18358     18360     18362     18361     18363
     18365     18364     18366     18368     18367     18369     18371     18370     18372
     18374     18373     18375     18377     18376     18378     18380     18379     18381
     18383     18382     18384     18386     18385     18387     18389     18388     18390
     18392     18391     18393     18395     18394     18396     18398     18397     18399
     18401     18400     18402     18404     18403     18405     18407     18406     18408
     18410     18409     18411     18413     18412     18414     18416     18415     18417
     18419     18418     18420     18422     18421     18423     18425     18424     18426
     18428     18427     18429     18431     18430     18432     18434     18433     18435
     18437     18436     18438     18440     18439     18441     18443     18442     18444
     18446     18445     18447     18449     18448     18450     18452     18451     18453
     18455     18454     18456     18458     18457     18459     18461     18460     18462
     18464     18463     18465     18467     18466     18468     18470     18469     18471
     18473     18472     18474     18476     18475     18477     18479     18478     18480
     18482     18481     18483     18485     18484     18486     18488     18487     18489
     18491     18490     18492     18494     18493     18495     18497     18496     18498
     18500     18499     18501     18503     18502     18504     18506     18505     18507
     18509     18508     18510     18512     18511     18513     18515     18514     18516
     18518     18517     18519     18521     18520     18522     18524     18523     18525
     18527     18526     18528     18530     18529     18531     18533     18532     18534
     18536     18535     18537     18539     18538     18540     18542     18541     18543
     18545     18544     18546     18548     18547     18549     18551     18550     18552
     18554     18553     18555     18557     18556     18558     18560     18559     18561
     18563     18562     18564     18566     18565     18567     18569     18568     18570
     18572     18571     18573     18575     18574     18576     18578     18577     18579
     18581     18580     18582     18584     18583     18585     18587     18586     18588
     18590     18589     18591     18593     18592     18594     18596     18595     18597
     18599     18598     18600     18602     18601     18603     18605     18604     18606
     18608     18607     18609     18611     18610     18612     18614     18613     18615
     18617     18616     18618     18620     18619     18621     18623     18622     18624
     18626     18625     18627     18629     18628     18630     18632     18631     18633
     18635     18634     18636     18638     18637     18639     18641     18640     18642
     18644     18643     18645     18647     18646     18648     18650     18649     18651
     18653     18652     18654     18656     18655     18657     18659     18658     18660
     18662     18661     18663     18665     18664     18666     18668     18667     18669
     18671     18670     18672     18674     18673     18675     18677     18676     18678
     18680     18679     18681     18683     18682     18684     18686     18685     18687
     18689     18688     18690     18692     18691     18693     18695     18694     18696
     18698     18697     18699     18701     18700     18702     18704     18703     18705
     18707     18706     18708     18710     18709     18711     18713     18712     18714
     18716     18715     18717     18719     18718     18720     18722     18721     18723
     18725     18724     18726     18728     18727     18729     18731     18730     18732
     18734     18733     18735     18737     18736     18738     18740     18739     18741
     18743     18742     18744     18746     18745     18747     18749     18748     18750
     18752     18751     18753     18755     18754     18756     18758     18757     18759
     18761     18760     18762     18764     18763     18765     18767     18766     18768
     18770     18769     18771     18773     18772     18774     18776     18775     18777
     18779     18778     18780     18782     18781     18783     18785     18784     18786
     18788     18787     18789     18791     18790     18792     18794     18793     18795
     18797     18796     18798     18800     18799     18801     18803     18802     18804
     18806     18805     18807     18809     18808     18810     18812     18811     18813
     18815     18814     18816     18818     18817     18819     18821     18820     18822
     18824     18823     18825     18827     18826     18828     18830     18829     18831
     18833     18832     18834     18836     18835     18837     18839     18838     18840
     18842     18841     18843     18845     18844     18846     18848     18847     18849
     18851     18850     18852     18854     18853     18855     18857     18856     18858
     18860     18859     18861     18863     18862     18864     18866     18865     18867
     18869     18868     18870     18872     18871     18873     18875     18874     18876
     18878     18877     18879     18881     18880     18882     18884     18883     18885
     18887     18886     18888     18890     18889     18891     18893     18892     18894
     18896     18895     18897     18899     18898     18900     18902     18901     18903
     18905     18904     18906     18908     18907     18909     18911     18910     18912
     18914     18913     18915     18917     18916     18918     18920     18919     18921
     18923     18922     18924     18926     18925     18927     18929     18928     18930
     18932     18931     18933     18935     18934     18936     18938     18937     18939
     18941     18940     18942     18944     18943     18945     18947     18946     18948
     18950     18949     18951     18953     18952     18954     18956     18955     18957
     18959     18958     18960     18962     18961     18963     18965     18964     18966
     18968     18967     18969     18971     18970     18972     18974     18973     18975
     18977     18976     18978     18980     18979     18981     18983     18982     18984
     18986     18985     18987     18989     18988     18990     18992     18991     18993
     18995     18994     18996     18998     18997     18999     19001     19000     19002
     19004     19003     19005     19007     19006     19008     19010     19009     19011
     19013     19012     19014     19016     19015     19017     19019     19018     19020
     19022     19021     19023     19025     19024     19026     19028     19027     19029
     19031     19030     19032     19034     19033     19035     19037     19036     19038
     19040     19039     19041     19043     19042     19044     19046     19045     19047
     19049     19048     19050     19052     19051     19053     19055     19054     19056
     19058     19057     19059     19061     19060     19062     19064     19063     19065
     19067     19066     19068     19070     19069     19071     19073     19072     19074
     19076     19075     19077     19079     19078     19080     19082     19081     19083
     19085     19084     19086     19088     19087     19089     19091     19090     19092
     19094     19093     19095     19097     19096     19098     19100     19099     19101
     19103     19102     19104     19106     19105     19107     19109     19108     19110
     19112     19111     19113     19115     19114     19116     19118     19117     19119
     19121     19120     19122     19124     19123     19125     19127     19126     19128
     19130     19129     19131     19133     19132     19134     19136     19135     19137
     19139     19138     19140     19142     19141     19143     19145     19144     19146
     19148     19147     19149     19151     19150     19152     19154     19153     19155
     19157     19156     19158     19160     19159     19161     19163     19162     19164
     19166     19165     19167     19169     19168     19170     19172     19171     19173
     19175     19174     19176     19178     19177     19179     19181     19180     19182
     19184     19183     19185     19187     19186     19188     19190     19189     19191
     19193     19192     19194     19196     19195     19197     19199     19198     19200
     19202     19201     19203     19205     19204     19206     19208     19207     19209
     19211     19210     19212     19214     19213     19215     19217     19216     19218
     19220     19219     19221     19223     19222     19224     19226     19225     19227
     19229     19228     19230     19232     19231     19233     19235     19234     19236
     19238     19237     19239     19241     19240     19242     19244     19243     19245
     19247     19246     19248     19250     19249     19251     19253     19252     19254
     19256     19255     19257     19259     19258     19260     19262     19261     19263
     19265     19264     19266     19268     19267     19269     19271     19270     19272
     19274     19273     19275     19277     19276     19278     19280     19279     19281
     19283     19282     19284     19286     19285     19287     19289     19288     19290
     19292     19291     19293     19295     19294     19296     19298     19297     19299
     19301     19300     19302     19304     19303     19305     19307     19306     19308
     19310     19309     19311     19313     19312     19314     19316     19315     19317
     19319     19318     19320     19322     19321     19323     19325     19324     19326
     19328     19327     19329     19331     19330     19332     19334     19333     19335
     19337     19336     19338     19340     19339     19341     19343     19342     19344
     19346     19345     19347     19349     19348     19350     19352     19351     19353
     19355     19354     19356     19358     19357     19359     19361     19360     19362
     19364     19363     19365     19367     19366     19368     19370     19369     19371
     19373     19372     19374     19376     19375     19377     19379     19378     19380
     19382     19381     19383     19385     19384     19386     19388     19387     19389
     19391     19390     19392     19394     19393     19395     19397     19396     19398
     19400     19399     19401     19403     19402     19404     19406     19405     19407
     19409     19408     19410     19412     19411     19413     19415     19414     19416
     19418     19417     19419     19421     19420     19422     19424     19423     19425
     19427     19426     19428     19430     19429     19431     19433     19432     19434
     19436     19435     19437     19439     19438     19440     19442     19441     19443
     19445     19444     19446     19448     19447     19449     19451     19450     19452
     19454     19453     19455     19457     19456     19458     19460     19459     19461
     19463     19462     19464     19466     19465     19467     19469     19468     19470
     19472     19471     19473     19475     19474     19476     19478     19477     19479
     19481     19480     19482     19484     19483     19485     19487     19486     19488
     19490     19489     19491     19493     19492     19494     19496     19495     19497
     19499     19498     19500     19502     19501     19503     19505     19504     19506
     19508     19507     19509     19511     19510     19512     19514     19513     19515
     19517     19516     19518     19520     19519     19521     19523     19522     19524
     19526     19525     19527     19529     19528     19530     19532     19531     19533
     19535     19534     19536     19538     19537     19539     19541     19540     19542
     19544     19543     19545     19547     19546     19548     19550     19549     19551
     19553     19552     19554     19556     19555     19557     19559     19558     19560
     19562     19561     19563     19565     19564     19566     19568     19567     19569
     19571     19570     19572     19574     19573     19575     19577     19576     19578
     19580     19579     19581     19583     19582     19584     19586     19585     19587
     19589     19588     19590     19592     19591     19593     19595     19594     19596
     19598     19597     19599     19601     19600     19602     19604     19603     19605
     19607     19606     19608     19610     19609     19611     19613     19612     19614
     19616     19615     19617     19619     19618     19620     19622     19621     19623
     19625     19624     19626     19628     19627     19629     19631     19630     19632
     19634     19633     19635     19637     19636     19638     19640     19639     19641
     19643     19642     19644     19646     19645     19647     19649     19648     19650
     19652     19651     19653     19655     19654     19656     19658     19657     19659
     19661     19660     19662     19664     19663     19665     19667     19666     19668
     19670     19669     19671     19673     19672     19674     19676     19675     19677
     19679     19678     19680     19682     19681     19683     19685     19684     19686
     19688     19687     19689     19691     19690     19692     19694     19693     19695
     19697     19696     19698     19700     19699     19701     19703     19702     19704
     19706     19705     19707     19709     19708     19710     19712     19711     19713
     19715     19714     19716     19718     19717     19719     19721     19720     19722
     19724     19723     19725     19727     19726     19728     19730     19729     19731
     19733     19732     19734     19736     19735     19737     19739     19738     19740
     19742     19741     19743     19745     19744     19746     19748     19747     19749
     19751     19750     19752     19754     19753     19755     19757     19756     19758
     19760     19759     19761     19763     19762     19764     19766     19765     19767
     19769     19768     19770     19772     19771     19773     19775     19774     19776
     19778     19777     19779     19781     19780     19782     19784     19783     19785
     19787     19786     19788     19790     19789     19791     19793     19792     19794
     19796     19795     19797     19799     19798     19800     19802     19801     19803
     19805     19804     19806     19808     19807     19809     19811     19810     19812
     19814     19813     19815     19817     19816     19818     19820     19819     19821
     19823     19822     19824     19826     19825     19827     19829     19828     19830
     19832     19831     19833     19835     19834     19836     19838     19837     19839
     19841     19840     19842     19844     19843     19845     19847     19846     19848
     19850     19849     19851     19853     19852     19854     19856     19855     19857
     19859     19858     19860     19862     19861     19863     19865     19864     19866
     19868     19867     19869     19871     19870     19872     19874     19873     19875
     19877     19876     19878     19880     19879     19881     19883     19882     19884
     19886     19885     19887     19889     19888     19890     19892     19891     19893
     19895     19894     19896     19898     19897     19899     19901     19900     19902
     19904     19903     19905     19907     19906     19908     19910     19909     19911
     19913     19912     19914     19916     19915     19917     19919     19918     19920
     19922     19921     19923     19925     19924     19926     19928     19927     19929
     19931     19930     19932     19934     19933     19935     19937     19936     19938
     19940     19939     19941     19943     19942     19944     19946     19945     19947
     19949     19948     19950     19952     19951     19953     19955     19954     19956
     19958     19957     19959     19961     19960     19962     19964     19963     19965
     19967     19966     19968     19970     19969     19971     19973     19972     19974
     19976     19975     19977     19979     19978     19980     19982     19981     19983
     19985     19984     19986     19988     19987     19989     19991     19990     19992
     19994     19993     19995     19997     19996     19998     20000     19999     20001
     20003     20002     20004     20006     20005     20007     20009     20008     20010
     20012     20011     20013     20015     20014     20016     20018     20017     20019
     20021     20020     20022     20024     20023     20025     20027     20026     20028
     20030     20029     20031     20033     20032     20034     20036     20035     20037
     20039     20038     20040     20042     20041     20043     20045     20044     20046
     20048     20047     20049     20051     20050     20052     20054     20053     20055
     20057     20056     20058     20060     20059     20061     20063     20062     20064
     20066     20065     20067     20069     20068     20070     20072     20071     20073
     20075     20074     20076     20078     20077     20079     20081     20080     20082
     20084     20083     20085     20087     20086     20088     20090     20089     20091
     20093     20092     20094     20096     20095     20097     20099     20098     20100
     20102     20101     20103     20105     20104     20106     20108     20107     20109
     20111     20110     20112     20114     20113     20115     20117     20116     20118
     20120     20119     20121     20123     20122     20124     20126     20125     20127
     20129     20128     20130     20132     20131     20133     20135     20134     20136
     20138     20137     20139     20141     20140     20142     20144     20143     20145
     20147     20146     20148     20150     20149     20151     20153     20152     20154
     20156     20155     20157     20159     20158     20160     20162     20161     20163
     20165     20164     20166     20168     20167     20169     20171     20170     20172
     20174     20173     20175     20177     20176     20178     20180     20179     20181
     20183     20182     20184     20186     20185     20187     20189     20188     20190
     20192     20191     20193     20195     20194     20196     20198     20197     20199
     20201     20200     20202     20204     20203     20205     20207     20206     20208
     20210     20209     20211     20213     20212     20214     20216     20215     20217
     20219     20218     20220     20222     20221     20223     20225     20224     20226
     20228     20227     20229     20231     20230     20232     20234     20233     20235
     20237     20236     20238

     30970 !NPHI: dihedrals
         1        14        17        18         1        14        17        19
         1        14        17        24         2         1         6         7
         2         1         6         8         2         1         6         9
         2         1        10        11         2         1        10        12
         2         1        10        13         2         1        14        15
         2         1        14        16         2         1        14        17
         3         2         1         6         3         2         1        10
         3         2         1        14         4         2         1         6
         4         2         1        10         4         2         1        14
         5         2         1         6         5         2         1        10
         5         2         1        14         6         1        10        11
         6         1        10        12         6         1        10        13
         6         1        14        15         6         1        14        16
         6         1        14        17         7         6         1        10
         7         6         1        14         8         6         1        10
         8         6         1        14         9         6         1        10
         9         6         1        14        10         1        14        15
        10         1        14        16        10         1        14        17
        11        10         1        14        12        10         1        14
        13        10         1        14        14        17        24        20
        15        14        17        18        15        14        17        19
        15        14        17        24        16        14        17        18
        16        14        17        19        16        14        17        24
        17        24        20        21        17        24        20        22
        17        24        20        23        18        17        24        20
        19        17        24        20        20        23        25        26
        20        23        25        27        20        23        25        30
        21        20        23        25        22        20        23        25
        23        25        30        28        23        25        30        31
        23        25        30        32        24        20        23        25
        25        30        28        29        25        30        28        80
        25        30        32        33        25        30        32        34
        25        30        32        36        26        25        30        28
        26        25        30        31        26        25        30        32
        27        25        30        28        27        25        30        31
        27        25        30        32        28        30        32        33
        28        30        32        34        28        30        32        36
        28        80        82        83        28        80        82        84
        28        80        82        85        29        28        30        31
        29        28        30        32        29        28        80        81
        29        28        80        82        30        28        80        81
        30        28        80        82        30        32        34        35
        30        32        36        37        30        32        36        38
        31        30        28        80        31        30        32        33
        31        30        32        34        31        30        32        36
        32        30        28        80        32        36        38        39
        32        36        38        40        33        32        34        35
        33        32        36        37        33        32        36        38
        34        32        36        37        34        32        36        38
        35        34        32        36        36        38        40        41
        36        38        40        42        36        38        40        43
        37        36        38        39        37        36        38        40
        38        40        43        44        38        40        43        45
        38        40        43        46        39        38        40        41
        39        38        40        42        39        38        40        43
        40        43        46        47        40        43        46        48
        40        43        46        49        41        40        43        44
        41        40        43        45        41        40        43        46
        42        40        43        44        42        40        43        45
        42        40        43        46        43        46        49        50
        43        46        49        51        43        46        49        52
        44        43        46        47        44        43        46        48
        44        43        46        49        45        43        46        47
        45        43        46        48        45        43        46        49
        46        49        52        53        46        49        52        54
        46        49        52        55        47        46        49        50
        47        46        49        51        47        46        49        52
        48        46        49        50        48        46        49        51
        48        46        49        52        49        52        55        56
        49        52        55        57        49        52        55        58
        50        49        52        53        50        49        52        54
        50        49        52        55        51        49        52        53
        51        49        52        54        51        49        52        55
        52        55        58        59        52        55        58        60
        52        55        58        61        53        52        55        56
        53        52        55        57        53        52        55        58
        54        52        55        56        54        52        55        57
        54        52        55        58        55        58        61        62
        55        58        61        63        55        58        61        64
        56        55        58        59        56        55        58        60
        56        55        58        61        57        55        58        59
        57        55        58        60        57        55        58        61
        58        61        64        65        58        61        64        66
        58        61        64        67        59        58        61        62
        59        58        61        63        59        58        61        64
        60        58        61        62        60        58        61        63
        60        58        61        64        61        64        67        68
        61        64        67        69        61        64        67        70
        62        61        64        65        62        61        64        66
        62        61        64        67        63        61        64        65
        63        61        64        66        63        61        64        67
        64        67        70        71        64        67        70        72
        64        67        70        73        65        64        67        68
        65        64        67        69        65        64        67        70
        66        64        67        68        66        64        67        69
        66        64        67        70        67        70        73        74
        67        70        73        75        67        70        73        76
        68        67        70        71        68        67        70        72
        68        67        70        73        69        67        70        71
        69        67        70        72        69        67        70        73
        70        73        76        77        70        73        76        78
        70        73        76        79        71        70        73        74
        71        70        73        75        71        70        73        76
        72        70        73        74        72        70        73        75
        72        70        73        76        74        73        76        77
        74        73        76        78        74        73        76        79
        75        73        76        77        75        73        76        78
        75        73        76        79        80        82        85        86
        80        82        85        87        80        82        85        88
        81        80        82        83        81        80        82        84
        81        80        82        85        82        85        88        89
        82        85        88        90        82        85        88        91
        83        82        85        86        83        82        85        87
        83        82        85        88        84        82        85        86
        84        82        85        87        84        82        85        88
        85        88        91        92        85        88        91        93
        85        88        91        94        86        85        88        89
        86        85        88        90        86        85        88        91
        87        85        88        89        87        85        88        90
        87        85        88        91        88        91        94        95
        88        91        94        96        88        91        94        97
        89        88        91        92        89        88        91        93
        89        88        91        94        90        88        91        92
        90        88        91        93        90        88        91        94
        91        94        97        98        91        94        97        99
        91        94        97       100        92        91        94        95
        92        91        94        96        92        91        94        97
        93        91        94        95        93        91        94        96
        93        91        94        97        94        97       100       101
        94        97       100       102        94        97       100       103
        95        94        97        98        95        94        97        99
        95        94        97       100        96        94        97        98
        96        94        97        99        96        94        97       100
        97       100       103       104        97       100       103       105
        98        97       100       101        98        97       100       102
        98        97       100       103        99        97       100       101
        99        97       100       102        99        97       100       103
       100       103       105       106       100       103       105       107
       101       100       103       104       101       100       103       105
       102       100       103       104       102       100       103       105
       103       105       107       108       103       105       107       109
       103       105       107       110       104       103       105       106
       104       103       105       107       105       107       110       111
       105       107       110       112       105       107       110       113
       106       105       107       108       106       105       107       109
       106       105       107       110       107       110       113       114
       107       110       113       115       107       110       113       116
       108       107       110       111       108       107       110       112
       108       107       110       113       109       107       110       111
       109       107       110       112       109       107       110       113
       110       113       116       117       110       113       116       118
       110       113       116       119       111       110       113       114
       111       110       113       115       111       110       113       116
       112       110       113       114       112       110       113       115
       112       110       113       116       113       116       119       120
       113       116       119       121       113       116       119       122
       114       113       116       117       114       113       116       118
       114       113       116       119       115       113       116       117
       115       113       116       118       115       113       116       119
       116       119       122       123       116       119       122       124
       116       119       122       125       117       116       119       120
       117       116       119       121       117       116       119       122
       118       116       119       120       118       116       119       121
       118       116       119       122       119       122       125       126
       119       122       125       127       119       122       125       128
       120       119       122       123       120       119       122       124
       120       119       122       125       121       119       122       123
       121       119       122       124       121       119       122       125
       122       125       128       129       122       125       128       130
       122       125       128       131       123       122       125       126
       123       122       125       127       123       122       125       128
       124       122       125       126       124       122       125       127
       124       122       125       128       126       125       128       129
       126       125       128       130       126       125       128       131
       127       125       128       129       127       125       128       130
       127       125       128       131      2359      2363      2365      2366
      2359      2363      2365      2367      2359      2363      2368      2369
      2359      2363      2368      2370      2359      2363      2368      2374
      2360      2359      2363      2364      2360      2359      2363      2365
      2360      2359      2363      2368      2361      2359      2363      2364
      2361      2359      2363      2365      2361      2359      2363      2368
      2362      2359      2363      2364      2362      2359      2363      2365
      2362      2359      2363      2368      2363      2368      2374      2371
      2364      2363      2365      2366      2364      2363      2365      2367
      2364      2363      2368      2369      2364      2363      2368      2370
      2364      2363      2368      2374      2365      2363      2368      2369
      2365      2363      2368      2370      2365      2363      2368      2374
      2366      2365      2363      2368      2367      2365      2363      2368
      2368      2374      2371      2372      2368      2374      2371      2373
      2368      2374      2371      2375      2369      2368      2374      2371
      2370      2368      2374      2371      2371      2375      2376      2377
      2371      2375      2376      2378      2371      2375      2376      2379
      2372      2371      2375      2376      2373      2371      2375      2376
      2374      2371      2375      2376      2375      2376      2379      2380
      2375      2376      2379      2381      2375      2376      2379      2387
      2376      2379      2381      2382      2376      2379      2387      2388
      2376      2379      2387      2389      2376      2379      2387      2390
      2377      2376      2379      2380      2377      2376      2379      2381
      2377      2376      2379      2387      2378      2376      2379      2380
      2378      2376      2379      2381      2378      2376      2379      2387
      2379      2381      2382      2383      2379      2381      2382      2384
      2379      2387      2390      2391      2380      2379      2381      2382
      2380      2379      2387      2388      2380      2379      2387      2389
      2380      2379      2387      2390      2381      2379      2387      2388
      2381      2379      2387      2389      2381      2379      2387      2390
      2381      2382      2384      2385      2381      2382      2384      2386
      2381      2382      2384      2396      2382      2381      2379      2387
      2382      2384      2396      2397      2382      2384      2396      2398
      2382      2384      2396      2399      2383      2382      2384      2385
      2383      2382      2384      2386      2383      2382      2384      2396
      2384      2396      2399      2400      2384      2396      2399      2401
      2384      2396      2399      2402      2385      2384      2396      2397
      2385      2384      2396      2398      2385      2384      2396      2399
      2386      2384      2396      2397      2386      2384      2396      2398
      2386      2384      2396      2399      2387      2390      2391      2392
      2387      2390      2391      2393      2388      2387      2390      2391
      2389      2387      2390      2391      2390      2391      2393      2394
      2390      2391      2393      2395      2390      2391      2393      2443
      2391      2393      2443      2444      2391      2393      2443      2445
      2391      2393      2443      2446      2392      2391      2393      2394
      2392      2391      2393      2395      2392      2391      2393      2443
      2393      2443      2446      2447      2393      2443      2446      2448
      2393      2443      2446      2449      2394      2393      2443      2444
      2394      2393      2443      2445      2394      2393      2443      2446
      2395      2393      2443      2444      2395      2393      2443      2445
      2395      2393      2443      2446      2396      2399      2402      2403
      2396      2399      2402      2404      2397      2396      2399      2400
      2397      2396      2399      2401      2397      2396      2399      2402
      2398      2396      2399      2400      2398      2396      2399      2401
      2398      2396      2399      2402      2399      2402      2404      2405
      2399      2402      2404      2406      2400      2399      2402      2403
      2400      2399      2402      2404      2401      2399      2402      2403
      2401      2399      2402      2404      2402      2404      2406      2407
      2402      2404      2406      2408      2402      2404      2406      2409
      2403      2402      2404      2405      2403      2402      2404      2406
      2404      2406      2409      2410      2404      2406      2409      2411
      2405      2404      2406      2407      2405      2404      2406      2408
      2405      2404      2406      2409      2406      2409      2411      2412
      2406      2409      2411      2413      2407      2406      2409      2410
      2407      2406      2409      2411      2408      2406      2409      2410
      2408      2406      2409      2411      2409      2411      2413      2414
      2409      2411      2413      2415      2409      2411      2413      2416
      2410      2409      2411      2412      2410      2409      2411      2413
      2411      2413      2416      2417      2411      2413      2416      2418
      2412      2411      2413      2414      2412      2411      2413      2415
      2412      2411      2413      2416      2413      2416      2418      2419
      2413      2416      2418      2420      2414      2413      2416      2417
      2414      2413      2416      2418      2415      2413      2416      2417
      2415      2413      2416      2418      2416      2418      2420      2421
      2416      2418      2420      2422      2416      2418      2420      2423
      2417      2416      2418      2419      2417      2416      2418      2420
      2418      2420      2423      2424      2418      2420      2423      2425
      2419      2418      2420      2421      2419      2418      2420      2422
      2419      2418      2420      2423      2420      2423      2425      2426
      2420      2423      2425      2427      2421      2420      2423      2424
      2421      2420      2423      2425      2422      2420      2423      2424
      2422      2420      2423      2425      2423      2425      2427      2428
      2423      2425      2427      2429      2423      2425      2427      2430
      2424      2423      2425      2426      2424      2423      2425      2427
      2425      2427      2430      2431      2425      2427      2430      2432
      2425      2427      2430      2433      2426      2425      2427      2428
      2426      2425      2427      2429      2426      2425      2427      2430
      2427      2430      2433      2434      2427      2430      2433      2435
      2427      2430      2433      2436      2428      2427      2430      2431
      2428      2427      2430      2432      2428      2427      2430      2433
      2429      2427      2430      2431      2429      2427      2430      2432
      2429      2427      2430      2433      2430      2433      2436      2437
      2430      2433      2436      2438      2430      2433      2436      2439
      2431      2430      2433      2434      2431      2430      2433      2435
      2431      2430      2433      2436      2432      2430      2433      2434
      2432      2430      2433      2435      2432      2430      2433      2436
      2433      2436      2439      2440      2433      2436      2439      2441
      2433      2436      2439      2442      2434      2433      2436      2437
      2434      2433      2436      2438      2434      2433      2436      2439
      2435      2433      2436      2437      2435      2433      2436      2438
      2435      2433      2436      2439      2437      2436      2439      2440
      2437      2436      2439      2441      2437      2436      2439      2442
      2438      2436      2439      2440      2438      2436      2439      2441
      2438      2436      2439      2442      2443      2446      2449      2450
      2443      2446      2449      2451      2443      2446      2449      2452
      2444      2443      2446      2447      2444      2443      2446      2448
      2444      2443      2446      2449      2445      2443      2446      2447
      2445      2443      2446      2448      2445      2443      2446      2449
      2446      2449      2452      2453      2446      2449      2452      2454
      2446      2449      2452      2455      2447      2446      2449      2450
      2447      2446      2449      2451      2447      2446      2449      2452
      2448      2446      2449      2450      2448      2446      2449      2451
      2448      2446      2449      2452      2449      2452      2455      2456
      2449      2452      2455      2457      2449      2452      2455      2458
      2450      2449      2452      2453      2450      2449      2452      2454
      2450      2449      2452      2455      2451      2449      2452      2453
      2451      2449      2452      2454      2451      2449      2452      2455
      2452      2455      2458      2459      2452      2455      2458      2460
      2452      2455      2458      2461      2453      2452      2455      2456
      2453      2452      2455      2457      2453      2452      2455      2458
      2454      2452      2455      2456      2454      2452      2455      2457
      2454      2452      2455      2458      2455      2458      2461      2462
      2455      2458      2461      2463      2455      2458      2461      2464
      2456      2455      2458      2459      2456      2455      2458      2460
      2456      2455      2458      2461      2457      2455      2458      2459
      2457      2455      2458      2460      2457      2455      2458      2461
      2458      2461      2464      2465      2458      2461      2464      2466
      2458      2461      2464      2467      2459      2458      2461      2462
      2459      2458      2461      2463      2459      2458      2461      2464
      2460      2458      2461      2462      2460      2458      2461      2463
      2460      2458      2461      2464      2461      2464      2467      2468
      2461      2464      2467      2469      2461      2464      2467      2470
      2462      2461      2464      2465      2462      2461      2464      2466
      2462      2461      2464      2467      2463      2461      2464      2465
      2463      2461      2464      2466      2463      2461      2464      2467
      2464      2467      2470      2471      2464      2467      2470      2472
      2464      2467      2470      2473      2465      2464      2467      2468
      2465      2464      2467      2469      2465      2464      2467      2470
      2466      2464      2467      2468      2466      2464      2467      2469
      2466      2464      2467      2470      2467      2470      2473      2474
      2467      2470      2473      2475      2467      2470      2473      2476
      2468      2467      2470      2471      2468      2467      2470      2472
      2468      2467      2470      2473      2469      2467      2470      2471
      2469      2467      2470      2472      2469      2467      2470      2473
      2470      2473      2476      2477      2470      2473      2476      2478
      2470      2473      2476      2479      2471      2470      2473      2474
      2471      2470      2473      2475      2471      2470      2473      2476
      2472      2470      2473      2474      2472      2470      2473      2475
      2472      2470      2473      2476      2473      2476      2479      2480
      2473      2476      2479      2481      2473      2476      2479      2482
      2474      2473      2476      2477      2474      2473      2476      2478
      2474      2473      2476      2479      2475      2473      2476      2477
      2475      2473      2476      2478      2475      2473      2476      2479
      2476      2479      2482      2483      2476      2479      2482      2484
      2476      2479      2482      2485      2477      2476      2479      2480
      2477      2476      2479      2481      2477      2476      2479      2482
      2478      2476      2479      2480      2478      2476      2479      2481
      2478      2476      2479      2482      2479      2482      2485      2486
      2479      2482      2485      2487      2479      2482      2485      2488
      2480      2479      2482      2483      2480      2479      2482      2484
      2480      2479      2482      2485      2481      2479      2482      2483
      2481      2479      2482      2484      2481      2479      2482      2485
      2482      2485      2488      2489      2482      2485      2488      2490
      2482      2485      2488      2491      2483      2482      2485      2486
      2483      2482      2485      2487      2483      2482      2485      2488
      2484      2482      2485      2486      2484      2482      2485      2487
      2484      2482      2485      2488      2486      2485      2488      2489
      2486      2485      2488      2490      2486      2485      2488      2491
      2487      2485      2488      2489      2487      2485      2488      2490
      2487      2485      2488      2491      3423      3427      3430      3431
      3423      3427      3430      3432      3423      3427      3430      3436
      3424      3423      3427      3428      3424      3423      3427      3429
      3424      3423      3427      3430      3425      3423      3427      3428
      3425      3423      3427      3429      3425      3423      3427      3430
      3426      3423      3427      3428      3426      3423      3427      3429
      3426      3423      3427      3430      3427      3430      3436      3433
      3428      3427      3430      3431      3428      3427      3430      3432
      3428      3427      3430      3436      3429      3427      3430      3431
      3429      3427      3430      3432      3429      3427      3430      3436
      3430      3436      3433      3434      3430      3436      3433      3435
      3430      3436      3433      3437      3431      3430      3436      3433
      3432      3430      3436      3433      3433      3437      3438      3439
      3433      3437      3438      3440      3433      3437      3438      3441
      3434      3433      3437      3438      3435      3433      3437      3438
      3436      3433      3437      3438      3437      3438      3441      3442
      3437      3438      3441      3443      3437      3438      3441      3449
      3438      3441      3443      3444      3438      3441      3449      3450
      3438      3441      3449      3451      3438      3441      3449      3452
      3439      3438      3441      3442      3439      3438      3441      3443
      3439      3438      3441      3449      3440      3438      3441      3442
      3440      3438      3441      3443      3440      3438      3441      3449
      3441      3443      3444      3445      3441      3443      3444      3446
      3441      3449      3452      3453      3442      3441      3443      3444
      3442      3441      3449      3450      3442      3441      3449      3451
      3442      3441      3449      3452      3443      3441      3449      3450
      3443      3441      3449      3451      3443      3441      3449      3452
      3443      3444      3446      3447      3443      3444      3446      3448
      3443      3444      3446      3458      3444      3443      3441      3449
      3444      3446      3458      3459      3444      3446      3458      3460
      3444      3446      3458      3461      3445      3444      3446      3447
      3445      3444      3446      3448      3445      3444      3446      3458
      3446      3458      3461      3462      3446      3458      3461      3463
      3446      3458      3461      3464      3447      3446      3458      3459
      3447      3446      3458      3460      3447      3446      3458      3461
      3448      3446      3458      3459      3448      3446      3458      3460
      3448      3446      3458      3461      3449      3452      3453      3454
      3449      3452      3453      3455      3450      3449      3452      3453
      3451      3449      3452      3453      3452      3453      3455      3456
      3452      3453      3455      3457      3452      3453      3455      3505
      3453      3455      3505      3506      3453      3455      3505      3507
      3453      3455      3505      3508      3454      3453      3455      3456
      3454      3453      3455      3457      3454      3453      3455      3505
      3455      3505      3508      3509      3455      3505      3508      3510
      3455      3505      3508      3511      3456      3455      3505      3506
      3456      3455      3505      3507      3456      3455      3505      3508
      3457      3455      3505      3506      3457      3455      3505      3507
      3457      3455      3505      3508      3458      3461      3464      3465
      3458      3461      3464      3466      3459      3458      3461      3462
      3459      3458      3461      3463      3459      3458      3461      3464
      3460      3458      3461      3462      3460      3458      3461      3463
      3460      3458      3461      3464      3461      3464      3466      3467
      3461      3464      3466      3468      3462      3461      3464      3465
      3462      3461      3464      3466      3463      3461      3464      3465
      3463      3461      3464      3466      3464      3466      3468      3469
      3464      3466      3468      3470      3464      3466      3468      3471
      3465      3464      3466      3467      3465      3464      3466      3468
      3466      3468      3471      3472      3466      3468      3471      3473
      3467      3466      3468      3469      3467      3466      3468      3470
      3467      3466      3468      3471      3468      3471      3473      3474
      3468      3471      3473      3475      3469      3468      3471      3472
      3469      3468      3471      3473      3470      3468      3471      3472
      3470      3468      3471      3473      3471      3473      3475      3476
      3471      3473      3475      3477      3471      3473      3475      3478
      3472      3471      3473      3474      3472      3471      3473      3475
      3473      3475      3478      3479      3473      3475      3478      3480
      3474      3473      3475      3476      3474      3473      3475      3477
      3474      3473      3475      3478      3475      3478      3480      3481
      3475      3478      3480      3482      3476      3475      3478      3479
      3476      3475      3478      3480      3477      3475      3478      3479
      3477      3475      3478      3480      3478      3480      3482      3483
      3478      3480      3482      3484      3478      3480      3482      3485
      3479      3478      3480      3481      3479      3478      3480      3482
      3480      3482      3485      3486      3480      3482      3485      3487
      3481      3480      3482      3483      3481      3480      3482      3484
      3481      3480      3482      3485      3482      3485      3487      3488
      3482      3485      3487      3489      3483      3482      3485      3486
      3483      3482      3485      3487      3484      3482      3485      3486
      3484      3482      3485      3487      3485      3487      3489      3490
      3485      3487      3489      3491      3485      3487      3489      3492
      3486      3485      3487      3488      3486      3485      3487      3489
      3487      3489      3492      3493      3487      3489      3492      3494
      3487      3489      3492      3495      3488      3487      3489      3490
      3488      3487      3489      3491      3488      3487      3489      3492
      3489      3492      3495      3496      3489      3492      3495      3497
      3489      3492      3495      3498      3490      3489      3492      3493
      3490      3489      3492      3494      3490      3489      3492      3495
      3491      3489      3492      3493      3491      3489      3492      3494
      3491      3489      3492      3495      3492      3495      3498      3499
      3492      3495      3498      3500      3492      3495      3498      3501
      3493      3492      3495      3496      3493      3492      3495      3497
      3493      3492      3495      3498      3494      3492      3495      3496
      3494      3492      3495      3497      3494      3492      3495      3498
      3495      3498      3501      3502      3495      3498      3501      3503
      3495      3498      3501      3504      3496      3495      3498      3499
      3496      3495      3498      3500      3496      3495      3498      3501
      3497      3495      3498      3499      3497      3495      3498      3500
      3497      3495      3498      3501      3499      3498      3501      3502
      3499      3498      3501      3503      3499      3498      3501      3504
      3500      3498      3501      3502      3500      3498      3501      3503
      3500      3498      3501      3504      3505      3508      3511      3512
      3505      3508      3511      3513      3505      3508      3511      3514
      3506      3505      3508      3509      3506      3505      3508      3510
      3506      3505      3508      3511      3507      3505      3508      3509
      3507      3505      3508      3510      3507      3505      3508      3511
      3508      3511      3514      3515      3508      3511      3514      3516
      3508      3511      3514      3517      3509      3508      3511      3512
      3509      3508      3511      3513      3509      3508      3511      3514
      3510      3508      3511      3512      3510      3508      3511      3513
      3510      3508      3511      3514      3511      3514      3517      3518
      3511      3514      3517      3519      3511      3514      3517      3520
      3512      3511      3514      3515      3512      3511      3514      3516
      3512      3511      3514      3517      3513      3511      3514      3515
      3513      3511      3514      3516      3513      3511      3514      3517
      3514      3517      3520      3521      3514      3517      3520      3522
      3514      3517      3520      3523      3515      3514      3517      3518
      3515      3514      3517      3519      3515      3514      3517      3520
      3516      3514      3517      3518      3516      3514      3517      3519
      3516      3514      3517      3520      3517      3520      3523      3524
      3517      3520      3523      3525      3517      3520      3523      3526
      3518      3517      3520      3521      3518      3517      3520      3522
      3518      3517      3520      3523      3519      3517      3520      3521
      3519      3517      3520      3522      3519      3517      3520      3523
      3520      3523      3526      3527      3520      3523      3526      3528
      3520      3523      3526      3529      3521      3520      3523      3524
      3521      3520      3523      3525      3521      3520      3523      3526
      3522      3520      3523      3524      3522      3520      3523      3525
      3522      3520      3523      3526      3523      3526      3529      3530
      3523      3526      3529      3531      3523      3526      3529      3532
      3524      3523      3526      3527      3524      3523      3526      3528
      3524      3523      3526      3529      3525      3523      3526      3527
      3525      3523      3526      3528      3525      3523      3526      3529
      3526      3529      3532      3533      3526      3529      3532      3534
      3526      3529      3532      3535      3527      3526      3529      3530
      3527      3526      3529      3531      3527      3526      3529      3532
      3528      3526      3529      3530      3528      3526      3529      3531
      3528      3526      3529      3532      3529      3532      3535      3536
      3529      3532      3535      3537      3529      3532      3535      3538
      3530      3529      3532      3533      3530      3529      3532      3534
      3530      3529      3532      3535      3531      3529      3532      3533
      3531      3529      3532      3534      3531      3529      3532      3535
      3532      3535      3538      3539      3532      3535      3538      3540
      3532      3535      3538      3541      3533      3532      3535      3536
      3533      3532      3535      3537      3533      3532      3535      3538
      3534      3532      3535      3536      3534      3532      3535      3537
      3534      3532      3535      3538      3535      3538      3541      3542
      3535      3538      3541      3543      3535      3538      3541      3544
      3536      3535      3538      3539      3536      3535      3538      3540
      3536      3535      3538      3541      3537      3535      3538      3539
      3537      3535      3538      3540      3537      3535      3538      3541
      3538      3541      3544      3545      3538      3541      3544      3546
      3538      3541      3544      3547      3539      3538      3541      3542
      3539      3538      3541      3543      3539      3538      3541      3544
      3540      3538      3541      3542      3540      3538      3541      3543
      3540      3538      3541      3544      3541      3544      3547      3548
      3541      3544      3547      3549      3541      3544      3547      3550
      3542      3541      3544      3545      3542      3541      3544      3546
      3542      3541      3544      3547      3543      3541      3544      3545
      3543      3541      3544      3546      3543      3541      3544      3547
      3544      3547      3550      3551      3544      3547      3550      3552
      3544      3547      3550      3553      3545      3544      3547      3548
      3545      3544      3547      3549      3545      3544      3547      3550
      3546      3544      3547      3548      3546      3544      3547      3549
      3546      3544      3547      3550      3548      3547      3550      3551
      3548      3547      3550      3552      3548      3547      3550      3553
      3549      3547      3550      3551      3549      3547      3550      3552
      3549      3547      3550      3553      5257      5261      5264      5265
      5257      5261      5264      5295      5257      5303      5300      5295
      5257      5303      5300      5301      5257      5303      5300      5302
      5258      5257      5259      5260      5258      5257      5261      5262
      5258      5257      5261      5263      5258      5257      5261      5264
      5258      5257      5303      5300      5258      5257      5303      5304
      5258      5257      5303      5305      5259      5257      5261      5262
      5259      5257      5261      5263      5259      5257      5261      5264
      5259      5257      5303      5300      5259      5257      5303      5304
      5259      5257      5303      5305      5260      5259      5257      5261
      5260      5259      5257      5303      5261      5257      5303      5300
      5261      5257      5303      5304      5261      5257      5303      5305
      5261      5264      5265      5266      5261      5264      5265      5267
      5261      5264      5295      5293      5261      5264      5295      5296
      5261      5264      5295      5300      5262      5261      5257      5303
      5262      5261      5264      5265      5262      5261      5264      5295
      5263      5261      5257      5303      5263      5261      5264      5265
      5263      5261      5264      5295      5264      5261      5257      5303
      5264      5265      5267      5268      5264      5265      5267      5269
      5264      5265      5267      5270      5264      5295      5293      5270
      5264      5295      5293      5290      5264      5295      5293      5294
      5264      5295      5296      5297      5264      5295      5296      5298
      5264      5295      5296      5299      5264      5295      5300      5301
      5264      5295      5300      5302      5264      5295      5300      5303
      5265      5264      5295      5293      5265      5264      5295      5296
      5265      5264      5295      5300      5265      5267      5270      5271
      5265      5267      5270      5272      5265      5267      5270      5293
      5266      5265      5264      5295      5266      5265      5267      5268
      5266      5265      5267      5269      5266      5265      5267      5270
      5267      5265      5264      5295      5267      5270      5272      5273
      5267      5270      5272      5274      5267      5270      5272      5282
      5267      5270      5293      5290      5267      5270      5293      5294
      5267      5270      5293      5295      5268      5267      5270      5271
      5268      5267      5270      5272      5268      5267      5270      5293
      5269      5267      5270      5271      5269      5267      5270      5272
      5269      5267      5270      5293      5270      5272      5274      5275
      5270      5272      5274      5276      5270      5272      5274      5277
      5270      5272      5282      5280      5270      5272      5282      5283
      5270      5272      5282      5287      5270      5293      5290      5287
      5270      5293      5290      5291      5270      5293      5290      5292
      5270      5293      5295      5296      5270      5293      5295      5300
      5271      5270      5272      5273      5271      5270      5272      5274
      5271      5270      5272      5282      5271      5270      5293      5290
      5271      5270      5293      5294      5271      5270      5293      5295
      5272      5270      5293      5290      5272      5270      5293      5294
      5272      5270      5293      5295      5272      5274      5277      5278
      5272      5274      5277      5279      5272      5274      5277      5280
      5272      5282      5280      5277      5272      5282      5280      5281
      5272      5282      5280      5306      5272      5282      5283      5284
      5272      5282      5283      5285      5272      5282      5283      5286
      5272      5282      5287      5288      5272      5282      5287      5289
      5272      5282      5287      5290      5273      5272      5270      5293
      5273      5272      5274      5275      5273      5272      5274      5276
      5273      5272      5274      5277      5273      5272      5282      5280
      5273      5272      5282      5283      5273      5272      5282      5287
      5274      5272      5270      5293      5274      5272      5282      5280
      5274      5272      5282      5283      5274      5272      5282      5287
      5274      5277      5280      5281      5274      5277      5280      5282
      5274      5277      5280      5306      5275      5274      5272      5282
      5275      5274      5277      5278      5275      5274      5277      5279
      5275      5274      5277      5280      5276      5274      5272      5282
      5276      5274      5277      5278      5276      5274      5277      5279
      5276      5274      5277      5280      5277      5274      5272      5282
      5277      5280      5282      5283      5277      5280      5282      5287
      5277      5280      5306      5307      5277      5280      5306      5308
      5277      5280      5306      5312      5278      5277      5280      5281
      5278      5277      5280      5282      5278      5277      5280      5306
      5279      5277      5280      5281      5279      5277      5280      5282
      5279      5277      5280      5306      5280      5282      5283      5284
      5280      5282      5283      5285      5280      5282      5283      5286
      5280      5282      5287      5288      5280      5282      5287      5289
      5280      5282      5287      5290      5280      5306      5308      5309
      5280      5306      5308      5310      5280      5306      5308      5311
      5280      5306      5312      5313      5280      5306      5312      5314
      5280      5306      5312      5315      5281      5280      5282      5283
      5281      5280      5282      5287      5281      5280      5306      5307
      5281      5280      5306      5308      5281      5280      5306      5312
      5282      5272      5270      5293      5282      5280      5306      5307
      5282      5280      5306      5308      5282      5280      5306      5312
      5282      5287      5290      5291      5282      5287      5290      5292
      5282      5287      5290      5293      5283      5282      5280      5306
      5283      5282      5287      5288      5283      5282      5287      5289
      5283      5282      5287      5290      5284      5283      5282      5287
      5285      5283      5282      5287      5286      5283      5282      5287
      5287      5282      5280      5306      5287      5290      5293      5294
      5287      5290      5293      5295      5288      5287      5290      5291
      5288      5287      5290      5292      5288      5287      5290      5293
      5289      5287      5290      5291      5289      5287      5290      5292
      5289      5287      5290      5293      5290      5293      5295      5296
      5290      5293      5295      5300      5291      5290      5293      5294
      5291      5290      5293      5295      5292      5290      5293      5294
      5292      5290      5293      5295      5293      5295      5296      5297
      5293      5295      5296      5298      5293      5295      5296      5299
      5293      5295      5300      5301      5293      5295      5300      5302
      5293      5295      5300      5303      5294      5293      5295      5296
      5294      5293      5295      5300      5295      5300      5303      5304
      5295      5300      5303      5305      5296      5295      5300      5301
      5296      5295      5300      5302      5296      5295      5300      5303
      5297      5296      5295      5300      5298      5296      5295      5300
      5299      5296      5295      5300      5301      5300      5303      5304
      5301      5300      5303      5305      5302      5300      5303      5304
      5302      5300      5303      5305      5306      5312      5315      5316
      5306      5312      5315      5317      5306      5312      5315      5318
      5307      5306      5308      5309      5307      5306      5308      5310
      5307      5306      5308      5311      5307      5306      5312      5313
      5307      5306      5312      5314      5307      5306      5312      5315
      5308      5306      5312      5313      5308      5306      5312      5314
      5308      5306      5312      5315      5309      5308      5306      5312
      5310      5308      5306      5312      5311      5308      5306      5312
      5312      5315      5318      5319      5312      5315      5318      5320
      5312      5315      5318      5321      5313      5312      5315      5316
      5313      5312      5315      5317      5313      5312      5315      5318
      5314      5312      5315      5316      5314      5312      5315      5317
      5314      5312      5315      5318      5315      5318      5321      5322
      5315      5318      5321      5323      5315      5318      5321      5327
      5316      5315      5318      5319      5316      5315      5318      5320
      5316      5315      5318      5321      5317      5315      5318      5319
      5317      5315      5318      5320      5317      5315      5318      5321
      5318      5321      5323      5324      5318      5321      5323      5325
      5318      5321      5323      5326      5318      5321      5327      5328
      5318      5321      5327      5329      5318      5321      5327      5330
      5319      5318      5321      5322      5319      5318      5321      5323
      5319      5318      5321      5327      5320      5318      5321      5322
      5320      5318      5321      5323      5320      5318      5321      5327
      5322      5321      5323      5324      5322      5321      5323      5325
      5322      5321      5323      5326      5322      5321      5327      5328
      5322      5321      5327      5329      5322      5321      5327      5330
      5323      5321      5327      5328      5323      5321      5327      5329
      5323      5321      5327      5330      5324      5323      5321      5327
      5325      5323      5321      5327      5326      5323      5321      5327
      3554      3558      3561      3562      3554      3558      3561      3563
      3554      3558      3561      3567      3555      3554      3558      3559
      3555      3554      3558      3560      3555      3554      3558      3561
      3556      3554      3558      3559      3556      3554      3558      3560
      3556      3554      3558      3561      3557      3554      3558      3559
      3557      3554      3558      3560      3557      3554      3558      3561
      3558      3561      3567      3564      3559      3558      3561      3562
      3559      3558      3561      3563      3559      3558      3561      3567
      3560      3558      3561      3562      3560      3558      3561      3563
      3560      3558      3561      3567      3561      3567      3564      3565
      3561      3567      3564      3566      3561      3567      3564      3568
      3562      3561      3567      3564      3563      3561      3567      3564
      3564      3568      3569      3570      3564      3568      3569      3571
      3564      3568      3569      3572      3565      3564      3568      3569
      3566      3564      3568      3569      3567      3564      3568      3569
      3568      3569      3572      3573      3568      3569      3572      3574
      3568      3569      3572      3580      3569      3572      3574      3575
      3569      3572      3580      3581      3569      3572      3580      3582
      3569      3572      3580      3583      3570      3569      3572      3573
      3570      3569      3572      3574      3570      3569      3572      3580
      3571      3569      3572      3573      3571      3569      3572      3574
      3571      3569      3572      3580      3572      3574      3575      3576
      3572      3574      3575      3577      3572      3580      3583      3584
      3573      3572      3574      3575      3573      3572      3580      3581
      3573      3572      3580      3582      3573      3572      3580      3583
      3574      3572      3580      3581      3574      3572      3580      3582
      3574      3572      3580      3583      3574      3575      3577      3578
      3574      3575      3577      3579      3574      3575      3577      3589
      3575      3574      3572      3580      3575      3577      3589      3590
      3575      3577      3589      3591      3575      3577      3589      3592
      3576      3575      3577      3578      3576      3575      3577      3579
      3576      3575      3577      3589      3577      3589      3592      3593
      3577      3589      3592      3594      3577      3589      3592      3595
      3578      3577      3589      3590      3578      3577      3589      3591
      3578      3577      3589      3592      3579      3577      3589      3590
      3579      3577      3589      3591      3579      3577      3589      3592
      3580      3583      3584      3585      3580      3583      3584      3586
      3581      3580      3583      3584      3582      3580      3583      3584
      3583      3584      3586      3587      3583      3584      3586      3588
      3583      3584      3586      3636      3584      3586      3636      3637
      3584      3586      3636      3638      3584      3586      3636      3639
      3585      3584      3586      3587      3585      3584      3586      3588
      3585      3584      3586      3636      3586      3636      3639      3640
      3586      3636      3639      3641      3586      3636      3639      3642
      3587      3586      3636      3637      3587      3586      3636      3638
      3587      3586      3636      3639      3588      3586      3636      3637
      3588      3586      3636      3638      3588      3586      3636      3639
      3589      3592      3595      3596      3589      3592      3595      3597
      3590      3589      3592      3593      3590      3589      3592      3594
      3590      3589      3592      3595      3591      3589      3592      3593
      3591      3589      3592      3594      3591      3589      3592      3595
      3592      3595      3597      3598      3592      3595      3597      3599
      3593      3592      3595      3596      3593      3592      3595      3597
      3594      3592      3595      3596      3594      3592      3595      3597
      3595      3597      3599      3600      3595      3597      3599      3601
      3595      3597      3599      3602      3596      3595      3597      3598
      3596      3595      3597      3599      3597      3599      3602      3603
      3597      3599      3602      3604      3598      3597      3599      3600
      3598      3597      3599      3601      3598      3597      3599      3602
      3599      3602      3604      3605      3599      3602      3604      3606
      3600      3599      3602      3603      3600      3599      3602      3604
      3601      3599      3602      3603      3601      3599      3602      3604
      3602      3604      3606      3607      3602      3604      3606      3608
      3602      3604      3606      3609      3603      3602      3604      3605
      3603      3602      3604      3606      3604      3606      3609      3610
      3604      3606      3609      3611      3605      3604      3606      3607
      3605      3604      3606      3608      3605      3604      3606      3609
      3606      3609      3611      3612      3606      3609      3611      3613
      3607      3606      3609      3610      3607      3606      3609      3611
      3608      3606      3609      3610      3608      3606      3609      3611
      3609      3611      3613      3614      3609      3611      3613      3615
      3609      3611      3613      3616      3610      3609      3611      3612
      3610      3609      3611      3613      3611      3613      3616      3617
      3611      3613      3616      3618      3612      3611      3613      3614
      3612      3611      3613      3615      3612      3611      3613      3616
      3613      3616      3618      3619      3613      3616      3618      3620
      3614      3613      3616      3617      3614      3613      3616      3618
      3615      3613      3616      3617      3615      3613      3616      3618
      3616      3618      3620      3621      3616      3618      3620      3622
      3616      3618      3620      3623      3617      3616      3618      3619
      3617      3616      3618      3620      3618      3620      3623      3624
      3618      3620      3623      3625      3618      3620      3623      3626
      3619      3618      3620      3621      3619      3618      3620      3622
      3619      3618      3620      3623      3620      3623      3626      3627
      3620      3623      3626      3628      3620      3623      3626      3629
      3621      3620      3623      3624      3621      3620      3623      3625
      3621      3620      3623      3626      3622      3620      3623      3624
      3622      3620      3623      3625      3622      3620      3623      3626
      3623      3626      3629      3630      3623      3626      3629      3631
      3623      3626      3629      3632      3624      3623      3626      3627
      3624      3623      3626      3628      3624      3623      3626      3629
      3625      3623      3626      3627      3625      3623      3626      3628
      3625      3623      3626      3629      3626      3629      3632      3633
      3626      3629      3632      3634      3626      3629      3632      3635
      3627      3626      3629      3630      3627      3626      3629      3631
      3627      3626      3629      3632      3628      3626      3629      3630
      3628      3626      3629      3631      3628      3626      3629      3632
      3630      3629      3632      3633      3630      3629      3632      3634
      3630      3629      3632      3635      3631      3629      3632      3633
      3631      3629      3632      3634      3631      3629      3632      3635
      3636      3639      3642      3643      3636      3639      3642      3644
      3636      3639      3642      3645      3637      3636      3639      3640
      3637      3636      3639      3641      3637      3636      3639      3642
      3638      3636      3639      3640      3638      3636      3639      3641
      3638      3636      3639      3642      3639      3642      3645      3646
      3639      3642      3645      3647      3639      3642      3645      3648
      3640      3639      3642      3643      3640      3639      3642      3644
      3640      3639      3642      3645      3641      3639      3642      3643
      3641      3639      3642      3644      3641      3639      3642      3645
      3642      3645      3648      3649      3642      3645      3648      3650
      3642      3645      3648      3651      3643      3642      3645      3646
      3643      3642      3645      3647      3643      3642      3645      3648
      3644      3642      3645      3646      3644      3642      3645      3647
      3644      3642      3645      3648      3645      3648      3651      3652
      3645      3648      3651      3653      3645      3648      3651      3654
      3646      3645      3648      3649      3646      3645      3648      3650
      3646      3645      3648      3651      3647      3645      3648      3649
      3647      3645      3648      3650      3647      3645      3648      3651
      3648      3651      3654      3655      3648      3651      3654      3656
      3648      3651      3654      3657      3649      3648      3651      3652
      3649      3648      3651      3653      3649      3648      3651      3654
      3650      3648      3651      3652      3650      3648      3651      3653
      3650      3648      3651      3654      3651      3654      3657      3658
      3651      3654      3657      3659      3651      3654      3657      3660
      3652      3651      3654      3655      3652      3651      3654      3656
      3652      3651      3654      3657      3653      3651      3654      3655
      3653      3651      3654      3656      3653      3651      3654      3657
      3654      3657      3660      3661      3654      3657      3660      3662
      3654      3657      3660      3663      3655      3654      3657      3658
      3655      3654      3657      3659      3655      3654      3657      3660
      3656      3654      3657      3658      3656      3654      3657      3659
      3656      3654      3657      3660      3657      3660      3663      3664
      3657      3660      3663      3665      3657      3660      3663      3666
      3658      3657      3660      3661      3658      3657      3660      3662
      3658      3657      3660      3663      3659      3657      3660      3661
      3659      3657      3660      3662      3659      3657      3660      3663
      3660      3663      3666      3667      3660      3663      3666      3668
      3660      3663      3666      3669      3661      3660      3663      3664
      3661      3660      3663      3665      3661      3660      3663      3666
      3662      3660      3663      3664      3662      3660      3663      3665
      3662      3660      3663      3666      3663      3666      3669      3670
      3663      3666      3669      3671      3663      3666      3669      3672
      3664      3663      3666      3667      3664      3663      3666      3668
      3664      3663      3666      3669      3665      3663      3666      3667
      3665      3663      3666      3668      3665      3663      3666      3669
      3666      3669      3672      3673      3666      3669      3672      3674
      3666      3669      3672      3675      3667      3666      3669      3670
      3667      3666      3669      3671      3667      3666      3669      3672
      3668      3666      3669      3670      3668      3666      3669      3671
      3668      3666      3669      3672      3669      3672      3675      3676
      3669      3672      3675      3677      3669      3672      3675      3678
      3670      3669      3672      3673      3670      3669      3672      3674
      3670      3669      3672      3675      3671      3669      3672      3673
      3671      3669      3672      3674      3671      3669      3672      3675
      3672      3675      3678      3679      3672      3675      3678      3680
      3672      3675      3678      3681      3673      3672      3675      3676
      3673      3672      3675      3677      3673      3672      3675      3678
      3674      3672      3675      3676      3674      3672      3675      3677
      3674      3672      3675      3678      3675      3678      3681      3682
      3675      3678      3681      3683      3675      3678      3681      3684
      3676      3675      3678      3679      3676      3675      3678      3680
      3676      3675      3678      3681      3677      3675      3678      3679
      3677      3675      3678      3680      3677      3675      3678      3681
      3679      3678      3681      3682      3679      3678      3681      3683
      3679      3678      3681      3684      3680      3678      3681      3682
      3680      3678      3681      3683      3680      3678      3681      3684
      5331      5335      5338      5339      5331      5335      5338      5369
      5331      5377      5374      5369      5331      5377      5374      5375
      5331      5377      5374      5376      5332      5331      5333      5334
      5332      5331      5335      5336      5332      5331      5335      5337
      5332      5331      5335      5338      5332      5331      5377      5374
      5332      5331      5377      5378      5332      5331      5377      5379
      5333      5331      5335      5336      5333      5331      5335      5337
      5333      5331      5335      5338      5333      5331      5377      5374
      5333      5331      5377      5378      5333      5331      5377      5379
      5334      5333      5331      5335      5334      5333      5331      5377
      5335      5331      5377      5374      5335      5331      5377      5378
      5335      5331      5377      5379      5335      5338      5339      5340
      5335      5338      5339      5341      5335      5338      5369      5367
      5335      5338      5369      5370      5335      5338      5369      5374
      5336      5335      5331      5377      5336      5335      5338      5339
      5336      5335      5338      5369      5337      5335      5331      5377
      5337      5335      5338      5339      5337      5335      5338      5369
      5338      5335      5331      5377      5338      5339      5341      5342
      5338      5339      5341      5343      5338      5339      5341      5344
      5338      5369      5367      5344      5338      5369      5367      5364
      5338      5369      5367      5368      5338      5369      5370      5371
      5338      5369      5370      5372      5338      5369      5370      5373
      5338      5369      5374      5375      5338      5369      5374      5376
      5338      5369      5374      5377      5339      5338      5369      5367
      5339      5338      5369      5370      5339      5338      5369      5374
      5339      5341      5344      5345      5339      5341      5344      5346
      5339      5341      5344      5367      5340      5339      5338      5369
      5340      5339      5341      5342      5340      5339      5341      5343
      5340      5339      5341      5344      5341      5339      5338      5369
      5341      5344      5346      5347      5341      5344      5346      5348
      5341      5344      5346      5356      5341      5344      5367      5364
      5341      5344      5367      5368      5341      5344      5367      5369
      5342      5341      5344      5345      5342      5341      5344      5346
      5342      5341      5344      5367      5343      5341      5344      5345
      5343      5341      5344      5346      5343      5341      5344      5367
      5344      5346      5348      5349      5344      5346      5348      5350
      5344      5346      5348      5351      5344      5346      5356      5354
      5344      5346      5356      5357      5344      5346      5356      5361
      5344      5367      5364      5361      5344      5367      5364      5365
      5344      5367      5364      5366      5344      5367      5369      5370
      5344      5367      5369      5374      5345      5344      5346      5347
      5345      5344      5346      5348      5345      5344      5346      5356
      5345      5344      5367      5364      5345      5344      5367      5368
      5345      5344      5367      5369      5346      5344      5367      5364
      5346      5344      5367      5368      5346      5344      5367      5369
      5346      5348      5351      5352      5346      5348      5351      5353
      5346      5348      5351      5354      5346      5356      5354      5351
      5346      5356      5354      5355      5346      5356      5354      5380
      5346      5356      5357      5358      5346      5356      5357      5359
      5346      5356      5357      5360      5346      5356      5361      5362
      5346      5356      5361      5363      5346      5356      5361      5364
      5347      5346      5344      5367      5347      5346      5348      5349
      5347      5346      5348      5350      5347      5346      5348      5351
      5347      5346      5356      5354      5347      5346      5356      5357
      5347      5346      5356      5361      5348      5346      5344      5367
      5348      5346      5356      5354      5348      5346      5356      5357
      5348      5346      5356      5361      5348      5351      5354      5355
      5348      5351      5354      5356      5348      5351      5354      5380
      5349      5348      5346      5356      5349      5348      5351      5352
      5349      5348      5351      5353      5349      5348      5351      5354
      5350      5348      5346      5356      5350      5348      5351      5352
      5350      5348      5351      5353      5350      5348      5351      5354
      5351      5348      5346      5356      5351      5354      5356      5357
      5351      5354      5356      5361      5351      5354      5380      5381
      5351      5354      5380      5382      5351      5354      5380      5386
      5352      5351      5354      5355      5352      5351      5354      5356
      5352      5351      5354      5380      5353      5351      5354      5355
      5353      5351      5354      5356      5353      5351      5354      5380
      5354      5356      5357      5358      5354      5356      5357      5359
      5354      5356      5357      5360      5354      5356      5361      5362
      5354      5356      5361      5363      5354      5356      5361      5364
      5354      5380      5382      5383      5354      5380      5382      5384
      5354      5380      5382      5385      5354      5380      5386      5387
      5354      5380      5386      5388      5354      5380      5386      5389
      5355      5354      5356      5357      5355      5354      5356      5361
      5355      5354      5380      5381      5355      5354      5380      5382
      5355      5354      5380      5386      5356      5346      5344      5367
      5356      5354      5380      5381      5356      5354      5380      5382
      5356      5354      5380      5386      5356      5361      5364      5365
      5356      5361      5364      5366      5356      5361      5364      5367
      5357      5356      5354      5380      5357      5356      5361      5362
      5357      5356      5361      5363      5357      5356      5361      5364
      5358      5357      5356      5361      5359      5357      5356      5361
      5360      5357      5356      5361      5361      5356      5354      5380
      5361      5364      5367      5368      5361      5364      5367      5369
      5362      5361      5364      5365      5362      5361      5364      5366
      5362      5361      5364      5367      5363      5361      5364      5365
      5363      5361      5364      5366      5363      5361      5364      5367
      5364      5367      5369      5370      5364      5367      5369      5374
      5365      5364      5367      5368      5365      5364      5367      5369
      5366      5364      5367      5368      5366      5364      5367      5369
      5367      5369      5370      5371      5367      5369      5370      5372
      5367      5369      5370      5373      5367      5369      5374      5375
      5367      5369      5374      5376      5367      5369      5374      5377
      5368      5367      5369      5370      5368      5367      5369      5374
      5369      5374      5377      5378      5369      5374      5377      5379
      5370      5369      5374      5375      5370      5369      5374      5376
      5370      5369      5374      5377      5371      5370      5369      5374
      5372      5370      5369      5374      5373      5370      5369      5374
      5375      5374      5377      5378      5375      5374      5377      5379
      5376      5374      5377      5378      5376      5374      5377      5379
      5380      5386      5389      5390      5380      5386      5389      5391
      5380      5386      5389      5392      5381      5380      5382      5383
      5381      5380      5382      5384      5381      5380      5382      5385
      5381      5380      5386      5387      5381      5380      5386      5388
      5381      5380      5386      5389      5382      5380      5386      5387
      5382      5380      5386      5388      5382      5380      5386      5389
      5383      5382      5380      5386      5384      5382      5380      5386
      5385      5382      5380      5386      5386      5389      5392      5393
      5386      5389      5392      5394      5386      5389      5392      5395
      5387      5386      5389      5390      5387      5386      5389      5391
      5387      5386      5389      5392      5388      5386      5389      5390
      5388      5386      5389      5391      5388      5386      5389      5392
      5389      5392      5395      5396      5389      5392      5395      5397
      5389      5392      5395      5401      5390      5389      5392      5393
      5390      5389      5392      5394      5390      5389      5392      5395
      5391      5389      5392      5393      5391      5389      5392      5394
      5391      5389      5392      5395      5392      5395      5397      5398
      5392      5395      5397      5399      5392      5395      5397      5400
      5392      5395      5401      5402      5392      5395      5401      5403
      5392      5395      5401      5404      5393      5392      5395      5396
      5393      5392      5395      5397      5393      5392      5395      5401
      5394      5392      5395      5396      5394      5392      5395      5397
      5394      5392      5395      5401      5396      5395      5397      5398
      5396      5395      5397      5399      5396      5395      5397      5400
      5396      5395      5401      5402      5396      5395      5401      5403
      5396      5395      5401      5404      5397      5395      5401      5402
      5397      5395      5401      5403      5397      5395      5401      5404
      5398      5397      5395      5401      5399      5397      5395      5401
      5400      5397      5395      5401       132       145       148       149
       132       145       148       150       132       145       148       155
       133       132       137       138       133       132       137       139
       133       132       137       140       133       132       141       142
       133       132       141       143       133       132       141       144
       133       132       145       146       133       132       145       147
       133       132       145       148       134       133       132       137
       134       133       132       141       134       133       132       145
       135       133       132       137       135       133       132       141
       135       133       132       145       136       133       132       137
       136       133       132       141       136       133       132       145
       137       132       141       142       137       132       141       143
       137       132       141       144       137       132       145       146
       137       132       145       147       137       132       145       148
       138       137       132       141       138       137       132       145
       139       137       132       141       139       137       132       145
       140       137       132       141       140       137       132       145
       141       132       145       146       141       132       145       147
       141       132       145       148       142       141       132       145
       143       141       132       145       144       141       132       145
       145       148       155       151       146       145       148       149
       146       145       148       150       146       145       148       155
       147       145       148       149       147       145       148       150
       147       145       148       155       148       155       151       152
       148       155       151       153       148       155       151       154
       149       148       155       151       150       148       155       151
       151       154       156       157       151       154       156       158
       151       154       156       161       152       151       154       156
       153       151       154       156       154       156       161       159
       154       156       161       162       154       156       161       163
       155       151       154       156       156       161       159       160
       156       161       159       211       156       161       163       164
       156       161       163       165       156       161       163       167
       157       156       161       159       157       156       161       162
       157       156       161       163       158       156       161       159
       158       156       161       162       158       156       161       163
       159       161       163       164       159       161       163       165
       159       161       163       167       159       211       213       214
       159       211       213       215       159       211       213       216
       160       159       161       162       160       159       161       163
       160       159       211       212       160       159       211       213
       161       159       211       212       161       159       211       213
       161       163       165       166       161       163       167       168
       161       163       167       169       162       161       159       211
       162       161       163       164       162       161       163       165
       162       161       163       167       163       161       159       211
       163       167       169       170       163       167       169       171
       164       163       165       166       164       163       167       168
       164       163       167       169       165       163       167       168
       165       163       167       169       166       165       163       167
       167       169       171       172       167       169       171       173
       167       169       171       174       168       167       169       170
       168       167       169       171       169       171       174       175
       169       171       174       176       169       171       174       177
       170       169       171       172       170       169       171       173
       170       169       171       174       171       174       177       178
       171       174       177       179       171       174       177       180
       172       171       174       175       172       171       174       176
       172       171       174       177       173       171       174       175
       173       171       174       176       173       171       174       177
       174       177       180       181       174       177       180       182
       174       177       180       183       175       174       177       178
       175       174       177       179       175       174       177       180
       176       174       177       178       176       174       177       179
       176       174       177       180       177       180       183       184
       177       180       183       185       177       180       183       186
       178       177       180       181       178       177       180       182
       178       177       180       183       179       177       180       181
       179       177       180       182       179       177       180       183
       180       183       186       187       180       183       186       188
       180       183       186       189       181       180       183       184
       181       180       183       185       181       180       183       186
       182       180       183       184       182       180       183       185
       182       180       183       186       183       186       189       190
       183       186       189       191       183       186       189       192
       184       183       186       187       184       183       186       188
       184       183       186       189       185       183       186       187
       185       183       186       188       185       183       186       189
       186       189       192       193       186       189       192       194
       186       189       192       195       187       186       189       190
       187       186       189       191       187       186       189       192
       188       186       189       190       188       186       189       191
       188       186       189       192       189       192       195       196
       189       192       195       197       189       192       195       198
       190       189       192       193       190       189       192       194
       190       189       192       195       191       189       192       193
       191       189       192       194       191       189       192       195
       192       195       198       199       192       195       198       200
       192       195       198       201       193       192       195       196
       193       192       195       197       193       192       195       198
       194       192       195       196       194       192       195       197
       194       192       195       198       195       198       201       202
       195       198       201       203       195       198       201       204
       196       195       198       199       196       195       198       200
       196       195       198       201       197       195       198       199
       197       195       198       200       197       195       198       201
       198       201       204       205       198       201       204       206
       198       201       204       207       199       198       201       202
       199       198       201       203       199       198       201       204
       200       198       201       202       200       198       201       203
       200       198       201       204       201       204       207       208
       201       204       207       209       201       204       207       210
       202       201       204       205       202       201       204       206
       202       201       204       207       203       201       204       205
       203       201       204       206       203       201       204       207
       205       204       207       208       205       204       207       209
       205       204       207       210       206       204       207       208
       206       204       207       209       206       204       207       210
       211       213       216       217       211       213       216       218
       211       213       216       219       212       211       213       214
       212       211       213       215       212       211       213       216
       213       216       219       220       213       216       219       221
       213       216       219       222       214       213       216       217
       214       213       216       218       214       213       216       219
       215       213       216       217       215       213       216       218
       215       213       216       219       216       219       222       223
       216       219       222       224       216       219       222       225
       217       216       219       220       217       216       219       221
       217       216       219       222       218       216       219       220
       218       216       219       221       218       216       219       222
       219       222       225       226       219       222       225       227
       219       222       225       228       220       219       222       223
       220       219       222       224       220       219       222       225
       221       219       222       223       221       219       222       224
       221       219       222       225       222       225       228       229
       222       225       228       230       222       225       228       231
       223       222       225       226       223       222       225       227
       223       222       225       228       224       222       225       226
       224       222       225       227       224       222       225       228
       225       228       231       232       225       228       231       233
       225       228       231       234       226       225       228       229
       226       225       228       230       226       225       228       231
       227       225       228       229       227       225       228       230
       227       225       228       231       228       231       234       235
       228       231       234       236       229       228       231       232
       229       228       231       233       229       228       231       234
       230       228       231       232       230       228       231       233
       230       228       231       234       231       234       236       237
       231       234       236       238       232       231       234       235
       232       231       234       236       233       231       234       235
       233       231       234       236       234       236       238       239
       234       236       238       240       234       236       238       241
       235       234       236       237       235       234       236       238
       236       238       241       242       236       238       241       243
       236       238       241       244       237       236       238       239
       237       236       238       240       237       236       238       241
       238       241       244       245       238       241       244       246
       238       241       244       247       239       238       241       242
       239       238       241       243       239       238       241       244
       240       238       241       242       240       238       241       243
       240       238       241       244       241       244       247       248
       241       244       247       249       241       244       247       250
       242       241       244       245       242       241       244       246
       242       241       244       247       243       241       244       245
       243       241       244       246       243       241       244       247
       244       247       250       251       244       247       250       252
       244       247       250       253       245       244       247       248
       245       244       247       249       245       244       247       250
       246       244       247       248       246       244       247       249
       246       244       247       250       247       250       253       254
       247       250       253       255       247       250       253       256
       248       247       250       251       248       247       250       252
       248       247       250       253       249       247       250       251
       249       247       250       252       249       247       250       253
       250       253       256       257       250       253       256       258
       250       253       256       259       251       250       253       254
       251       250       253       255       251       250       253       256
       252       250       253       254       252       250       253       255
       252       250       253       256       253       256       259       260
       253       256       259       261       253       256       259       262
       254       253       256       257       254       253       256       258
       254       253       256       259       255       253       256       257
       255       253       256       258       255       253       256       259
       257       256       259       260       257       256       259       261
       257       256       259       262       258       256       259       260
       258       256       259       261       258       256       259       262
      5405      5409      5412      5413      5405      5409      5412      5443
      5405      5451      5448      5443      5405      5451      5448      5449
      5405      5451      5448      5450      5406      5405      5407      5408
      5406      5405      5409      5410      5406      5405      5409      5411
      5406      5405      5409      5412      5406      5405      5451      5448
      5406      5405      5451      5452      5406      5405      5451      5453
      5407      5405      5409      5410      5407      5405      5409      5411
      5407      5405      5409      5412      5407      5405      5451      5448
      5407      5405      5451      5452      5407      5405      5451      5453
      5408      5407      5405      5409      5408      5407      5405      5451
      5409      5405      5451      5448      5409      5405      5451      5452
      5409      5405      5451      5453      5409      5412      5413      5414
      5409      5412      5413      5415      5409      5412      5443      5441
      5409      5412      5443      5444      5409      5412      5443      5448
      5410      5409      5405      5451      5410      5409      5412      5413
      5410      5409      5412      5443      5411      5409      5405      5451
      5411      5409      5412      5413      5411      5409      5412      5443
      5412      5409      5405      5451      5412      5413      5415      5416
      5412      5413      5415      5417      5412      5413      5415      5418
      5412      5443      5441      5418      5412      5443      5441      5438
      5412      5443      5441      5442      5412      5443      5444      5445
      5412      5443      5444      5446      5412      5443      5444      5447
      5412      5443      5448      5449      5412      5443      5448      5450
      5412      5443      5448      5451      5413      5412      5443      5441
      5413      5412      5443      5444      5413      5412      5443      5448
      5413      5415      5418      5419      5413      5415      5418      5420
      5413      5415      5418      5441      5414      5413      5412      5443
      5414      5413      5415      5416      5414      5413      5415      5417
      5414      5413      5415      5418      5415      5413      5412      5443
      5415      5418      5420      5421      5415      5418      5420      5422
      5415      5418      5420      5430      5415      5418      5441      5438
      5415      5418      5441      5442      5415      5418      5441      5443
      5416      5415      5418      5419      5416      5415      5418      5420
      5416      5415      5418      5441      5417      5415      5418      5419
      5417      5415      5418      5420      5417      5415      5418      5441
      5418      5420      5422      5423      5418      5420      5422      5424
      5418      5420      5422      5425      5418      5420      5430      5428
      5418      5420      5430      5431      5418      5420      5430      5435
      5418      5441      5438      5435      5418      5441      5438      5439
      5418      5441      5438      5440      5418      5441      5443      5444
      5418      5441      5443      5448      5419      5418      5420      5421
      5419      5418      5420      5422      5419      5418      5420      5430
      5419      5418      5441      5438      5419      5418      5441      5442
      5419      5418      5441      5443      5420      5418      5441      5438
      5420      5418      5441      5442      5420      5418      5441      5443
      5420      5422      5425      5426      5420      5422      5425      5427
      5420      5422      5425      5428      5420      5430      5428      5425
      5420      5430      5428      5429      5420      5430      5428      5454
      5420      5430      5431      5432      5420      5430      5431      5433
      5420      5430      5431      5434      5420      5430      5435      5436
      5420      5430      5435      5437      5420      5430      5435      5438
      5421      5420      5418      5441      5421      5420      5422      5423
      5421      5420      5422      5424      5421      5420      5422      5425
      5421      5420      5430      5428      5421      5420      5430      5431
      5421      5420      5430      5435      5422      5420      5418      5441
      5422      5420      5430      5428      5422      5420      5430      5431
      5422      5420      5430      5435      5422      5425      5428      5429
      5422      5425      5428      5430      5422      5425      5428      5454
      5423      5422      5420      5430      5423      5422      5425      5426
      5423      5422      5425      5427      5423      5422      5425      5428
      5424      5422      5420      5430      5424      5422      5425      5426
      5424      5422      5425      5427      5424      5422      5425      5428
      5425      5422      5420      5430      5425      5428      5430      5431
      5425      5428      5430      5435      5425      5428      5454      5455
      5425      5428      5454      5456      5425      5428      5454      5460
      5426      5425      5428      5429      5426      5425      5428      5430
      5426      5425      5428      5454      5427      5425      5428      5429
      5427      5425      5428      5430      5427      5425      5428      5454
      5428      5430      5431      5432      5428      5430      5431      5433
      5428      5430      5431      5434      5428      5430      5435      5436
      5428      5430      5435      5437      5428      5430      5435      5438
      5428      5454      5456      5457      5428      5454      5456      5458
      5428      5454      5456      5459      5428      5454      5460      5461
      5428      5454      5460      5462      5428      5454      5460      5463
      5429      5428      5430      5431      5429      5428      5430      5435
      5429      5428      5454      5455      5429      5428      5454      5456
      5429      5428      5454      5460      5430      5420      5418      5441
      5430      5428      5454      5455      5430      5428      5454      5456
      5430      5428      5454      5460      5430      5435      5438      5439
      5430      5435      5438      5440      5430      5435      5438      5441
      5431      5430      5428      5454      5431      5430      5435      5436
      5431      5430      5435      5437      5431      5430      5435      5438
      5432      5431      5430      5435      5433      5431      5430      5435
      5434      5431      5430      5435      5435      5430      5428      5454
      5435      5438      5441      5442      5435      5438      5441      5443
      5436      5435      5438      5439      5436      5435      5438      5440
      5436      5435      5438      5441      5437      5435      5438      5439
      5437      5435      5438      5440      5437      5435      5438      5441
      5438      5441      5443      5444      5438      5441      5443      5448
      5439      5438      5441      5442      5439      5438      5441      5443
      5440      5438      5441      5442      5440      5438      5441      5443
      5441      5443      5444      5445      5441      5443      5444      5446
      5441      5443      5444      5447      5441      5443      5448      5449
      5441      5443      5448      5450      5441      5443      5448      5451
      5442      5441      5443      5444      5442      5441      5443      5448
      5443      5448      5451      5452      5443      5448      5451      5453
      5444      5443      5448      5449      5444      5443      5448      5450
      5444      5443      5448      5451      5445      5444      5443      5448
      5446      5444      5443      5448      5447      5444      5443      5448
      5449      5448      5451      5452      5449      5448      5451      5453
      5450      5448      5451      5452      5450      5448      5451      5453
      5454      5460      5463      5464      5454      5460      5463      5465
      5454      5460      5463      5466      5455      5454      5456      5457
      5455      5454      5456      5458      5455      5454      5456      5459
      5455      5454      5460      5461      5455      5454      5460      5462
      5455      5454      5460      5463      5456      5454      5460      5461
      5456      5454      5460      5462      5456      5454      5460      5463
      5457      5456      5454      5460      5458      5456      5454      5460
      5459      5456      5454      5460      5460      5463      5466      5467
      5460      5463      5466      5468      5460      5463      5466      5469
      5461      5460      5463      5464      5461      5460      5463      5465
      5461      5460      5463      5466      5462      5460      5463      5464
      5462      5460      5463      5465      5462      5460      5463      5466
      5463      5466      5469      5470      5463      5466      5469      5471
      5463      5466      5469      5475      5464      5463      5466      5467
      5464      5463      5466      5468      5464      5463      5466      5469
      5465      5463      5466      5467      5465      5463      5466      5468
      5465      5463      5466      5469      5466      5469      5471      5472
      5466      5469      5471      5473      5466      5469      5471      5474
      5466      5469      5475      5476      5466      5469      5475      5477
      5466      5469      5475      5478      5467      5466      5469      5470
      5467      5466      5469      5471      5467      5466      5469      5475
      5468      5466      5469      5470      5468      5466      5469      5471
      5468      5466      5469      5475      5470      5469      5471      5472
      5470      5469      5471      5473      5470      5469      5471      5474
      5470      5469      5475      5476      5470      5469      5475      5477
      5470      5469      5475      5478      5471      5469      5475      5476
      5471      5469      5475      5477      5471      5469      5475      5478
      5472      5471      5469      5475      5473      5471      5469      5475
      5474      5471      5469      5475       263       276       279       280
       263       276       279       281       263       276       279       286
       264       263       268       269       264       263       268       270
       264       263       268       271       264       263       272       273
       264       263       272       274       264       263       272       275
       264       263       276       277       264       263       276       278
       264       263       276       279       265       264       263       268
       265       264       263       272       265       264       263       276
       266       264       263       268       266       264       263       272
       266       264       263       276       267       264       263       268
       267       264       263       272       267       264       263       276
       268       263       272       273       268       263       272       274
       268       263       272       275       268       263       276       277
       268       263       276       278       268       263       276       279
       269       268       263       272       269       268       263       276
       270       268       263       272       270       268       263       276
       271       268       263       272       271       268       263       276
       272       263       276       277       272       263       276       278
       272       263       276       279       273       272       263       276
       274       272       263       276       275       272       263       276
       276       279       286       282       277       276       279       280
       277       276       279       281       277       276       279       286
       278       276       279       280       278       276       279       281
       278       276       279       286       279       286       282       283
       279       286       282       284       279       286       282       285
       280       279       286       282       281       279       286       282
       282       285       287       288       282       285       287       289
       282       285       287       292       283       282       285       287
       284       282       285       287       285       287       292       290
       285       287       292       293       285       287       292       294
       286       282       285       287       287       292       290       291
       287       292       290       342       287       292       294       295
       287       292       294       296       287       292       294       298
       288       287       292       290       288       287       292       293
       288       287       292       294       289       287       292       290
       289       287       292       293       289       287       292       294
       290       292       294       295       290       292       294       296
       290       292       294       298       290       342       344       345
       290       342       344       346       290       342       344       347
       291       290       292       293       291       290       292       294
       291       290       342       343       291       290       342       344
       292       290       342       343       292       290       342       344
       292       294       296       297       292       294       298       299
       292       294       298       300       293       292       290       342
       293       292       294       295       293       292       294       296
       293       292       294       298       294       292       290       342
       294       298       300       301       294       298       300       302
       295       294       296       297       295       294       298       299
       295       294       298       300       296       294       298       299
       296       294       298       300       297       296       294       298
       298       300       302       303       298       300       302       304
       298       300       302       305       299       298       300       301
       299       298       300       302       300       302       305       306
       300       302       305       307       300       302       305       308
       301       300       302       303       301       300       302       304
       301       300       302       305       302       305       308       309
       302       305       308       310       302       305       308       311
       303       302       305       306       303       302       305       307
       303       302       305       308       304       302       305       306
       304       302       305       307       304       302       305       308
       305       308       311       312       305       308       311       313
       305       308       311       314       306       305       308       309
       306       305       308       310       306       305       308       311
       307       305       308       309       307       305       308       310
       307       305       308       311       308       311       314       315
       308       311       314       316       308       311       314       317
       309       308       311       312       309       308       311       313
       309       308       311       314       310       308       311       312
       310       308       311       313       310       308       311       314
       311       314       317       318       311       314       317       319
       311       314       317       320       312       311       314       315
       312       311       314       316       312       311       314       317
       313       311       314       315       313       311       314       316
       313       311       314       317       314       317       320       321
       314       317       320       322       314       317       320       323
       315       314       317       318       315       314       317       319
       315       314       317       320       316       314       317       318
       316       314       317       319       316       314       317       320
       317       320       323       324       317       320       323       325
       317       320       323       326       318       317       320       321
       318       317       320       322       318       317       320       323
       319       317       320       321       319       317       320       322
       319       317       320       323       320       323       326       327
       320       323       326       328       320       323       326       329
       321       320       323       324       321       320       323       325
       321       320       323       326       322       320       323       324
       322       320       323       325       322       320       323       326
       323       326       329       330       323       326       329       331
       323       326       329       332       324       323       326       327
       324       323       326       328       324       323       326       329
       325       323       326       327       325       323       326       328
       325       323       326       329       326       329       332       333
       326       329       332       334       326       329       332       335
       327       326       329       330       327       326       329       331
       327       326       329       332       328       326       329       330
       328       326       329       331       328       326       329       332
       329       332       335       336       329       332       335       337
       329       332       335       338       330       329       332       333
       330       329       332       334       330       329       332       335
       331       329       332       333       331       329       332       334
       331       329       332       335       332       335       338       339
       332       335       338       340       332       335       338       341
       333       332       335       336       333       332       335       337
       333       332       335       338       334       332       335       336
       334       332       335       337       334       332       335       338
       336       335       338       339       336       335       338       340
       336       335       338       341       337       335       338       339
       337       335       338       340       337       335       338       341
       342       344       347       348       342       344       347       349
       342       344       347       350       343       342       344       345
       343       342       344       346       343       342       344       347
       344       347       350       351       344       347       350       352
       344       347       350       353       345       344       347       348
       345       344       347       349       345       344       347       350
       346       344       347       348       346       344       347       349
       346       344       347       350       347       350       353       354
       347       350       353       355       347       350       353       356
       348       347       350       351       348       347       350       352
       348       347       350       353       349       347       350       351
       349       347       350       352       349       347       350       353
       350       353       356       357       350       353       356       358
       350       353       356       359       351       350       353       354
       351       350       353       355       351       350       353       356
       352       350       353       354       352       350       353       355
       352       350       353       356       353       356       359       360
       353       356       359       361       353       356       359       362
       354       353       356       357       354       353       356       358
       354       353       356       359       355       353       356       357
       355       353       356       358       355       353       356       359
       356       359       362       363       356       359       362       364
       356       359       362       365       357       356       359       360
       357       356       359       361       357       356       359       362
       358       356       359       360       358       356       359       361
       358       356       359       362       359       362       365       366
       359       362       365       367       360       359       362       363
       360       359       362       364       360       359       362       365
       361       359       362       363       361       359       362       364
       361       359       362       365       362       365       367       368
       362       365       367       369       363       362       365       366
       363       362       365       367       364       362       365       366
       364       362       365       367       365       367       369       370
       365       367       369       371       365       367       369       372
       366       365       367       368       366       365       367       369
       367       369       372       373       367       369       372       374
       367       369       372       375       368       367       369       370
       368       367       369       371       368       367       369       372
       369       372       375       376       369       372       375       377
       369       372       375       378       370       369       372       373
       370       369       372       374       370       369       372       375
       371       369       372       373       371       369       372       374
       371       369       372       375       372       375       378       379
       372       375       378       380       372       375       378       381
       373       372       375       376       373       372       375       377
       373       372       375       378       374       372       375       376
       374       372       375       377       374       372       375       378
       375       378       381       382       375       378       381       383
       375       378       381       384       376       375       378       379
       376       375       378       380       376       375       378       381
       377       375       378       379       377       375       378       380
       377       375       378       381       378       381       384       385
       378       381       384       386       378       381       384       387
       379       378       381       382       379       378       381       383
       379       378       381       384       380       378       381       382
       380       378       381       383       380       378       381       384
       381       384       387       388       381       384       387       389
       381       384       387       390       382       381       384       385
       382       381       384       386       382       381       384       387
       383       381       384       385       383       381       384       386
       383       381       384       387       384       387       390       391
       384       387       390       392       384       387       390       393
       385       384       387       388       385       384       387       389
       385       384       387       390       386       384       387       388
       386       384       387       389       386       384       387       390
       388       387       390       391       388       387       390       392
       388       387       390       393       389       387       390       391
       389       387       390       392       389       387       390       393
      5479      5483      5486      5487      5479      5483      5486      5517
      5479      5525      5522      5517      5479      5525      5522      5523
      5479      5525      5522      5524      5480      5479      5481      5482
      5480      5479      5483      5484      5480      5479      5483      5485
      5480      5479      5483      5486      5480      5479      5525      5522
      5480      5479      5525      5526      5480      5479      5525      5527
      5481      5479      5483      5484      5481      5479      5483      5485
      5481      5479      5483      5486      5481      5479      5525      5522
      5481      5479      5525      5526      5481      5479      5525      5527
      5482      5481      5479      5483      5482      5481      5479      5525
      5483      5479      5525      5522      5483      5479      5525      5526
      5483      5479      5525      5527      5483      5486      5487      5488
      5483      5486      5487      5489      5483      5486      5517      5515
      5483      5486      5517      5518      5483      5486      5517      5522
      5484      5483      5479      5525      5484      5483      5486      5487
      5484      5483      5486      5517      5485      5483      5479      5525
      5485      5483      5486      5487      5485      5483      5486      5517
      5486      5483      5479      5525      5486      5487      5489      5490
      5486      5487      5489      5491      5486      5487      5489      5492
      5486      5517      5515      5492      5486      5517      5515      5512
      5486      5517      5515      5516      5486      5517      5518      5519
      5486      5517      5518      5520      5486      5517      5518      5521
      5486      5517      5522      5523      5486      5517      5522      5524
      5486      5517      5522      5525      5487      5486      5517      5515
      5487      5486      5517      5518      5487      5486      5517      5522
      5487      5489      5492      5493      5487      5489      5492      5494
      5487      5489      5492      5515      5488      5487      5486      5517
      5488      5487      5489      5490      5488      5487      5489      5491
      5488      5487      5489      5492      5489      5487      5486      5517
      5489      5492      5494      5495      5489      5492      5494      5496
      5489      5492      5494      5504      5489      5492      5515      5512
      5489      5492      5515      5516      5489      5492      5515      5517
      5490      5489      5492      5493      5490      5489      5492      5494
      5490      5489      5492      5515      5491      5489      5492      5493
      5491      5489      5492      5494      5491      5489      5492      5515
      5492      5494      5496      5497      5492      5494      5496      5498
      5492      5494      5496      5499      5492      5494      5504      5502
      5492      5494      5504      5505      5492      5494      5504      5509
      5492      5515      5512      5509      5492      5515      5512      5513
      5492      5515      5512      5514      5492      5515      5517      5518
      5492      5515      5517      5522      5493      5492      5494      5495
      5493      5492      5494      5496      5493      5492      5494      5504
      5493      5492      5515      5512      5493      5492      5515      5516
      5493      5492      5515      5517      5494      5492      5515      5512
      5494      5492      5515      5516      5494      5492      5515      5517
      5494      5496      5499      5500      5494      5496      5499      5501
      5494      5496      5499      5502      5494      5504      5502      5499
      5494      5504      5502      5503      5494      5504      5502      5528
      5494      5504      5505      5506      5494      5504      5505      5507
      5494      5504      5505      5508      5494      5504      5509      5510
      5494      5504      5509      5511      5494      5504      5509      5512
      5495      5494      5492      5515      5495      5494      5496      5497
      5495      5494      5496      5498      5495      5494      5496      5499
      5495      5494      5504      5502      5495      5494      5504      5505
      5495      5494      5504      5509      5496      5494      5492      5515
      5496      5494      5504      5502      5496      5494      5504      5505
      5496      5494      5504      5509      5496      5499      5502      5503
      5496      5499      5502      5504      5496      5499      5502      5528
      5497      5496      5494      5504      5497      5496      5499      5500
      5497      5496      5499      5501      5497      5496      5499      5502
      5498      5496      5494      5504      5498      5496      5499      5500
      5498      5496      5499      5501      5498      5496      5499      5502
      5499      5496      5494      5504      5499      5502      5504      5505
      5499      5502      5504      5509      5499      5502      5528      5529
      5499      5502      5528      5530      5499      5502      5528      5534
      5500      5499      5502      5503      5500      5499      5502      5504
      5500      5499      5502      5528      5501      5499      5502      5503
      5501      5499      5502      5504      5501      5499      5502      5528
      5502      5504      5505      5506      5502      5504      5505      5507
      5502      5504      5505      5508      5502      5504      5509      5510
      5502      5504      5509      5511      5502      5504      5509      5512
      5502      5528      5530      5531      5502      5528      5530      5532
      5502      5528      5530      5533      5502      5528      5534      5535
      5502      5528      5534      5536      5502      5528      5534      5537
      5503      5502      5504      5505      5503      5502      5504      5509
      5503      5502      5528      5529      5503      5502      5528      5530
      5503      5502      5528      5534      5504      5494      5492      5515
      5504      5502      5528      5529      5504      5502      5528      5530
      5504      5502      5528      5534      5504      5509      5512      5513
      5504      5509      5512      5514      5504      5509      5512      5515
      5505      5504      5502      5528      5505      5504      5509      5510
      5505      5504      5509      5511      5505      5504      5509      5512
      5506      5505      5504      5509      5507      5505      5504      5509
      5508      5505      5504      5509      5509      5504      5502      5528
      5509      5512      5515      5516      5509      5512      5515      5517
      5510      5509      5512      5513      5510      5509      5512      5514
      5510      5509      5512      5515      5511      5509      5512      5513
      5511      5509      5512      5514      5511      5509      5512      5515
      5512      5515      5517      5518      5512      5515      5517      5522
      5513      5512      5515      5516      5513      5512      5515      5517
      5514      5512      5515      5516      5514      5512      5515      5517
      5515      5517      5518      5519      5515      5517      5518      5520
      5515      5517      5518      5521      5515      5517      5522      5523
      5515      5517      5522      5524      5515      5517      5522      5525
      5516      5515      5517      5518      5516      5515      5517      5522
      5517      5522      5525      5526      5517      5522      5525      5527
      5518      5517      5522      5523      5518      5517      5522      5524
      5518      5517      5522      5525      5519      5518      5517      5522
      5520      5518      5517      5522      5521      5518      5517      5522
      5523      5522      5525      5526      5523      5522      5525      5527
      5524      5522      5525      5526      5524      5522      5525      5527
      5528      5534      5537      5538      5528      5534      5537      5539
      5528      5534      5537      5540      5529      5528      5530      5531
      5529      5528      5530      5532      5529      5528      5530      5533
      5529      5528      5534      5535      5529      5528      5534      5536
      5529      5528      5534      5537      5530      5528      5534      5535
      5530      5528      5534      5536      5530      5528      5534      5537
      5531      5530      5528      5534      5532      5530      5528      5534
      5533      5530      5528      5534      5534      5537      5540      5541
      5534      5537      5540      5542      5534      5537      5540      5543
      5535      5534      5537      5538      5535      5534      5537      5539
      5535      5534      5537      5540      5536      5534      5537      5538
      5536      5534      5537      5539      5536      5534      5537      5540
      5537      5540      5543      5544      5537      5540      5543      5545
      5537      5540      5543      5549      5538      5537      5540      5541
      5538      5537      5540      5542      5538      5537      5540      5543
      5539      5537      5540      5541      5539      5537      5540      5542
      5539      5537      5540      5543      5540      5543      5545      5546
      5540      5543      5545      5547      5540      5543      5545      5548
      5540      5543      5549      5550      5540      5543      5549      5551
      5540      5543      5549      5552      5541      5540      5543      5544
      5541      5540      5543      5545      5541      5540      5543      5549
      5542      5540      5543      5544      5542      5540      5543      5545
      5542      5540      5543      5549      5544      5543      5545      5546
      5544      5543      5545      5547      5544      5543      5545      5548
      5544      5543      5549      5550      5544      5543      5549      5551
      5544      5543      5549      5552      5545      5543      5549      5550
      5545      5543      5549      5551      5545      5543      5549      5552
      5546      5545      5543      5549      5547      5545      5543      5549
      5548      5545      5543      5549      5553      5557      5560      5561
      5553      5557      5560      5591      5553      5599      5596      5591
      5553      5599      5596      5597      5553      5599      5596      5598
      5554      5553      5555      5556      5554      5553      5557      5558
      5554      5553      5557      5559      5554      5553      5557      5560
      5554      5553      5599      5596      5554      5553      5599      5600
      5554      5553      5599      5601      5555      5553      5557      5558
      5555      5553      5557      5559      5555      5553      5557      5560
      5555      5553      5599      5596      5555      5553      5599      5600
      5555      5553      5599      5601      5556      5555      5553      5557
      5556      5555      5553      5599      5557      5553      5599      5596
      5557      5553      5599      5600      5557      5553      5599      5601
      5557      5560      5561      5562      5557      5560      5561      5563
      5557      5560      5591      5589      5557      5560      5591      5592
      5557      5560      5591      5596      5558      5557      5553      5599
      5558      5557      5560      5561      5558      5557      5560      5591
      5559      5557      5553      5599      5559      5557      5560      5561
      5559      5557      5560      5591      5560      5557      5553      5599
      5560      5561      5563      5564      5560      5561      5563      5565
      5560      5561      5563      5566      5560      5591      5589      5566
      5560      5591      5589      5586      5560      5591      5589      5590
      5560      5591      5592      5593      5560      5591      5592      5594
      5560      5591      5592      5595      5560      5591      5596      5597
      5560      5591      5596      5598      5560      5591      5596      5599
      5561      5560      5591      5589      5561      5560      5591      5592
      5561      5560      5591      5596      5561      5563      5566      5567
      5561      5563      5566      5568      5561      5563      5566      5589
      5562      5561      5560      5591      5562      5561      5563      5564
      5562      5561      5563      5565      5562      5561      5563      5566
      5563      5561      5560      5591      5563      5566      5568      5569
      5563      5566      5568      5570      5563      5566      5568      5578
      5563      5566      5589      5586      5563      5566      5589      5590
      5563      5566      5589      5591      5564      5563      5566      5567
      5564      5563      5566      5568      5564      5563      5566      5589
      5565      5563      5566      5567      5565      5563      5566      5568
      5565      5563      5566      5589      5566      5568      5570      5571
      5566      5568      5570      5572      5566      5568      5570      5573
      5566      5568      5578      5576      5566      5568      5578      5579
      5566      5568      5578      5583      5566      5589      5586      5583
      5566      5589      5586      5587      5566      5589      5586      5588
      5566      5589      5591      5592      5566      5589      5591      5596
      5567      5566      5568      5569      5567      5566      5568      5570
      5567      5566      5568      5578      5567      5566      5589      5586
      5567      5566      5589      5590      5567      5566      5589      5591
      5568      5566      5589      5586      5568      5566      5589      5590
      5568      5566      5589      5591      5568      5570      5573      5574
      5568      5570      5573      5575      5568      5570      5573      5576
      5568      5578      5576      5573      5568      5578      5576      5577
      5568      5578      5576      5602      5568      5578      5579      5580
      5568      5578      5579      5581      5568      5578      5579      5582
      5568      5578      5583      5584      5568      5578      5583      5585
      5568      5578      5583      5586      5569      5568      5566      5589
      5569      5568      5570      5571      5569      5568      5570      5572
      5569      5568      5570      5573      5569      5568      5578      5576
      5569      5568      5578      5579      5569      5568      5578      5583
      5570      5568      5566      5589      5570      5568      5578      5576
      5570      5568      5578      5579      5570      5568      5578      5583
      5570      5573      5576      5577      5570      5573      5576      5578
      5570      5573      5576      5602      5571      5570      5568      5578
      5571      5570      5573      5574      5571      5570      5573      5575
      5571      5570      5573      5576      5572      5570      5568      5578
      5572      5570      5573      5574      5572      5570      5573      5575
      5572      5570      5573      5576      5573      5570      5568      5578
      5573      5576      5578      5579      5573      5576      5578      5583
      5573      5576      5602      5603      5573      5576      5602      5604
      5573      5576      5602      5608      5574      5573      5576      5577
      5574      5573      5576      5578      5574      5573      5576      5602
      5575      5573      5576      5577      5575      5573      5576      5578
      5575      5573      5576      5602      5576      5578      5579      5580
      5576      5578      5579      5581      5576      5578      5579      5582
      5576      5578      5583      5584      5576      5578      5583      5585
      5576      5578      5583      5586      5576      5602      5604      5605
      5576      5602      5604      5606      5576      5602      5604      5607
      5576      5602      5608      5609      5576      5602      5608      5610
      5576      5602      5608      5611      5577      5576      5578      5579
      5577      5576      5578      5583      5577      5576      5602      5603
      5577      5576      5602      5604      5577      5576      5602      5608
      5578      5568      5566      5589      5578      5576      5602      5603
      5578      5576      5602      5604      5578      5576      5602      5608
      5578      5583      5586      5587      5578      5583      5586      5588
      5578      5583      5586      5589      5579      5578      5576      5602
      5579      5578      5583      5584      5579      5578      5583      5585
      5579      5578      5583      5586      5580      5579      5578      5583
      5581      5579      5578      5583      5582      5579      5578      5583
      5583      5578      5576      5602      5583      5586      5589      5590
      5583      5586      5589      5591      5584      5583      5586      5587
      5584      5583      5586      5588      5584      5583      5586      5589
      5585      5583      5586      5587      5585      5583      5586      5588
      5585      5583      5586      5589      5586      5589      5591      5592
      5586      5589      5591      5596      5587      5586      5589      5590
      5587      5586      5589      5591      5588      5586      5589      5590
      5588      5586      5589      5591      5589      5591      5592      5593
      5589      5591      5592      5594      5589      5591      5592      5595
      5589      5591      5596      5597      5589      5591      5596      5598
      5589      5591      5596      5599      5590      5589      5591      5592
      5590      5589      5591      5596      5591      5596      5599      5600
      5591      5596      5599      5601      5592      5591      5596      5597
      5592      5591      5596      5598      5592      5591      5596      5599
      5593      5592      5591      5596      5594      5592      5591      5596
      5595      5592      5591      5596      5597      5596      5599      5600
      5597      5596      5599      5601      5598      5596      5599      5600
      5598      5596      5599      5601      5602      5608      5611      5612
      5602      5608      5611      5613      5602      5608      5611      5614
      5603      5602      5604      5605      5603      5602      5604      5606
      5603      5602      5604      5607      5603      5602      5608      5609
      5603      5602      5608      5610      5603      5602      5608      5611
      5604      5602      5608      5609      5604      5602      5608      5610
      5604      5602      5608      5611      5605      5604      5602      5608
      5606      5604      5602      5608      5607      5604      5602      5608
      5608      5611      5614      5615      5608      5611      5614      5616
      5608      5611      5614      5617      5609      5608      5611      5612
      5609      5608      5611      5613      5609      5608      5611      5614
      5610      5608      5611      5612      5610      5608      5611      5613
      5610      5608      5611      5614      5611      5614      5617      5618
      5611      5614      5617      5619      5611      5614      5617      5623
      5612      5611      5614      5615      5612      5611      5614      5616
      5612      5611      5614      5617      5613      5611      5614      5615
      5613      5611      5614      5616      5613      5611      5614      5617
      5614      5617      5619      5620      5614      5617      5619      5621
      5614      5617      5619      5622      5614      5617      5623      5624
      5614      5617      5623      5625      5614      5617      5623      5626
      5615      5614      5617      5618      5615      5614      5617      5619
      5615      5614      5617      5623      5616      5614      5617      5618
      5616      5614      5617      5619      5616      5614      5617      5623
      5618      5617      5619      5620      5618      5617      5619      5621
      5618      5617      5619      5622      5618      5617      5623      5624
      5618      5617      5623      5625      5618      5617      5623      5626
      5619      5617      5623      5624      5619      5617      5623      5625
      5619      5617      5623      5626      5620      5619      5617      5623
      5621      5619      5617      5623      5622      5619      5617      5623
      3685      3689      3692      3693      3685      3689      3692      3694
      3685      3689      3692      3698      3686      3685      3689      3690
      3686      3685      3689      3691      3686      3685      3689      3692
      3687      3685      3689      3690      3687      3685      3689      3691
      3687      3685      3689      3692      3688      3685      3689      3690
      3688      3685      3689      3691      3688      3685      3689      3692
      3689      3692      3698      3695      3690      3689      3692      3693
      3690      3689      3692      3694      3690      3689      3692      3698
      3691      3689      3692      3693      3691      3689      3692      3694
      3691      3689      3692      3698      3692      3698      3695      3696
      3692      3698      3695      3697      3692      3698      3695      3699
      3693      3692      3698      3695      3694      3692      3698      3695
      3695      3699      3700      3701      3695      3699      3700      3702
      3695      3699      3700      3703      3696      3695      3699      3700
      3697      3695      3699      3700      3698      3695      3699      3700
      3699      3700      3703      3704      3699      3700      3703      3705
      3699      3700      3703      3711      3700      3703      3705      3706
      3700      3703      3711      3712      3700      3703      3711      3713
      3700      3703      3711      3714      3701      3700      3703      3704
      3701      3700      3703      3705      3701      3700      3703      3711
      3702      3700      3703      3704      3702      3700      3703      3705
      3702      3700      3703      3711      3703      3705      3706      3707
      3703      3705      3706      3708      3703      3711      3714      3715
      3704      3703      3705      3706      3704      3703      3711      3712
      3704      3703      3711      3713      3704      3703      3711      3714
      3705      3703      3711      3712      3705      3703      3711      3713
      3705      3703      3711      3714      3705      3706      3708      3709
      3705      3706      3708      3710      3705      3706      3708      3720
      3706      3705      3703      3711      3706      3708      3720      3721
      3706      3708      3720      3722      3706      3708      3720      3723
      3707      3706      3708      3709      3707      3706      3708      3710
      3707      3706      3708      3720      3708      3720      3723      3724
      3708      3720      3723      3725      3708      3720      3723      3726
      3709      3708      3720      3721      3709      3708      3720      3722
      3709      3708      3720      3723      3710      3708      3720      3721
      3710      3708      3720      3722      3710      3708      3720      3723
      3711      3714      3715      3716      3711      3714      3715      3717
      3712      3711      3714      3715      3713      3711      3714      3715
      3714      3715      3717      3718      3714      3715      3717      3719
      3714      3715      3717      3767      3715      3717      3767      3768
      3715      3717      3767      3769      3715      3717      3767      3770
      3716      3715      3717      3718      3716      3715      3717      3719
      3716      3715      3717      3767      3717      3767      3770      3771
      3717      3767      3770      3772      3717      3767      3770      3773
      3718      3717      3767      3768      3718      3717      3767      3769
      3718      3717      3767      3770      3719      3717      3767      3768
      3719      3717      3767      3769      3719      3717      3767      3770
      3720      3723      3726      3727      3720      3723      3726      3728
      3721      3720      3723      3724      3721      3720      3723      3725
      3721      3720      3723      3726      3722      3720      3723      3724
      3722      3720      3723      3725      3722      3720      3723      3726
      3723      3726      3728      3729      3723      3726      3728      3730
      3724      3723      3726      3727      3724      3723      3726      3728
      3725      3723      3726      3727      3725      3723      3726      3728
      3726      3728      3730      3731      3726      3728      3730      3732
      3726      3728      3730      3733      3727      3726      3728      3729
      3727      3726      3728      3730      3728      3730      3733      3734
      3728      3730      3733      3735      3729      3728      3730      3731
      3729      3728      3730      3732      3729      3728      3730      3733
      3730      3733      3735      3736      3730      3733      3735      3737
      3731      3730      3733      3734      3731      3730      3733      3735
      3732      3730      3733      3734      3732      3730      3733      3735
      3733      3735      3737      3738      3733      3735      3737      3739
      3733      3735      3737      3740      3734      3733      3735      3736
      3734      3733      3735      3737      3735      3737      3740      3741
      3735      3737      3740      3742      3736      3735      3737      3738
      3736      3735      3737      3739      3736      3735      3737      3740
      3737      3740      3742      3743      3737      3740      3742      3744
      3738      3737      3740      3741      3738      3737      3740      3742
      3739      3737      3740      3741      3739      3737      3740      3742
      3740      3742      3744      3745      3740      3742      3744      3746
      3740      3742      3744      3747      3741      3740      3742      3743
      3741      3740      3742      3744      3742      3744      3747      3748
      3742      3744      3747      3749      3743      3742      3744      3745
      3743      3742      3744      3746      3743      3742      3744      3747
      3744      3747      3749      3750      3744      3747      3749      3751
      3745      3744      3747      3748      3745      3744      3747      3749
      3746      3744      3747      3748      3746      3744      3747      3749
      3747      3749      3751      3752      3747      3749      3751      3753
      3747      3749      3751      3754      3748      3747      3749      3750
      3748      3747      3749      3751      3749      3751      3754      3755
      3749      3751      3754      3756      3749      3751      3754      3757
      3750      3749      3751      3752      3750      3749      3751      3753
      3750      3749      3751      3754      3751      3754      3757      3758
      3751      3754      3757      3759      3751      3754      3757      3760
      3752      3751      3754      3755      3752      3751      3754      3756
      3752      3751      3754      3757      3753      3751      3754      3755
      3753      3751      3754      3756      3753      3751      3754      3757
      3754      3757      3760      3761      3754      3757      3760      3762
      3754      3757      3760      3763      3755      3754      3757      3758
      3755      3754      3757      3759      3755      3754      3757      3760
      3756      3754      3757      3758      3756      3754      3757      3759
      3756      3754      3757      3760      3757      3760      3763      3764
      3757      3760      3763      3765      3757      3760      3763      3766
      3758      3757      3760      3761      3758      3757      3760      3762
      3758      3757      3760      3763      3759      3757      3760      3761
      3759      3757      3760      3762      3759      3757      3760      3763
      3761      3760      3763      3764      3761      3760      3763      3765
      3761      3760      3763      3766      3762      3760      3763      3764
      3762      3760      3763      3765      3762      3760      3763      3766
      3767      3770      3773      3774      3767      3770      3773      3775
      3767      3770      3773      3776      3768      3767      3770      3771
      3768      3767      3770      3772      3768      3767      3770      3773
      3769      3767      3770      3771      3769      3767      3770      3772
      3769      3767      3770      3773      3770      3773      3776      3777
      3770      3773      3776      3778      3770      3773      3776      3779
      3771      3770      3773      3774      3771      3770      3773      3775
      3771      3770      3773      3776      3772      3770      3773      3774
      3772      3770      3773      3775      3772      3770      3773      3776
      3773      3776      3779      3780      3773      3776      3779      3781
      3773      3776      3779      3782      3774      3773      3776      3777
      3774      3773      3776      3778      3774      3773      3776      3779
      3775      3773      3776      3777      3775      3773      3776      3778
      3775      3773      3776      3779      3776      3779      3782      3783
      3776      3779      3782      3784      3776      3779      3782      3785
      3777      3776      3779      3780      3777      3776      3779      3781
      3777      3776      3779      3782      3778      3776      3779      3780
      3778      3776      3779      3781      3778      3776      3779      3782
      3779      3782      3785      3786      3779      3782      3785      3787
      3779      3782      3785      3788      3780      3779      3782      3783
      3780      3779      3782      3784      3780      3779      3782      3785
      3781      3779      3782      3783      3781      3779      3782      3784
      3781      3779      3782      3785      3782      3785      3788      3789
      3782      3785      3788      3790      3782      3785      3788      3791
      3783      3782      3785      3786      3783      3782      3785      3787
      3783      3782      3785      3788      3784      3782      3785      3786
      3784      3782      3785      3787      3784      3782      3785      3788
      3785      3788      3791      3792      3785      3788      3791      3793
      3785      3788      3791      3794      3786      3785      3788      3789
      3786      3785      3788      3790      3786      3785      3788      3791
      3787      3785      3788      3789      3787      3785      3788      3790
      3787      3785      3788      3791      3788      3791      3794      3795
      3788      3791      3794      3796      3788      3791      3794      3797
      3789      3788      3791      3792      3789      3788      3791      3793
      3789      3788      3791      3794      3790      3788      3791      3792
      3790      3788      3791      3793      3790      3788      3791      3794
      3791      3794      3797      3798      3791      3794      3797      3799
      3791      3794      3797      3800      3792      3791      3794      3795
      3792      3791      3794      3796      3792      3791      3794      3797
      3793      3791      3794      3795      3793      3791      3794      3796
      3793      3791      3794      3797      3794      3797      3800      3801
      3794      3797      3800      3802      3794      3797      3800      3803
      3795      3794      3797      3798      3795      3794      3797      3799
      3795      3794      3797      3800      3796      3794      3797      3798
      3796      3794      3797      3799      3796      3794      3797      3800
      3797      3800      3803      3804      3797      3800      3803      3805
      3797      3800      3803      3806      3798      3797      3800      3801
      3798      3797      3800      3802      3798      3797      3800      3803
      3799      3797      3800      3801      3799      3797      3800      3802
      3799      3797      3800      3803      3800      3803      3806      3807
      3800      3803      3806      3808      3800      3803      3806      3809
      3801      3800      3803      3804      3801      3800      3803      3805
      3801      3800      3803      3806      3802      3800      3803      3804
      3802      3800      3803      3805      3802      3800      3803      3806
      3803      3806      3809      3810      3803      3806      3809      3811
      3803      3806      3809      3812      3804      3803      3806      3807
      3804      3803      3806      3808      3804      3803      3806      3809
      3805      3803      3806      3807      3805      3803      3806      3808
      3805      3803      3806      3809      3806      3809      3812      3813
      3806      3809      3812      3814      3806      3809      3812      3815
      3807      3806      3809      3810      3807      3806      3809      3811
      3807      3806      3809      3812      3808      3806      3809      3810
      3808      3806      3809      3811      3808      3806      3809      3812
      3810      3809      3812      3813      3810      3809      3812      3814
      3810      3809      3812      3815      3811      3809      3812      3813
      3811      3809      3812      3814      3811      3809      3812      3815
      5627      5631      5634      5635      5627      5631      5634      5665
      5627      5673      5670      5665      5627      5673      5670      5671
      5627      5673      5670      5672      5628      5627      5629      5630
      5628      5627      5631      5632      5628      5627      5631      5633
      5628      5627      5631      5634      5628      5627      5673      5670
      5628      5627      5673      5674      5628      5627      5673      5675
      5629      5627      5631      5632      5629      5627      5631      5633
      5629      5627      5631      5634      5629      5627      5673      5670
      5629      5627      5673      5674      5629      5627      5673      5675
      5630      5629      5627      5631      5630      5629      5627      5673
      5631      5627      5673      5670      5631      5627      5673      5674
      5631      5627      5673      5675      5631      5634      5635      5636
      5631      5634      5635      5637      5631      5634      5665      5663
      5631      5634      5665      5666      5631      5634      5665      5670
      5632      5631      5627      5673      5632      5631      5634      5635
      5632      5631      5634      5665      5633      5631      5627      5673
      5633      5631      5634      5635      5633      5631      5634      5665
      5634      5631      5627      5673      5634      5635      5637      5638
      5634      5635      5637      5639      5634      5635      5637      5640
      5634      5665      5663      5640      5634      5665      5663      5660
      5634      5665      5663      5664      5634      5665      5666      5667
      5634      5665      5666      5668      5634      5665      5666      5669
      5634      5665      5670      5671      5634      5665      5670      5672
      5634      5665      5670      5673      5635      5634      5665      5663
      5635      5634      5665      5666      5635      5634      5665      5670
      5635      5637      5640      5641      5635      5637      5640      5642
      5635      5637      5640      5663      5636      5635      5634      5665
      5636      5635      5637      5638      5636      5635      5637      5639
      5636      5635      5637      5640      5637      5635      5634      5665
      5637      5640      5642      5643      5637      5640      5642      5644
      5637      5640      5642      5652      5637      5640      5663      5660
      5637      5640      5663      5664      5637      5640      5663      5665
      5638      5637      5640      5641      5638      5637      5640      5642
      5638      5637      5640      5663      5639      5637      5640      5641
      5639      5637      5640      5642      5639      5637      5640      5663
      5640      5642      5644      5645      5640      5642      5644      5646
      5640      5642      5644      5647      5640      5642      5652      5650
      5640      5642      5652      5653      5640      5642      5652      5657
      5640      5663      5660      5657      5640      5663      5660      5661
      5640      5663      5660      5662      5640      5663      5665      5666
      5640      5663      5665      5670      5641      5640      5642      5643
      5641      5640      5642      5644      5641      5640      5642      5652
      5641      5640      5663      5660      5641      5640      5663      5664
      5641      5640      5663      5665      5642      5640      5663      5660
      5642      5640      5663      5664      5642      5640      5663      5665
      5642      5644      5647      5648      5642      5644      5647      5649
      5642      5644      5647      5650      5642      5652      5650      5647
      5642      5652      5650      5651      5642      5652      5650      5676
      5642      5652      5653      5654      5642      5652      5653      5655
      5642      5652      5653      5656      5642      5652      5657      5658
      5642      5652      5657      5659      5642      5652      5657      5660
      5643      5642      5640      5663      5643      5642      5644      5645
      5643      5642      5644      5646      5643      5642      5644      5647
      5643      5642      5652      5650      5643      5642      5652      5653
      5643      5642      5652      5657      5644      5642      5640      5663
      5644      5642      5652      5650      5644      5642      5652      5653
      5644      5642      5652      5657      5644      5647      5650      5651
      5644      5647      5650      5652      5644      5647      5650      5676
      5645      5644      5642      5652      5645      5644      5647      5648
      5645      5644      5647      5649      5645      5644      5647      5650
      5646      5644      5642      5652      5646      5644      5647      5648
      5646      5644      5647      5649      5646      5644      5647      5650
      5647      5644      5642      5652      5647      5650      5652      5653
      5647      5650      5652      5657      5647      5650      5676      5677
      5647      5650      5676      5678      5647      5650      5676      5682
      5648      5647      5650      5651      5648      5647      5650      5652
      5648      5647      5650      5676      5649      5647      5650      5651
      5649      5647      5650      5652      5649      5647      5650      5676
      5650      5652      5653      5654      5650      5652      5653      5655
      5650      5652      5653      5656      5650      5652      5657      5658
      5650      5652      5657      5659      5650      5652      5657      5660
      5650      5676      5678      5679      5650      5676      5678      5680
      5650      5676      5678      5681      5650      5676      5682      5683
      5650      5676      5682      5684      5650      5676      5682      5685
      5651      5650      5652      5653      5651      5650      5652      5657
      5651      5650      5676      5677      5651      5650      5676      5678
      5651      5650      5676      5682      5652      5642      5640      5663
      5652      5650      5676      5677      5652      5650      5676      5678
      5652      5650      5676      5682      5652      5657      5660      5661
      5652      5657      5660      5662      5652      5657      5660      5663
      5653      5652      5650      5676      5653      5652      5657      5658
      5653      5652      5657      5659      5653      5652      5657      5660
      5654      5653      5652      5657      5655      5653      5652      5657
      5656      5653      5652      5657      5657      5652      5650      5676
      5657      5660      5663      5664      5657      5660      5663      5665
      5658      5657      5660      5661      5658      5657      5660      5662
      5658      5657      5660      5663      5659      5657      5660      5661
      5659      5657      5660      5662      5659      5657      5660      5663
      5660      5663      5665      5666      5660      5663      5665      5670
      5661      5660      5663      5664      5661      5660      5663      5665
      5662      5660      5663      5664      5662      5660      5663      5665
      5663      5665      5666      5667      5663      5665      5666      5668
      5663      5665      5666      5669      5663      5665      5670      5671
      5663      5665      5670      5672      5663      5665      5670      5673
      5664      5663      5665      5666      5664      5663      5665      5670
      5665      5670      5673      5674      5665      5670      5673      5675
      5666      5665      5670      5671      5666      5665      5670      5672
      5666      5665      5670      5673      5667      5666      5665      5670
      5668      5666      5665      5670      5669      5666      5665      5670
      5671      5670      5673      5674      5671      5670      5673      5675
      5672      5670      5673      5674      5672      5670      5673      5675
      5676      5682      5685      5686      5676      5682      5685      5687
      5676      5682      5685      5688      5677      5676      5678      5679
      5677      5676      5678      5680      5677      5676      5678      5681
      5677      5676      5682      5683      5677      5676      5682      5684
      5677      5676      5682      5685      5678      5676      5682      5683
      5678      5676      5682      5684      5678      5676      5682      5685
      5679      5678      5676      5682      5680      5678      5676      5682
      5681      5678      5676      5682      5682      5685      5688      5689
      5682      5685      5688      5690      5682      5685      5688      5691
      5683      5682      5685      5686      5683      5682      5685      5687
      5683      5682      5685      5688      5684      5682      5685      5686
      5684      5682      5685      5687      5684      5682      5685      5688
      5685      5688      5691      5692      5685      5688      5691      5693
      5685      5688      5691      5697      5686      5685      5688      5689
      5686      5685      5688      5690      5686      5685      5688      5691
      5687      5685      5688      5689      5687      5685      5688      5690
      5687      5685      5688      5691      5688      5691      5693      5694
      5688      5691      5693      5695      5688      5691      5693      5696
      5688      5691      5697      5698      5688      5691      5697      5699
      5688      5691      5697      5700      5689      5688      5691      5692
      5689      5688      5691      5693      5689      5688      5691      5697
      5690      5688      5691      5692      5690      5688      5691      5693
      5690      5688      5691      5697      5692      5691      5693      5694
      5692      5691      5693      5695      5692      5691      5693      5696
      5692      5691      5697      5698      5692      5691      5697      5699
      5692      5691      5697      5700      5693      5691      5697      5698
      5693      5691      5697      5699      5693      5691      5697      5700
      5694      5693      5691      5697      5695      5693      5691      5697
      5696      5693      5691      5697      7329      7342      7345      7346
      7329      7342      7345      7347      7329      7342      7345      7351
      7330      7329      7334      7335      7330      7329      7334      7336
      7330      7329      7334      7337      7330      7329      7338      7339
      7330      7329      7338      7340      7330      7329      7338      7341
      7330      7329      7342      7343      7330      7329      7342      7344
      7330      7329      7342      7345      7331      7330      7329      7334
      7331      7330      7329      7338      7331      7330      7329      7342
      7332      7330      7329      7334      7332      7330      7329      7338
      7332      7330      7329      7342      7333      7330      7329      7334
      7333      7330      7329      7338      7333      7330      7329      7342
      7334      7329      7338      7339      7334      7329      7338      7340
      7334      7329      7338      7341      7334      7329      7342      7343
      7334      7329      7342      7344      7334      7329      7342      7345
      7335      7334      7329      7338      7335      7334      7329      7342
      7336      7334      7329      7338      7336      7334      7329      7342
      7337      7334      7329      7338      7337      7334      7329      7342
      7338      7329      7342      7343      7338      7329      7342      7344
      7338      7329      7342      7345      7339      7338      7329      7342
      7340      7338      7329      7342      7341      7338      7329      7342
      7342      7345      7351      7348      7343      7342      7345      7346
      7343      7342      7345      7347      7343      7342      7345      7351
      7344      7342      7345      7346      7344      7342      7345      7347
      7344      7342      7345      7351      7345      7351      7348      7349
      7345      7351      7348      7350      7345      7351      7348      7352
      7346      7345      7351      7348      7347      7345      7351      7348
      7348      7352      7353      7354      7348      7352      7353      7355
      7348      7352      7353      7356      7349      7348      7352      7353
      7350      7348      7352      7353      7351      7348      7352      7353
      7352      7353      7356      7357      7352      7353      7356      7358
      7352      7353      7356      7364      7353      7356      7358      7359
      7353      7356      7364      7365      7353      7356      7364      7366
      7353      7356      7364      7367      7354      7353      7356      7357
      7354      7353      7356      7358      7354      7353      7356      7364
      7355      7353      7356      7357      7355      7353      7356      7358
      7355      7353      7356      7364      7356      7358      7359      7360
      7356      7358      7359      7361      7356      7364      7367      7368
      7357      7356      7358      7359      7357      7356      7364      7365
      7357      7356      7364      7366      7357      7356      7364      7367
      7358      7356      7364      7365      7358      7356      7364      7366
      7358      7356      7364      7367      7358      7359      7361      7362
      7358      7359      7361      7363      7358      7359      7361      7373
      7359      7358      7356      7364      7359      7361      7373      7374
      7359      7361      7373      7375      7359      7361      7373      7376
      7360      7359      7361      7362      7360      7359      7361      7363
      7360      7359      7361      7373      7361      7373      7376      7377
      7361      7373      7376      7378      7361      7373      7376      7379
      7362      7361      7373      7374      7362      7361      7373      7375
      7362      7361      7373      7376      7363      7361      7373      7374
      7363      7361      7373      7375      7363      7361      7373      7376
      7364      7367      7368      7369      7364      7367      7368      7370
      7365      7364      7367      7368      7366      7364      7367      7368
      7367      7368      7370      7371      7367      7368      7370      7372
      7367      7368      7370      7418      7368      7370      7418      7419
      7368      7370      7418      7420      7368      7370      7418      7421
      7369      7368      7370      7371      7369      7368      7370      7372
      7369      7368      7370      7418      7370      7418      7421      7422
      7370      7418      7421      7423      7370      7418      7421      7424
      7371      7370      7418      7419      7371      7370      7418      7420
      7371      7370      7418      7421      7372      7370      7418      7419
      7372      7370      7418      7420      7372      7370      7418      7421
      7373      7376      7379      7380      7373      7376      7379      7381
      7373      7376      7379      7382      7374      7373      7376      7377
      7374      7373      7376      7378      7374      7373      7376      7379
      7375      7373      7376      7377      7375      7373      7376      7378
      7375      7373      7376      7379      7376      7379      7382      7383
      7376      7379      7382      7384      7376      7379      7382      7385
      7377      7376      7379      7380      7377      7376      7379      7381
      7377      7376      7379      7382      7378      7376      7379      7380
      7378      7376      7379      7381      7378      7376      7379      7382
      7379      7382      7385      7386      7379      7382      7385      7387
      7379      7382      7385      7388      7380      7379      7382      7383
      7380      7379      7382      7384      7380      7379      7382      7385
      7381      7379      7382      7383      7381      7379      7382      7384
      7381      7379      7382      7385      7382      7385      7388      7389
      7382      7385      7388      7390      7382      7385      7388      7391
      7383      7382      7385      7386      7383      7382      7385      7387
      7383      7382      7385      7388      7384      7382      7385      7386
      7384      7382      7385      7387      7384      7382      7385      7388
      7385      7388      7391      7392      7385      7388      7391      7393
      7386      7385      7388      7389      7386      7385      7388      7390
      7386      7385      7388      7391      7387      7385      7388      7389
      7387      7385      7388      7390      7387      7385      7388      7391
      7388      7391      7393      7394      7388      7391      7393      7395
      7389      7388      7391      7392      7389      7388      7391      7393
      7390      7388      7391      7392      7390      7388      7391      7393
      7391      7393      7395      7396      7391      7393      7395      7397
      7391      7393      7395      7398      7392      7391      7393      7394
      7392      7391      7393      7395      7393      7395      7398      7399
      7393      7395      7398      7400      7394      7393      7395      7396
      7394      7393      7395      7397      7394      7393      7395      7398
      7395      7398      7400      7401      7395      7398      7400      7402
      7396      7395      7398      7399      7396      7395      7398      7400
      7397      7395      7398      7399      7397      7395      7398      7400
      7398      7400      7402      7403      7398      7400      7402      7404
      7398      7400      7402      7405      7399      7398      7400      7401
      7399      7398      7400      7402      7400      7402      7405      7406
      7400      7402      7405      7407      7400      7402      7405      7408
      7401      7400      7402      7403      7401      7400      7402      7404
      7401      7400      7402      7405      7402      7405      7408      7409
      7402      7405      7408      7410      7402      7405      7408      7411
      7403      7402      7405      7406      7403      7402      7405      7407
      7403      7402      7405      7408      7404      7402      7405      7406
      7404      7402      7405      7407      7404      7402      7405      7408
      7405      7408      7411      7412      7405      7408      7411      7413
      7405      7408      7411      7414      7406      7405      7408      7409
      7406      7405      7408      7410      7406      7405      7408      7411
      7407      7405      7408      7409      7407      7405      7408      7410
      7407      7405      7408      7411      7408      7411      7414      7415
      7408      7411      7414      7416      7408      7411      7414      7417
      7409      7408      7411      7412      7409      7408      7411      7413
      7409      7408      7411      7414      7410      7408      7411      7412
      7410      7408      7411      7413      7410      7408      7411      7414
      7412      7411      7414      7415      7412      7411      7414      7416
      7412      7411      7414      7417      7413      7411      7414      7415
      7413      7411      7414      7416      7413      7411      7414      7417
      7418      7421      7424      7425      7418      7421      7424      7426
      7418      7421      7424      7427      7419      7418      7421      7422
      7419      7418      7421      7423      7419      7418      7421      7424
      7420      7418      7421      7422      7420      7418      7421      7423
      7420      7418      7421      7424      7421      7424      7427      7428
      7421      7424      7427      7429      7421      7424      7427      7430
      7422      7421      7424      7425      7422      7421      7424      7426
      7422      7421      7424      7427      7423      7421      7424      7425
      7423      7421      7424      7426      7423      7421      7424      7427
      7424      7427      7430      7431      7424      7427      7430      7432
      7424      7427      7430      7433      7425      7424      7427      7428
      7425      7424      7427      7429      7425      7424      7427      7430
      7426      7424      7427      7428      7426      7424      7427      7429
      7426      7424      7427      7430      7427      7430      7433      7434
      7427      7430      7433      7435      7427      7430      7433      7436
      7428      7427      7430      7431      7428      7427      7430      7432
      7428      7427      7430      7433      7429      7427      7430      7431
      7429      7427      7430      7432      7429      7427      7430      7433
      7430      7433      7436      7437      7430      7433      7436      7438
      7430      7433      7436      7439      7431      7430      7433      7434
      7431      7430      7433      7435      7431      7430      7433      7436
      7432      7430      7433      7434      7432      7430      7433      7435
      7432      7430      7433      7436      7433      7436      7439      7440
      7433      7436      7439      7441      7433      7436      7439      7442
      7434      7433      7436      7437      7434      7433      7436      7438
      7434      7433      7436      7439      7435      7433      7436      7437
      7435      7433      7436      7438      7435      7433      7436      7439
      7436      7439      7442      7443      7436      7439      7442      7444
      7436      7439      7442      7445      7437      7436      7439      7440
      7437      7436      7439      7441      7437      7436      7439      7442
      7438      7436      7439      7440      7438      7436      7439      7441
      7438      7436      7439      7442      7439      7442      7445      7446
      7439      7442      7445      7447      7439      7442      7445      7448
      7440      7439      7442      7443      7440      7439      7442      7444
      7440      7439      7442      7445      7441      7439      7442      7443
      7441      7439      7442      7444      7441      7439      7442      7445
      7442      7445      7448      7449      7442      7445      7448      7450
      7442      7445      7448      7451      7443      7442      7445      7446
      7443      7442      7445      7447      7443      7442      7445      7448
      7444      7442      7445      7446      7444      7442      7445      7447
      7444      7442      7445      7448      7445      7448      7451      7452
      7445      7448      7451      7453      7445      7448      7451      7454
      7446      7445      7448      7449      7446      7445      7448      7450
      7446      7445      7448      7451      7447      7445      7448      7449
      7447      7445      7448      7450      7447      7445      7448      7451
      7448      7451      7454      7455      7448      7451      7454      7456
      7448      7451      7454      7457      7449      7448      7451      7452
      7449      7448      7451      7453      7449      7448      7451      7454
      7450      7448      7451      7452      7450      7448      7451      7453
      7450      7448      7451      7454      7451      7454      7457      7458
      7451      7454      7457      7459      7451      7454      7457      7460
      7452      7451      7454      7455      7452      7451      7454      7456
      7452      7451      7454      7457      7453      7451      7454      7455
      7453      7451      7454      7456      7453      7451      7454      7457
      7454      7457      7460      7461      7454      7457      7460      7462
      7454      7457      7460      7463      7455      7454      7457      7458
      7455      7454      7457      7459      7455      7454      7457      7460
      7456      7454      7457      7458      7456      7454      7457      7459
      7456      7454      7457      7460      7457      7460      7463      7464
      7457      7460      7463      7465      7457      7460      7463      7466
      7458      7457      7460      7461      7458      7457      7460      7462
      7458      7457      7460      7463      7459      7457      7460      7461
      7459      7457      7460      7462      7459      7457      7460      7463
      7461      7460      7463      7464      7461      7460      7463      7465
      7461      7460      7463      7466      7462      7460      7463      7464
      7462      7460      7463      7465      7462      7460      7463      7466
      8433      8434      8449      8450      8433      8434      8449      8451
      8433      8434      8449      8455      8434      8433      8437      8438
      8434      8433      8437      8439      8434      8433      8437      8440
      8434      8433      8441      8442      8434      8433      8441      8443
      8434      8433      8441      8444      8434      8433      8445      8446
      8434      8433      8445      8447      8434      8433      8445      8448
      8434      8449      8455      8452      8435      8434      8433      8437
      8435      8434      8433      8441      8435      8434      8433      8445
      8435      8434      8449      8450      8435      8434      8449      8451
      8435      8434      8449      8455      8436      8434      8433      8437
      8436      8434      8433      8441      8436      8434      8433      8445
      8436      8434      8449      8450      8436      8434      8449      8451
      8436      8434      8449      8455      8437      8433      8434      8449
      8437      8433      8441      8442      8437      8433      8441      8443
      8437      8433      8441      8444      8437      8433      8445      8446
      8437      8433      8445      8447      8437      8433      8445      8448
      8438      8437      8433      8441      8438      8437      8433      8445
      8439      8437      8433      8441      8439      8437      8433      8445
      8440      8437      8433      8441      8440      8437      8433      8445
      8441      8433      8434      8449      8441      8433      8445      8446
      8441      8433      8445      8447      8441      8433      8445      8448
      8442      8441      8433      8445      8443      8441      8433      8445
      8444      8441      8433      8445      8445      8433      8434      8449
      8449      8455      8452      8453      8449      8455      8452      8454
      8449      8455      8452      8456      8450      8449      8455      8452
      8451      8449      8455      8452      8452      8456      8457      8458
      8452      8456      8457      8459      8452      8456      8457      8460
      8453      8452      8456      8457      8454      8452      8456      8457
      8455      8452      8456      8457      8456      8457      8460      8461
      8456      8457      8460      8462      8456      8457      8460      8468
      8457      8460      8462      8463      8457      8460      8468      8469
      8457      8460      8468      8470      8457      8460      8468      8471
      8458      8457      8460      8461      8458      8457      8460      8462
      8458      8457      8460      8468      8459      8457      8460      8461
      8459      8457      8460      8462      8459      8457      8460      8468
      8460      8462      8463      8464      8460      8462      8463      8465
      8460      8468      8471      8472      8461      8460      8462      8463
      8461      8460      8468      8469      8461      8460      8468      8470
      8461      8460      8468      8471      8462      8460      8468      8469
      8462      8460      8468      8470      8462      8460      8468      8471
      8462      8463      8465      8466      8462      8463      8465      8467
      8462      8463      8465      8477      8463      8462      8460      8468
      8463      8465      8477      8478      8463      8465      8477      8479
      8463      8465      8477      8480      8464      8463      8465      8466
      8464      8463      8465      8467      8464      8463      8465      8477
      8465      8477      8480      8481      8465      8477      8480      8482
      8465      8477      8480      8483      8466      8465      8477      8478
      8466      8465      8477      8479      8466      8465      8477      8480
      8467      8465      8477      8478      8467      8465      8477      8479
      8467      8465      8477      8480      8468      8471      8472      8473
      8468      8471      8472      8474      8469      8468      8471      8472
      8470      8468      8471      8472      8471      8472      8474      8475
      8471      8472      8474      8476      8471      8472      8474      8524
      8472      8474      8524      8525      8472      8474      8524      8526
      8472      8474      8524      8527      8473      8472      8474      8475
      8473      8472      8474      8476      8473      8472      8474      8524
      8474      8524      8527      8528      8474      8524      8527      8529
      8474      8524      8527      8530      8475      8474      8524      8525
      8475      8474      8524      8526      8475      8474      8524      8527
      8476      8474      8524      8525      8476      8474      8524      8526
      8476      8474      8524      8527      8477      8480      8483      8484
      8477      8480      8483      8485      8478      8477      8480      8481
      8478      8477      8480      8482      8478      8477      8480      8483
      8479      8477      8480      8481      8479      8477      8480      8482
      8479      8477      8480      8483      8480      8483      8485      8486
      8480      8483      8485      8487      8481      8480      8483      8484
      8481      8480      8483      8485      8482      8480      8483      8484
      8482      8480      8483      8485      8483      8485      8487      8488
      8483      8485      8487      8489      8483      8485      8487      8490
      8484      8483      8485      8486      8484      8483      8485      8487
      8485      8487      8490      8491      8485      8487      8490      8492
      8486      8485      8487      8488      8486      8485      8487      8489
      8486      8485      8487      8490      8487      8490      8492      8493
      8487      8490      8492      8494      8488      8487      8490      8491
      8488      8487      8490      8492      8489      8487      8490      8491
      8489      8487      8490      8492      8490      8492      8494      8495
      8490      8492      8494      8496      8490      8492      8494      8497
      8491      8490      8492      8493      8491      8490      8492      8494
      8492      8494      8497      8498      8492      8494      8497      8499
      8493      8492      8494      8495      8493      8492      8494      8496
      8493      8492      8494      8497      8494      8497      8499      8500
      8494      8497      8499      8501      8495      8494      8497      8498
      8495      8494      8497      8499      8496      8494      8497      8498
      8496      8494      8497      8499      8497      8499      8501      8502
      8497      8499      8501      8503      8497      8499      8501      8504
      8498      8497      8499      8500      8498      8497      8499      8501
      8499      8501      8504      8505      8499      8501      8504      8506
      8500      8499      8501      8502      8500      8499      8501      8503
      8500      8499      8501      8504      8501      8504      8506      8507
      8501      8504      8506      8508      8502      8501      8504      8505
      8502      8501      8504      8506      8503      8501      8504      8505
      8503      8501      8504      8506      8504      8506      8508      8509
      8504      8506      8508      8510      8504      8506      8508      8511
      8505      8504      8506      8507      8505      8504      8506      8508
      8506      8508      8511      8512      8506      8508      8511      8513
      8506      8508      8511      8514      8507      8506      8508      8509
      8507      8506      8508      8510      8507      8506      8508      8511
      8508      8511      8514      8515      8508      8511      8514      8516
      8508      8511      8514      8517      8509      8508      8511      8512
      8509      8508      8511      8513      8509      8508      8511      8514
      8510      8508      8511      8512      8510      8508      8511      8513
      8510      8508      8511      8514      8511      8514      8517      8518
      8511      8514      8517      8519      8511      8514      8517      8520
      8512      8511      8514      8515      8512      8511      8514      8516
      8512      8511      8514      8517      8513      8511      8514      8515
      8513      8511      8514      8516      8513      8511      8514      8517
      8514      8517      8520      8521      8514      8517      8520      8522
      8514      8517      8520      8523      8515      8514      8517      8518
      8515      8514      8517      8519      8515      8514      8517      8520
      8516      8514      8517      8518      8516      8514      8517      8519
      8516      8514      8517      8520      8518      8517      8520      8521
      8518      8517      8520      8522      8518      8517      8520      8523
      8519      8517      8520      8521      8519      8517      8520      8522
      8519      8517      8520      8523      8524      8527      8530      8531
      8524      8527      8530      8532      8524      8527      8530      8533
      8525      8524      8527      8528      8525      8524      8527      8529
      8525      8524      8527      8530      8526      8524      8527      8528
      8526      8524      8527      8529      8526      8524      8527      8530
      8527      8530      8533      8534      8527      8530      8533      8535
      8527      8530      8533      8536      8528      8527      8530      8531
      8528      8527      8530      8532      8528      8527      8530      8533
      8529      8527      8530      8531      8529      8527      8530      8532
      8529      8527      8530      8533      8530      8533      8536      8537
      8530      8533      8536      8538      8530      8533      8536      8539
      8531      8530      8533      8534      8531      8530      8533      8535
      8531      8530      8533      8536      8532      8530      8533      8534
      8532      8530      8533      8535      8532      8530      8533      8536
      8533      8536      8539      8540      8533      8536      8539      8541
      8533      8536      8539      8542      8534      8533      8536      8537
      8534      8533      8536      8538      8534      8533      8536      8539
      8535      8533      8536      8537      8535      8533      8536      8538
      8535      8533      8536      8539      8536      8539      8542      8543
      8536      8539      8542      8544      8536      8539      8542      8545
      8537      8536      8539      8540      8537      8536      8539      8541
      8537      8536      8539      8542      8538      8536      8539      8540
      8538      8536      8539      8541      8538      8536      8539      8542
      8539      8542      8545      8546      8539      8542      8545      8547
      8539      8542      8545      8548      8540      8539      8542      8543
      8540      8539      8542      8544      8540      8539      8542      8545
      8541      8539      8542      8543      8541      8539      8542      8544
      8541      8539      8542      8545      8542      8545      8548      8549
      8542      8545      8548      8550      8542      8545      8548      8551
      8543      8542      8545      8546      8543      8542      8545      8547
      8543      8542      8545      8548      8544      8542      8545      8546
      8544      8542      8545      8547      8544      8542      8545      8548
      8545      8548      8551      8552      8545      8548      8551      8553
      8545      8548      8551      8554      8546      8545      8548      8549
      8546      8545      8548      8550      8546      8545      8548      8551
      8547      8545      8548      8549      8547      8545      8548      8550
      8547      8545      8548      8551      8548      8551      8554      8555
      8548      8551      8554      8556      8548      8551      8554      8557
      8549      8548      8551      8552      8549      8548      8551      8553
      8549      8548      8551      8554      8550      8548      8551      8552
      8550      8548      8551      8553      8550      8548      8551      8554
      8551      8554      8557      8558      8551      8554      8557      8559
      8551      8554      8557      8560      8552      8551      8554      8555
      8552      8551      8554      8556      8552      8551      8554      8557
      8553      8551      8554      8555      8553      8551      8554      8556
      8553      8551      8554      8557      8554      8557      8560      8561
      8554      8557      8560      8562      8554      8557      8560      8563
      8555      8554      8557      8558      8555      8554      8557      8559
      8555      8554      8557      8560      8556      8554      8557      8558
      8556      8554      8557      8559      8556      8554      8557      8560
      8557      8560      8563      8564      8557      8560      8563      8565
      8557      8560      8563      8566      8558      8557      8560      8561
      8558      8557      8560      8562      8558      8557      8560      8563
      8559      8557      8560      8561      8559      8557      8560      8562
      8559      8557      8560      8563      8560      8563      8566      8567
      8560      8563      8566      8568      8560      8563      8566      8569
      8561      8560      8563      8564      8561      8560      8563      8565
      8561      8560      8563      8566      8562      8560      8563      8564
      8562      8560      8563      8565      8562      8560      8563      8566
      8563      8566      8569      8570      8563      8566      8569      8571
      8563      8566      8569      8572      8564      8563      8566      8567
      8564      8563      8566      8568      8564      8563      8566      8569
      8565      8563      8566      8567      8565      8563      8566      8568
      8565      8563      8566      8569      8567      8566      8569      8570
      8567      8566      8569      8571      8567      8566      8569      8572
      8568      8566      8569      8570      8568      8566      8569      8571
      8568      8566      8569      8572      8573      8574      8589      8590
      8573      8574      8589      8591      8573      8574      8589      8595
      8574      8573      8577      8578      8574      8573      8577      8579
      8574      8573      8577      8580      8574      8573      8581      8582
      8574      8573      8581      8583      8574      8573      8581      8584
      8574      8573      8585      8586      8574      8573      8585      8587
      8574      8573      8585      8588      8574      8589      8595      8592
      8575      8574      8573      8577      8575      8574      8573      8581
      8575      8574      8573      8585      8575      8574      8589      8590
      8575      8574      8589      8591      8575      8574      8589      8595
      8576      8574      8573      8577      8576      8574      8573      8581
      8576      8574      8573      8585      8576      8574      8589      8590
      8576      8574      8589      8591      8576      8574      8589      8595
      8577      8573      8574      8589      8577      8573      8581      8582
      8577      8573      8581      8583      8577      8573      8581      8584
      8577      8573      8585      8586      8577      8573      8585      8587
      8577      8573      8585      8588      8578      8577      8573      8581
      8578      8577      8573      8585      8579      8577      8573      8581
      8579      8577      8573      8585      8580      8577      8573      8581
      8580      8577      8573      8585      8581      8573      8574      8589
      8581      8573      8585      8586      8581      8573      8585      8587
      8581      8573      8585      8588      8582      8581      8573      8585
      8583      8581      8573      8585      8584      8581      8573      8585
      8585      8573      8574      8589      8589      8595      8592      8593
      8589      8595      8592      8594      8589      8595      8592      8596
      8590      8589      8595      8592      8591      8589      8595      8592
      8592      8596      8597      8598      8592      8596      8597      8599
      8592      8596      8597      8600      8593      8592      8596      8597
      8594      8592      8596      8597      8595      8592      8596      8597
      8596      8597      8600      8601      8596      8597      8600      8602
      8596      8597      8600      8608      8597      8600      8602      8603
      8597      8600      8608      8609      8597      8600      8608      8610
      8597      8600      8608      8611      8598      8597      8600      8601
      8598      8597      8600      8602      8598      8597      8600      8608
      8599      8597      8600      8601      8599      8597      8600      8602
      8599      8597      8600      8608      8600      8602      8603      8604
      8600      8602      8603      8605      8600      8608      8611      8612
      8601      8600      8602      8603      8601      8600      8608      8609
      8601      8600      8608      8610      8601      8600      8608      8611
      8602      8600      8608      8609      8602      8600      8608      8610
      8602      8600      8608      8611      8602      8603      8605      8606
      8602      8603      8605      8607      8602      8603      8605      8617
      8603      8602      8600      8608      8603      8605      8617      8618
      8603      8605      8617      8619      8603      8605      8617      8620
      8604      8603      8605      8606      8604      8603      8605      8607
      8604      8603      8605      8617      8605      8617      8620      8621
      8605      8617      8620      8622      8605      8617      8620      8623
      8606      8605      8617      8618      8606      8605      8617      8619
      8606      8605      8617      8620      8607      8605      8617      8618
      8607      8605      8617      8619      8607      8605      8617      8620
      8608      8611      8612      8613      8608      8611      8612      8614
      8609      8608      8611      8612      8610      8608      8611      8612
      8611      8612      8614      8615      8611      8612      8614      8616
      8611      8612      8614      8664      8612      8614      8664      8665
      8612      8614      8664      8666      8612      8614      8664      8667
      8613      8612      8614      8615      8613      8612      8614      8616
      8613      8612      8614      8664      8614      8664      8667      8668
      8614      8664      8667      8669      8614      8664      8667      8670
      8615      8614      8664      8665      8615      8614      8664      8666
      8615      8614      8664      8667      8616      8614      8664      8665
      8616      8614      8664      8666      8616      8614      8664      8667
      8617      8620      8623      8624      8617      8620      8623      8625
      8618      8617      8620      8621      8618      8617      8620      8622
      8618      8617      8620      8623      8619      8617      8620      8621
      8619      8617      8620      8622      8619      8617      8620      8623
      8620      8623      8625      8626      8620      8623      8625      8627
      8621      8620      8623      8624      8621      8620      8623      8625
      8622      8620      8623      8624      8622      8620      8623      8625
      8623      8625      8627      8628      8623      8625      8627      8629
      8623      8625      8627      8630      8624      8623      8625      8626
      8624      8623      8625      8627      8625      8627      8630      8631
      8625      8627      8630      8632      8626      8625      8627      8628
      8626      8625      8627      8629      8626      8625      8627      8630
      8627      8630      8632      8633      8627      8630      8632      8634
      8628      8627      8630      8631      8628      8627      8630      8632
      8629      8627      8630      8631      8629      8627      8630      8632
      8630      8632      8634      8635      8630      8632      8634      8636
      8630      8632      8634      8637      8631      8630      8632      8633
      8631      8630      8632      8634      8632      8634      8637      8638
      8632      8634      8637      8639      8633      8632      8634      8635
      8633      8632      8634      8636      8633      8632      8634      8637
      8634      8637      8639      8640      8634      8637      8639      8641
      8635      8634      8637      8638      8635      8634      8637      8639
      8636      8634      8637      8638      8636      8634      8637      8639
      8637      8639      8641      8642      8637      8639      8641      8643
      8637      8639      8641      8644      8638      8637      8639      8640
      8638      8637      8639      8641      8639      8641      8644      8645
      8639      8641      8644      8646      8640      8639      8641      8642
      8640      8639      8641      8643      8640      8639      8641      8644
      8641      8644      8646      8647      8641      8644      8646      8648
      8642      8641      8644      8645      8642      8641      8644      8646
      8643      8641      8644      8645      8643      8641      8644      8646
      8644      8646      8648      8649      8644      8646      8648      8650
      8644      8646      8648      8651      8645      8644      8646      8647
      8645      8644      8646      8648      8646      8648      8651      8652
      8646      8648      8651      8653      8646      8648      8651      8654
      8647      8646      8648      8649      8647      8646      8648      8650
      8647      8646      8648      8651      8648      8651      8654      8655
      8648      8651      8654      8656      8648      8651      8654      8657
      8649      8648      8651      8652      8649      8648      8651      8653
      8649      8648      8651      8654      8650      8648      8651      8652
      8650      8648      8651      8653      8650      8648      8651      8654
      8651      8654      8657      8658      8651      8654      8657      8659
      8651      8654      8657      8660      8652      8651      8654      8655
      8652      8651      8654      8656      8652      8651      8654      8657
      8653      8651      8654      8655      8653      8651      8654      8656
      8653      8651      8654      8657      8654      8657      8660      8661
      8654      8657      8660      8662      8654      8657      8660      8663
      8655      8654      8657      8658      8655      8654      8657      8659
      8655      8654      8657      8660      8656      8654      8657      8658
      8656      8654      8657      8659      8656      8654      8657      8660
      8658      8657      8660      8661      8658      8657      8660      8662
      8658      8657      8660      8663      8659      8657      8660      8661
      8659      8657      8660      8662      8659      8657      8660      8663
      8664      8667      8670      8671      8664      8667      8670      8672
      8664      8667      8670      8673      8665      8664      8667      8668
      8665      8664      8667      8669      8665      8664      8667      8670
      8666      8664      8667      8668      8666      8664      8667      8669
      8666      8664      8667      8670      8667      8670      8673      8674
      8667      8670      8673      8675      8667      8670      8673      8676
      8668      8667      8670      8671      8668      8667      8670      8672
      8668      8667      8670      8673      8669      8667      8670      8671
      8669      8667      8670      8672      8669      8667      8670      8673
      8670      8673      8676      8677      8670      8673      8676      8678
      8670      8673      8676      8679      8671      8670      8673      8674
      8671      8670      8673      8675      8671      8670      8673      8676
      8672      8670      8673      8674      8672      8670      8673      8675
      8672      8670      8673      8676      8673      8676      8679      8680
      8673      8676      8679      8681      8673      8676      8679      8682
      8674      8673      8676      8677      8674      8673      8676      8678
      8674      8673      8676      8679      8675      8673      8676      8677
      8675      8673      8676      8678      8675      8673      8676      8679
      8676      8679      8682      8683      8676      8679      8682      8684
      8676      8679      8682      8685      8677      8676      8679      8680
      8677      8676      8679      8681      8677      8676      8679      8682
      8678      8676      8679      8680      8678      8676      8679      8681
      8678      8676      8679      8682      8679      8682      8685      8686
      8679      8682      8685      8687      8679      8682      8685      8688
      8680      8679      8682      8683      8680      8679      8682      8684
      8680      8679      8682      8685      8681      8679      8682      8683
      8681      8679      8682      8684      8681      8679      8682      8685
      8682      8685      8688      8689      8682      8685      8688      8690
      8682      8685      8688      8691      8683      8682      8685      8686
      8683      8682      8685      8687      8683      8682      8685      8688
      8684      8682      8685      8686      8684      8682      8685      8687
      8684      8682      8685      8688      8685      8688      8691      8692
      8685      8688      8691      8693      8685      8688      8691      8694
      8686      8685      8688      8689      8686      8685      8688      8690
      8686      8685      8688      8691      8687      8685      8688      8689
      8687      8685      8688      8690      8687      8685      8688      8691
      8688      8691      8694      8695      8688      8691      8694      8696
      8688      8691      8694      8697      8689      8688      8691      8692
      8689      8688      8691      8693      8689      8688      8691      8694
      8690      8688      8691      8692      8690      8688      8691      8693
      8690      8688      8691      8694      8691      8694      8697      8698
      8691      8694      8697      8699      8691      8694      8697      8700
      8692      8691      8694      8695      8692      8691      8694      8696
      8692      8691      8694      8697      8693      8691      8694      8695
      8693      8691      8694      8696      8693      8691      8694      8697
      8694      8697      8700      8701      8694      8697      8700      8702
      8694      8697      8700      8703      8695      8694      8697      8698
      8695      8694      8697      8699      8695      8694      8697      8700
      8696      8694      8697      8698      8696      8694      8697      8699
      8696      8694      8697      8700      8697      8700      8703      8704
      8697      8700      8703      8705      8697      8700      8703      8706
      8698      8697      8700      8701      8698      8697      8700      8702
      8698      8697      8700      8703      8699      8697      8700      8701
      8699      8697      8700      8702      8699      8697      8700      8703
      8700      8703      8706      8707      8700      8703      8706      8708
      8700      8703      8706      8709      8701      8700      8703      8704
      8701      8700      8703      8705      8701      8700      8703      8706
      8702      8700      8703      8704      8702      8700      8703      8705
      8702      8700      8703      8706      8703      8706      8709      8710
      8703      8706      8709      8711      8703      8706      8709      8712
      8704      8703      8706      8707      8704      8703      8706      8708
      8704      8703      8706      8709      8705      8703      8706      8707
      8705      8703      8706      8708      8705      8703      8706      8709
      8707      8706      8709      8710      8707      8706      8709      8711
      8707      8706      8709      8712      8708      8706      8709      8710
      8708      8706      8709      8711      8708      8706      8709      8712
      7467      7480      7483      7484      7467      7480      7483      7485
      7467      7480      7483      7489      7468      7467      7472      7473
      7468      7467      7472      7474      7468      7467      7472      7475
      7468      7467      7476      7477      7468      7467      7476      7478
      7468      7467      7476      7479      7468      7467      7480      7481
      7468      7467      7480      7482      7468      7467      7480      7483
      7469      7468      7467      7472      7469      7468      7467      7476
      7469      7468      7467      7480      7470      7468      7467      7472
      7470      7468      7467      7476      7470      7468      7467      7480
      7471      7468      7467      7472      7471      7468      7467      7476
      7471      7468      7467      7480      7472      7467      7476      7477
      7472      7467      7476      7478      7472      7467      7476      7479
      7472      7467      7480      7481      7472      7467      7480      7482
      7472      7467      7480      7483      7473      7472      7467      7476
      7473      7472      7467      7480      7474      7472      7467      7476
      7474      7472      7467      7480      7475      7472      7467      7476
      7475      7472      7467      7480      7476      7467      7480      7481
      7476      7467      7480      7482      7476      7467      7480      7483
      7477      7476      7467      7480      7478      7476      7467      7480
      7479      7476      7467      7480      7480      7483      7489      7486
      7481      7480      7483      7484      7481      7480      7483      7485
      7481      7480      7483      7489      7482      7480      7483      7484
      7482      7480      7483      7485      7482      7480      7483      7489
      7483      7489      7486      7487      7483      7489      7486      7488
      7483      7489      7486      7490      7484      7483      7489      7486
      7485      7483      7489      7486      7486      7490      7491      7492
      7486      7490      7491      7493      7486      7490      7491      7494
      7487      7486      7490      7491      7488      7486      7490      7491
      7489      7486      7490      7491      7490      7491      7494      7495
      7490      7491      7494      7496      7490      7491      7494      7502
      7491      7494      7496      7497      7491      7494      7502      7503
      7491      7494      7502      7504      7491      7494      7502      7505
      7492      7491      7494      7495      7492      7491      7494      7496
      7492      7491      7494      7502      7493      7491      7494      7495
      7493      7491      7494      7496      7493      7491      7494      7502
      7494      7496      7497      7498      7494      7496      7497      7499
      7494      7502      7505      7506      7495      7494      7496      7497
      7495      7494      7502      7503      7495      7494      7502      7504
      7495      7494      7502      7505      7496      7494      7502      7503
      7496      7494      7502      7504      7496      7494      7502      7505
      7496      7497      7499      7500      7496      7497      7499      7501
      7496      7497      7499      7511      7497      7496      7494      7502
      7497      7499      7511      7512      7497      7499      7511      7513
      7497      7499      7511      7514      7498      7497      7499      7500
      7498      7497      7499      7501      7498      7497      7499      7511
      7499      7511      7514      7515      7499      7511      7514      7516
      7499      7511      7514      7517      7500      7499      7511      7512
      7500      7499      7511      7513      7500      7499      7511      7514
      7501      7499      7511      7512      7501      7499      7511      7513
      7501      7499      7511      7514      7502      7505      7506      7507
      7502      7505      7506      7508      7503      7502      7505      7506
      7504      7502      7505      7506      7505      7506      7508      7509
      7505      7506      7508      7510      7505      7506      7508      7556
      7506      7508      7556      7557      7506      7508      7556      7558
      7506      7508      7556      7559      7507      7506      7508      7509
      7507      7506      7508      7510      7507      7506      7508      7556
      7508      7556      7559      7560      7508      7556      7559      7561
      7508      7556      7559      7562      7509      7508      7556      7557
      7509      7508      7556      7558      7509      7508      7556      7559
      7510      7508      7556      7557      7510      7508      7556      7558
      7510      7508      7556      7559      7511      7514      7517      7518
      7511      7514      7517      7519      7511      7514      7517      7520
      7512      7511      7514      7515      7512      7511      7514      7516
      7512      7511      7514      7517      7513      7511      7514      7515
      7513      7511      7514      7516      7513      7511      7514      7517
      7514      7517      7520      7521      7514      7517      7520      7522
      7514      7517      7520      7523      7515      7514      7517      7518
      7515      7514      7517      7519      7515      7514      7517      7520
      7516      7514      7517      7518      7516      7514      7517      7519
      7516      7514      7517      7520      7517      7520      7523      7524
      7517      7520      7523      7525      7517      7520      7523      7526
      7518      7517      7520      7521      7518      7517      7520      7522
      7518      7517      7520      7523      7519      7517      7520      7521
      7519      7517      7520      7522      7519      7517      7520      7523
      7520      7523      7526      7527      7520      7523      7526      7528
      7520      7523      7526      7529      7521      7520      7523      7524
      7521      7520      7523      7525      7521      7520      7523      7526
      7522      7520      7523      7524      7522      7520      7523      7525
      7522      7520      7523      7526      7523      7526      7529      7530
      7523      7526      7529      7531      7524      7523      7526      7527
      7524      7523      7526      7528      7524      7523      7526      7529
      7525      7523      7526      7527      7525      7523      7526      7528
      7525      7523      7526      7529      7526      7529      7531      7532
      7526      7529      7531      7533      7527      7526      7529      7530
      7527      7526      7529      7531      7528      7526      7529      7530
      7528      7526      7529      7531      7529      7531      7533      7534
      7529      7531      7533      7535      7529      7531      7533      7536
      7530      7529      7531      7532      7530      7529      7531      7533
      7531      7533      7536      7537      7531      7533      7536      7538
      7532      7531      7533      7534      7532      7531      7533      7535
      7532      7531      7533      7536      7533      7536      7538      7539
      7533      7536      7538      7540      7534      7533      7536      7537
      7534      7533      7536      7538      7535      7533      7536      7537
      7535      7533      7536      7538      7536      7538      7540      7541
      7536      7538      7540      7542      7536      7538      7540      7543
      7537      7536      7538      7539      7537      7536      7538      7540
      7538      7540      7543      7544      7538      7540      7543      7545
      7538      7540      7543      7546      7539      7538      7540      7541
      7539      7538      7540      7542      7539      7538      7540      7543
      7540      7543      7546      7547      7540      7543      7546      7548
      7540      7543      7546      7549      7541      7540      7543      7544
      7541      7540      7543      7545      7541      7540      7543      7546
      7542      7540      7543      7544      7542      7540      7543      7545
      7542      7540      7543      7546      7543      7546      7549      7550
      7543      7546      7549      7551      7543      7546      7549      7552
      7544      7543      7546      7547      7544      7543      7546      7548
      7544      7543      7546      7549      7545      7543      7546      7547
      7545      7543      7546      7548      7545      7543      7546      7549
      7546      7549      7552      7553      7546      7549      7552      7554
      7546      7549      7552      7555      7547      7546      7549      7550
      7547      7546      7549      7551      7547      7546      7549      7552
      7548      7546      7549      7550      7548      7546      7549      7551
      7548      7546      7549      7552      7550      7549      7552      7553
      7550      7549      7552      7554      7550      7549      7552      7555
      7551      7549      7552      7553      7551      7549      7552      7554
      7551      7549      7552      7555      7556      7559      7562      7563
      7556      7559      7562      7564      7556      7559      7562      7565
      7557      7556      7559      7560      7557      7556      7559      7561
      7557      7556      7559      7562      7558      7556      7559      7560
      7558      7556      7559      7561      7558      7556      7559      7562
      7559      7562      7565      7566      7559      7562      7565      7567
      7559      7562      7565      7568      7560      7559      7562      7563
      7560      7559      7562      7564      7560      7559      7562      7565
      7561      7559      7562      7563      7561      7559      7562      7564
      7561      7559      7562      7565      7562      7565      7568      7569
      7562      7565      7568      7570      7562      7565      7568      7571
      7563      7562      7565      7566      7563      7562      7565      7567
      7563      7562      7565      7568      7564      7562      7565      7566
      7564      7562      7565      7567      7564      7562      7565      7568
      7565      7568      7571      7572      7565      7568      7571      7573
      7565      7568      7571      7574      7566      7565      7568      7569
      7566      7565      7568      7570      7566      7565      7568      7571
      7567      7565      7568      7569      7567      7565      7568      7570
      7567      7565      7568      7571      7568      7571      7574      7575
      7568      7571      7574      7576      7568      7571      7574      7577
      7569      7568      7571      7572      7569      7568      7571      7573
      7569      7568      7571      7574      7570      7568      7571      7572
      7570      7568      7571      7573      7570      7568      7571      7574
      7571      7574      7577      7578      7571      7574      7577      7579
      7571      7574      7577      7580      7572      7571      7574      7575
      7572      7571      7574      7576      7572      7571      7574      7577
      7573      7571      7574      7575      7573      7571      7574      7576
      7573      7571      7574      7577      7574      7577      7580      7581
      7574      7577      7580      7582      7574      7577      7580      7583
      7575      7574      7577      7578      7575      7574      7577      7579
      7575      7574      7577      7580      7576      7574      7577      7578
      7576      7574      7577      7579      7576      7574      7577      7580
      7577      7580      7583      7584      7577      7580      7583      7585
      7577      7580      7583      7586      7578      7577      7580      7581
      7578      7577      7580      7582      7578      7577      7580      7583
      7579      7577      7580      7581      7579      7577      7580      7582
      7579      7577      7580      7583      7580      7583      7586      7587
      7580      7583      7586      7588      7580      7583      7586      7589
      7581      7580      7583      7584      7581      7580      7583      7585
      7581      7580      7583      7586      7582      7580      7583      7584
      7582      7580      7583      7585      7582      7580      7583      7586
      7583      7586      7589      7590      7583      7586      7589      7591
      7583      7586      7589      7592      7584      7583      7586      7587
      7584      7583      7586      7588      7584      7583      7586      7589
      7585      7583      7586      7587      7585      7583      7586      7588
      7585      7583      7586      7589      7586      7589      7592      7593
      7586      7589      7592      7594      7586      7589      7592      7595
      7587      7586      7589      7590      7587      7586      7589      7591
      7587      7586      7589      7592      7588      7586      7589      7590
      7588      7586      7589      7591      7588      7586      7589      7592
      7589      7592      7595      7596      7589      7592      7595      7597
      7589      7592      7595      7598      7590      7589      7592      7593
      7590      7589      7592      7594      7590      7589      7592      7595
      7591      7589      7592      7593      7591      7589      7592      7594
      7591      7589      7592      7595      7592      7595      7598      7599
      7592      7595      7598      7600      7592      7595      7598      7601
      7593      7592      7595      7596      7593      7592      7595      7597
      7593      7592      7595      7598      7594      7592      7595      7596
      7594      7592      7595      7597      7594      7592      7595      7598
      7595      7598      7601      7602      7595      7598      7601      7603
      7595      7598      7601      7604      7596      7595      7598      7599
      7596      7595      7598      7600      7596      7595      7598      7601
      7597      7595      7598      7599      7597      7595      7598      7600
      7597      7595      7598      7601      7599      7598      7601      7602
      7599      7598      7601      7603      7599      7598      7601      7604
      7600      7598      7601      7602      7600      7598      7601      7603
      7600      7598      7601      7604      3816      3820      3823      3824
      3816      3820      3823      3825      3816      3820      3823      3829
      3817      3816      3820      3821      3817      3816      3820      3822
      3817      3816      3820      3823      3818      3816      3820      3821
      3818      3816      3820      3822      3818      3816      3820      3823
      3819      3816      3820      3821      3819      3816      3820      3822
      3819      3816      3820      3823      3820      3823      3829      3826
      3821      3820      3823      3824      3821      3820      3823      3825
      3821      3820      3823      3829      3822      3820      3823      3824
      3822      3820      3823      3825      3822      3820      3823      3829
      3823      3829      3826      3827      3823      3829      3826      3828
      3823      3829      3826      3830      3824      3823      3829      3826
      3825      3823      3829      3826      3826      3830      3831      3832
      3826      3830      3831      3833      3826      3830      3831      3834
      3827      3826      3830      3831      3828      3826      3830      3831
      3829      3826      3830      3831      3830      3831      3834      3835
      3830      3831      3834      3836      3830      3831      3834      3842
      3831      3834      3836      3837      3831      3834      3842      3843
      3831      3834      3842      3844      3831      3834      3842      3845
      3832      3831      3834      3835      3832      3831      3834      3836
      3832      3831      3834      3842      3833      3831      3834      3835
      3833      3831      3834      3836      3833      3831      3834      3842
      3834      3836      3837      3838      3834      3836      3837      3839
      3834      3842      3845      3846      3835      3834      3836      3837
      3835      3834      3842      3843      3835      3834      3842      3844
      3835      3834      3842      3845      3836      3834      3842      3843
      3836      3834      3842      3844      3836      3834      3842      3845
      3836      3837      3839      3840      3836      3837      3839      3841
      3836      3837      3839      3851      3837      3836      3834      3842
      3837      3839      3851      3852      3837      3839      3851      3853
      3837      3839      3851      3854      3838      3837      3839      3840
      3838      3837      3839      3841      3838      3837      3839      3851
      3839      3851      3854      3855      3839      3851      3854      3856
      3839      3851      3854      3857      3840      3839      3851      3852
      3840      3839      3851      3853      3840      3839      3851      3854
      3841      3839      3851      3852      3841      3839      3851      3853
      3841      3839      3851      3854      3842      3845      3846      3847
      3842      3845      3846      3848      3843      3842      3845      3846
      3844      3842      3845      3846      3845      3846      3848      3849
      3845      3846      3848      3850      3845      3846      3848      3898
      3846      3848      3898      3899      3846      3848      3898      3900
      3846      3848      3898      3901      3847      3846      3848      3849
      3847      3846      3848      3850      3847      3846      3848      3898
      3848      3898      3901      3902      3848      3898      3901      3903
      3848      3898      3901      3904      3849      3848      3898      3899
      3849      3848      3898      3900      3849      3848      3898      3901
      3850      3848      3898      3899      3850      3848      3898      3900
      3850      3848      3898      3901      3851      3854      3857      3858
      3851      3854      3857      3859      3852      3851      3854      3855
      3852      3851      3854      3856      3852      3851      3854      3857
      3853      3851      3854      3855      3853      3851      3854      3856
      3853      3851      3854      3857      3854      3857      3859      3860
      3854      3857      3859      3861      3855      3854      3857      3858
      3855      3854      3857      3859      3856      3854      3857      3858
      3856      3854      3857      3859      3857      3859      3861      3862
      3857      3859      3861      3863      3857      3859      3861      3864
      3858      3857      3859      3860      3858      3857      3859      3861
      3859      3861      3864      3865      3859      3861      3864      3866
      3860      3859      3861      3862      3860      3859      3861      3863
      3860      3859      3861      3864      3861      3864      3866      3867
      3861      3864      3866      3868      3862      3861      3864      3865
      3862      3861      3864      3866      3863      3861      3864      3865
      3863      3861      3864      3866      3864      3866      3868      3869
      3864      3866      3868      3870      3864      3866      3868      3871
      3865      3864      3866      3867      3865      3864      3866      3868
      3866      3868      3871      3872      3866      3868      3871      3873
      3867      3866      3868      3869      3867      3866      3868      3870
      3867      3866      3868      3871      3868      3871      3873      3874
      3868      3871      3873      3875      3869      3868      3871      3872
      3869      3868      3871      3873      3870      3868      3871      3872
      3870      3868      3871      3873      3871      3873      3875      3876
      3871      3873      3875      3877      3871      3873      3875      3878
      3872      3871      3873      3874      3872      3871      3873      3875
      3873      3875      3878      3879      3873      3875      3878      3880
      3874      3873      3875      3876      3874      3873      3875      3877
      3874      3873      3875      3878      3875      3878      3880      3881
      3875      3878      3880      3882      3876      3875      3878      3879
      3876      3875      3878      3880      3877      3875      3878      3879
      3877      3875      3878      3880      3878      3880      3882      3883
      3878      3880      3882      3884      3878      3880      3882      3885
      3879      3878      3880      3881      3879      3878      3880      3882
      3880      3882      3885      3886      3880      3882      3885      3887
      3880      3882      3885      3888      3881      3880      3882      3883
      3881      3880      3882      3884      3881      3880      3882      3885
      3882      3885      3888      3889      3882      3885      3888      3890
      3882      3885      3888      3891      3883      3882      3885      3886
      3883      3882      3885      3887      3883      3882      3885      3888
      3884      3882      3885      3886      3884      3882      3885      3887
      3884      3882      3885      3888      3885      3888      3891      3892
      3885      3888      3891      3893      3885      3888      3891      3894
      3886      3885      3888      3889      3886      3885      3888      3890
      3886      3885      3888      3891      3887      3885      3888      3889
      3887      3885      3888      3890      3887      3885      3888      3891
      3888      3891      3894      3895      3888      3891      3894      3896
      3888      3891      3894      3897      3889      3888      3891      3892
      3889      3888      3891      3893      3889      3888      3891      3894
      3890      3888      3891      3892      3890      3888      3891      3893
      3890      3888      3891      3894      3892      3891      3894      3895
      3892      3891      3894      3896      3892      3891      3894      3897
      3893      3891      3894      3895      3893      3891      3894      3896
      3893      3891      3894      3897      3898      3901      3904      3905
      3898      3901      3904      3906      3898      3901      3904      3907
      3899      3898      3901      3902      3899      3898      3901      3903
      3899      3898      3901      3904      3900      3898      3901      3902
      3900      3898      3901      3903      3900      3898      3901      3904
      3901      3904      3907      3908      3901      3904      3907      3909
      3901      3904      3907      3910      3902      3901      3904      3905
      3902      3901      3904      3906      3902      3901      3904      3907
      3903      3901      3904      3905      3903      3901      3904      3906
      3903      3901      3904      3907      3904      3907      3910      3911
      3904      3907      3910      3912      3904      3907      3910      3913
      3905      3904      3907      3908      3905      3904      3907      3909
      3905      3904      3907      3910      3906      3904      3907      3908
      3906      3904      3907      3909      3906      3904      3907      3910
      3907      3910      3913      3914      3907      3910      3913      3915
      3907      3910      3913      3916      3908      3907      3910      3911
      3908      3907      3910      3912      3908      3907      3910      3913
      3909      3907      3910      3911      3909      3907      3910      3912
      3909      3907      3910      3913      3910      3913      3916      3917
      3910      3913      3916      3918      3910      3913      3916      3919
      3911      3910      3913      3914      3911      3910      3913      3915
      3911      3910      3913      3916      3912      3910      3913      3914
      3912      3910      3913      3915      3912      3910      3913      3916
      3913      3916      3919      3920      3913      3916      3919      3921
      3913      3916      3919      3922      3914      3913      3916      3917
      3914      3913      3916      3918      3914      3913      3916      3919
      3915      3913      3916      3917      3915      3913      3916      3918
      3915      3913      3916      3919      3916      3919      3922      3923
      3916      3919      3922      3924      3916      3919      3922      3925
      3917      3916      3919      3920      3917      3916      3919      3921
      3917      3916      3919      3922      3918      3916      3919      3920
      3918      3916      3919      3921      3918      3916      3919      3922
      3919      3922      3925      3926      3919      3922      3925      3927
      3919      3922      3925      3928      3920      3919      3922      3923
      3920      3919      3922      3924      3920      3919      3922      3925
      3921      3919      3922      3923      3921      3919      3922      3924
      3921      3919      3922      3925      3922      3925      3928      3929
      3922      3925      3928      3930      3922      3925      3928      3931
      3923      3922      3925      3926      3923      3922      3925      3927
      3923      3922      3925      3928      3924      3922      3925      3926
      3924      3922      3925      3927      3924      3922      3925      3928
      3925      3928      3931      3932      3925      3928      3931      3933
      3925      3928      3931      3934      3926      3925      3928      3929
      3926      3925      3928      3930      3926      3925      3928      3931
      3927      3925      3928      3929      3927      3925      3928      3930
      3927      3925      3928      3931      3928      3931      3934      3935
      3928      3931      3934      3936      3928      3931      3934      3937
      3929      3928      3931      3932      3929      3928      3931      3933
      3929      3928      3931      3934      3930      3928      3931      3932
      3930      3928      3931      3933      3930      3928      3931      3934
      3931      3934      3937      3938      3931      3934      3937      3939
      3931      3934      3937      3940      3932      3931      3934      3935
      3932      3931      3934      3936      3932      3931      3934      3937
      3933      3931      3934      3935      3933      3931      3934      3936
      3933      3931      3934      3937      3934      3937      3940      3941
      3934      3937      3940      3942      3934      3937      3940      3943
      3935      3934      3937      3938      3935      3934      3937      3939
      3935      3934      3937      3940      3936      3934      3937      3938
      3936      3934      3937      3939      3936      3934      3937      3940
      3937      3940      3943      3944      3937      3940      3943      3945
      3937      3940      3943      3946      3938      3937      3940      3941
      3938      3937      3940      3942      3938      3937      3940      3943
      3939      3937      3940      3941      3939      3937      3940      3942
      3939      3937      3940      3943      3941      3940      3943      3944
      3941      3940      3943      3945      3941      3940      3943      3946
      3942      3940      3943      3944      3942      3940      3943      3945
      3942      3940      3943      3946      5701      5705      5708      5709
      5701      5705      5708      5739      5701      5747      5744      5739
      5701      5747      5744      5745      5701      5747      5744      5746
      5702      5701      5703      5704      5702      5701      5705      5706
      5702      5701      5705      5707      5702      5701      5705      5708
      5702      5701      5747      5744      5702      5701      5747      5748
      5702      5701      5747      5749      5703      5701      5705      5706
      5703      5701      5705      5707      5703      5701      5705      5708
      5703      5701      5747      5744      5703      5701      5747      5748
      5703      5701      5747      5749      5704      5703      5701      5705
      5704      5703      5701      5747      5705      5701      5747      5744
      5705      5701      5747      5748      5705      5701      5747      5749
      5705      5708      5709      5710      5705      5708      5709      5711
      5705      5708      5739      5737      5705      5708      5739      5740
      5705      5708      5739      5744      5706      5705      5701      5747
      5706      5705      5708      5709      5706      5705      5708      5739
      5707      5705      5701      5747      5707      5705      5708      5709
      5707      5705      5708      5739      5708      5705      5701      5747
      5708      5709      5711      5712      5708      5709      5711      5713
      5708      5709      5711      5714      5708      5739      5737      5714
      5708      5739      5737      5734      5708      5739      5737      5738
      5708      5739      5740      5741      5708      5739      5740      5742
      5708      5739      5740      5743      5708      5739      5744      5745
      5708      5739      5744      5746      5708      5739      5744      5747
      5709      5708      5739      5737      5709      5708      5739      5740
      5709      5708      5739      5744      5709      5711      5714      5715
      5709      5711      5714      5716      5709      5711      5714      5737
      5710      5709      5708      5739      5710      5709      5711      5712
      5710      5709      5711      5713      5710      5709      5711      5714
      5711      5709      5708      5739      5711      5714      5716      5717
      5711      5714      5716      5718      5711      5714      5716      5726
      5711      5714      5737      5734      5711      5714      5737      5738
      5711      5714      5737      5739      5712      5711      5714      5715
      5712      5711      5714      5716      5712      5711      5714      5737
      5713      5711      5714      5715      5713      5711      5714      5716
      5713      5711      5714      5737      5714      5716      5718      5719
      5714      5716      5718      5720      5714      5716      5718      5721
      5714      5716      5726      5724      5714      5716      5726      5727
      5714      5716      5726      5731      5714      5737      5734      5731
      5714      5737      5734      5735      5714      5737      5734      5736
      5714      5737      5739      5740      5714      5737      5739      5744
      5715      5714      5716      5717      5715      5714      5716      5718
      5715      5714      5716      5726      5715      5714      5737      5734
      5715      5714      5737      5738      5715      5714      5737      5739
      5716      5714      5737      5734      5716      5714      5737      5738
      5716      5714      5737      5739      5716      5718      5721      5722
      5716      5718      5721      5723      5716      5718      5721      5724
      5716      5726      5724      5721      5716      5726      5724      5725
      5716      5726      5724      5750      5716      5726      5727      5728
      5716      5726      5727      5729      5716      5726      5727      5730
      5716      5726      5731      5732      5716      5726      5731      5733
      5716      5726      5731      5734      5717      5716      5714      5737
      5717      5716      5718      5719      5717      5716      5718      5720
      5717      5716      5718      5721      5717      5716      5726      5724
      5717      5716      5726      5727      5717      5716      5726      5731
      5718      5716      5714      5737      5718      5716      5726      5724
      5718      5716      5726      5727      5718      5716      5726      5731
      5718      5721      5724      5725      5718      5721      5724      5726
      5718      5721      5724      5750      5719      5718      5716      5726
      5719      5718      5721      5722      5719      5718      5721      5723
      5719      5718      5721      5724      5720      5718      5716      5726
      5720      5718      5721      5722      5720      5718      5721      5723
      5720      5718      5721      5724      5721      5718      5716      5726
      5721      5724      5726      5727      5721      5724      5726      5731
      5721      5724      5750      5751      5721      5724      5750      5752
      5721      5724      5750      5756      5722      5721      5724      5725
      5722      5721      5724      5726      5722      5721      5724      5750
      5723      5721      5724      5725      5723      5721      5724      5726
      5723      5721      5724      5750      5724      5726      5727      5728
      5724      5726      5727      5729      5724      5726      5727      5730
      5724      5726      5731      5732      5724      5726      5731      5733
      5724      5726      5731      5734      5724      5750      5752      5753
      5724      5750      5752      5754      5724      5750      5752      5755
      5724      5750      5756      5757      5724      5750      5756      5758
      5724      5750      5756      5759      5725      5724      5726      5727
      5725      5724      5726      5731      5725      5724      5750      5751
      5725      5724      5750      5752      5725      5724      5750      5756
      5726      5716      5714      5737      5726      5724      5750      5751
      5726      5724      5750      5752      5726      5724      5750      5756
      5726      5731      5734      5735      5726      5731      5734      5736
      5726      5731      5734      5737      5727      5726      5724      5750
      5727      5726      5731      5732      5727      5726      5731      5733
      5727      5726      5731      5734      5728      5727      5726      5731
      5729      5727      5726      5731      5730      5727      5726      5731
      5731      5726      5724      5750      5731      5734      5737      5738
      5731      5734      5737      5739      5732      5731      5734      5735
      5732      5731      5734      5736      5732      5731      5734      5737
      5733      5731      5734      5735      5733      5731      5734      5736
      5733      5731      5734      5737      5734      5737      5739      5740
      5734      5737      5739      5744      5735      5734      5737      5738
      5735      5734      5737      5739      5736      5734      5737      5738
      5736      5734      5737      5739      5737      5739      5740      5741
      5737      5739      5740      5742      5737      5739      5740      5743
      5737      5739      5744      5745      5737      5739      5744      5746
      5737      5739      5744      5747      5738      5737      5739      5740
      5738      5737      5739      5744      5739      5744      5747      5748
      5739      5744      5747      5749      5740      5739      5744      5745
      5740      5739      5744      5746      5740      5739      5744      5747
      5741      5740      5739      5744      5742      5740      5739      5744
      5743      5740      5739      5744      5745      5744      5747      5748
      5745      5744      5747      5749      5746      5744      5747      5748
      5746      5744      5747      5749      5750      5756      5759      5760
      5750      5756      5759      5761      5750      5756      5759      5762
      5751      5750      5752      5753      5751      5750      5752      5754
      5751      5750      5752      5755      5751      5750      5756      5757
      5751      5750      5756      5758      5751      5750      5756      5759
      5752      5750      5756      5757      5752      5750      5756      5758
      5752      5750      5756      5759      5753      5752      5750      5756
      5754      5752      5750      5756      5755      5752      5750      5756
      5756      5759      5762      5763      5756      5759      5762      5764
      5756      5759      5762      5765      5757      5756      5759      5760
      5757      5756      5759      5761      5757      5756      5759      5762
      5758      5756      5759      5760      5758      5756      5759      5761
      5758      5756      5759      5762      5759      5762      5765      5766
      5759      5762      5765      5767      5759      5762      5765      5771
      5760      5759      5762      5763      5760      5759      5762      5764
      5760      5759      5762      5765      5761      5759      5762      5763
      5761      5759      5762      5764      5761      5759      5762      5765
      5762      5765      5767      5768      5762      5765      5767      5769
      5762      5765      5767      5770      5762      5765      5771      5772
      5762      5765      5771      5773      5762      5765      5771      5774
      5763      5762      5765      5766      5763      5762      5765      5767
      5763      5762      5765      5771      5764      5762      5765      5766
      5764      5762      5765      5767      5764      5762      5765      5771
      5766      5765      5767      5768      5766      5765      5767      5769
      5766      5765      5767      5770      5766      5765      5771      5772
      5766      5765      5771      5773      5766      5765      5771      5774
      5767      5765      5771      5772      5767      5765      5771      5773
      5767      5765      5771      5774      5768      5767      5765      5771
      5769      5767      5765      5771      5770      5767      5765      5771
      5775      5779      5782      5783      5775      5779      5782      5813
      5775      5821      5818      5813      5775      5821      5818      5819
      5775      5821      5818      5820      5776      5775      5777      5778
      5776      5775      5779      5780      5776      5775      5779      5781
      5776      5775      5779      5782      5776      5775      5821      5818
      5776      5775      5821      5822      5776      5775      5821      5823
      5777      5775      5779      5780      5777      5775      5779      5781
      5777      5775      5779      5782      5777      5775      5821      5818
      5777      5775      5821      5822      5777      5775      5821      5823
      5778      5777      5775      5779      5778      5777      5775      5821
      5779      5775      5821      5818      5779      5775      5821      5822
      5779      5775      5821      5823      5779      5782      5783      5784
      5779      5782      5783      5785      5779      5782      5813      5811
      5779      5782      5813      5814      5779      5782      5813      5818
      5780      5779      5775      5821      5780      5779      5782      5783
      5780      5779      5782      5813      5781      5779      5775      5821
      5781      5779      5782      5783      5781      5779      5782      5813
      5782      5779      5775      5821      5782      5783      5785      5786
      5782      5783      5785      5787      5782      5783      5785      5788
      5782      5813      5811      5788      5782      5813      5811      5808
      5782      5813      5811      5812      5782      5813      5814      5815
      5782      5813      5814      5816      5782      5813      5814      5817
      5782      5813      5818      5819      5782      5813      5818      5820
      5782      5813      5818      5821      5783      5782      5813      5811
      5783      5782      5813      5814      5783      5782      5813      5818
      5783      5785      5788      5789      5783      5785      5788      5790
      5783      5785      5788      5811      5784      5783      5782      5813
      5784      5783      5785      5786      5784      5783      5785      5787
      5784      5783      5785      5788      5785      5783      5782      5813
      5785      5788      5790      5791      5785      5788      5790      5792
      5785      5788      5790      5800      5785      5788      5811      5808
      5785      5788      5811      5812      5785      5788      5811      5813
      5786      5785      5788      5789      5786      5785      5788      5790
      5786      5785      5788      5811      5787      5785      5788      5789
      5787      5785      5788      5790      5787      5785      5788      5811
      5788      5790      5792      5793      5788      5790      5792      5794
      5788      5790      5792      5795      5788      5790      5800      5798
      5788      5790      5800      5801      5788      5790      5800      5805
      5788      5811      5808      5805      5788      5811      5808      5809
      5788      5811      5808      5810      5788      5811      5813      5814
      5788      5811      5813      5818      5789      5788      5790      5791
      5789      5788      5790      5792      5789      5788      5790      5800
      5789      5788      5811      5808      5789      5788      5811      5812
      5789      5788      5811      5813      5790      5788      5811      5808
      5790      5788      5811      5812      5790      5788      5811      5813
      5790      5792      5795      5796      5790      5792      5795      5797
      5790      5792      5795      5798      5790      5800      5798      5795
      5790      5800      5798      5799      5790      5800      5798      5824
      5790      5800      5801      5802      5790      5800      5801      5803
      5790      5800      5801      5804      5790      5800      5805      5806
      5790      5800      5805      5807      5790      5800      5805      5808
      5791      5790      5788      5811      5791      5790      5792      5793
      5791      5790      5792      5794      5791      5790      5792      5795
      5791      5790      5800      5798      5791      5790      5800      5801
      5791      5790      5800      5805      5792      5790      5788      5811
      5792      5790      5800      5798      5792      5790      5800      5801
      5792      5790      5800      5805      5792      5795      5798      5799
      5792      5795      5798      5800      5792      5795      5798      5824
      5793      5792      5790      5800      5793      5792      5795      5796
      5793      5792      5795      5797      5793      5792      5795      5798
      5794      5792      5790      5800      5794      5792      5795      5796
      5794      5792      5795      5797      5794      5792      5795      5798
      5795      5792      5790      5800      5795      5798      5800      5801
      5795      5798      5800      5805      5795      5798      5824      5825
      5795      5798      5824      5826      5795      5798      5824      5830
      5796      5795      5798      5799      5796      5795      5798      5800
      5796      5795      5798      5824      5797      5795      5798      5799
      5797      5795      5798      5800      5797      5795      5798      5824
      5798      5800      5801      5802      5798      5800      5801      5803
      5798      5800      5801      5804      5798      5800      5805      5806
      5798      5800      5805      5807      5798      5800      5805      5808
      5798      5824      5826      5827      5798      5824      5826      5828
      5798      5824      5826      5829      5798      5824      5830      5831
      5798      5824      5830      5832      5798      5824      5830      5833
      5799      5798      5800      5801      5799      5798      5800      5805
      5799      5798      5824      5825      5799      5798      5824      5826
      5799      5798      5824      5830      5800      5790      5788      5811
      5800      5798      5824      5825      5800      5798      5824      5826
      5800      5798      5824      5830      5800      5805      5808      5809
      5800      5805      5808      5810      5800      5805      5808      5811
      5801      5800      5798      5824      5801      5800      5805      5806
      5801      5800      5805      5807      5801      5800      5805      5808
      5802      5801      5800      5805      5803      5801      5800      5805
      5804      5801      5800      5805      5805      5800      5798      5824
      5805      5808      5811      5812      5805      5808      5811      5813
      5806      5805      5808      5809      5806      5805      5808      5810
      5806      5805      5808      5811      5807      5805      5808      5809
      5807      5805      5808      5810      5807      5805      5808      5811
      5808      5811      5813      5814      5808      5811      5813      5818
      5809      5808      5811      5812      5809      5808      5811      5813
      5810      5808      5811      5812      5810      5808      5811      5813
      5811      5813      5814      5815      5811      5813      5814      5816
      5811      5813      5814      5817      5811      5813      5818      5819
      5811      5813      5818      5820      5811      5813      5818      5821
      5812      5811      5813      5814      5812      5811      5813      5818
      5813      5818      5821      5822      5813      5818      5821      5823
      5814      5813      5818      5819      5814      5813      5818      5820
      5814      5813      5818      5821      5815      5814      5813      5818
      5816      5814      5813      5818      5817      5814      5813      5818
      5819      5818      5821      5822      5819      5818      5821      5823
      5820      5818      5821      5822      5820      5818      5821      5823
      5824      5830      5833      5834      5824      5830      5833      5835
      5824      5830      5833      5836      5825      5824      5826      5827
      5825      5824      5826      5828      5825      5824      5826      5829
      5825      5824      5830      5831      5825      5824      5830      5832
      5825      5824      5830      5833      5826      5824      5830      5831
      5826      5824      5830      5832      5826      5824      5830      5833
      5827      5826      5824      5830      5828      5826      5824      5830
      5829      5826      5824      5830      5830      5833      5836      5837
      5830      5833      5836      5838      5830      5833      5836      5839
      5831      5830      5833      5834      5831      5830      5833      5835
      5831      5830      5833      5836      5832      5830      5833      5834
      5832      5830      5833      5835      5832      5830      5833      5836
      5833      5836      5839      5840      5833      5836      5839      5841
      5833      5836      5839      5845      5834      5833      5836      5837
      5834      5833      5836      5838      5834      5833      5836      5839
      5835      5833      5836      5837      5835      5833      5836      5838
      5835      5833      5836      5839      5836      5839      5841      5842
      5836      5839      5841      5843      5836      5839      5841      5844
      5836      5839      5845      5846      5836      5839      5845      5847
      5836      5839      5845      5848      5837      5836      5839      5840
      5837      5836      5839      5841      5837      5836      5839      5845
      5838      5836      5839      5840      5838      5836      5839      5841
      5838      5836      5839      5845      5840      5839      5841      5842
      5840      5839      5841      5843      5840      5839      5841      5844
      5840      5839      5845      5846      5840      5839      5845      5847
      5840      5839      5845      5848      5841      5839      5845      5846
      5841      5839      5845      5847      5841      5839      5845      5848
      5842      5841      5839      5845      5843      5841      5839      5845
      5844      5841      5839      5845       394       407       410       411
       394       407       410       412       394       407       410       417
       395       394       399       400       395       394       399       401
       395       394       399       402       395       394       403       404
       395       394       403       405       395       394       403       406
       395       394       407       408       395       394       407       409
       395       394       407       410       396       395       394       399
       396       395       394       403       396       395       394       407
       397       395       394       399       397       395       394       403
       397       395       394       407       398       395       394       399
       398       395       394       403       398       395       394       407
       399       394       403       404       399       394       403       405
       399       394       403       406       399       394       407       408
       399       394       407       409       399       394       407       410
       400       399       394       403       400       399       394       407
       401       399       394       403       401       399       394       407
       402       399       394       403       402       399       394       407
       403       394       407       408       403       394       407       409
       403       394       407       410       404       403       394       407
       405       403       394       407       406       403       394       407
       407       410       417       413       408       407       410       411
       408       407       410       412       408       407       410       417
       409       407       410       411       409       407       410       412
       409       407       410       417       410       417       413       414
       410       417       413       415       410       417       413       416
       411       410       417       413       412       410       417       413
       413       416       418       419       413       416       418       420
       413       416       418       423       414       413       416       418
       415       413       416       418       416       418       423       421
       416       418       423       424       416       418       423       425
       417       413       416       418       418       423       421       422
       418       423       421       473       418       423       425       426
       418       423       425       427       418       423       425       429
       419       418       423       421       419       418       423       424
       419       418       423       425       420       418       423       421
       420       418       423       424       420       418       423       425
       421       423       425       426       421       423       425       427
       421       423       425       429       421       473       475       476
       421       473       475       477       421       473       475       478
       422       421       423       424       422       421       423       425
       422       421       473       474       422       421       473       475
       423       421       473       474       423       421       473       475
       423       425       427       428       423       425       429       430
       423       425       429       431       424       423       421       473
       424       423       425       426       424       423       425       427
       424       423       425       429       425       423       421       473
       425       429       431       432       425       429       431       433
       426       425       427       428       426       425       429       430
       426       425       429       431       427       425       429       430
       427       425       429       431       428       427       425       429
       429       431       433       434       429       431       433       435
       429       431       433       436       430       429       431       432
       430       429       431       433       431       433       436       437
       431       433       436       438       431       433       436       439
       432       431       433       434       432       431       433       435
       432       431       433       436       433       436       439       440
       433       436       439       441       433       436       439       442
       434       433       436       437       434       433       436       438
       434       433       436       439       435       433       436       437
       435       433       436       438       435       433       436       439
       436       439       442       443       436       439       442       444
       436       439       442       445       437       436       439       440
       437       436       439       441       437       436       439       442
       438       436       439       440       438       436       439       441
       438       436       439       442       439       442       445       446
       439       442       445       447       439       442       445       448
       440       439       442       443       440       439       442       444
       440       439       442       445       441       439       442       443
       441       439       442       444       441       439       442       445
       442       445       448       449       442       445       448       450
       442       445       448       451       443       442       445       446
       443       442       445       447       443       442       445       448
       444       442       445       446       444       442       445       447
       444       442       445       448       445       448       451       452
       445       448       451       453       445       448       451       454
       446       445       448       449       446       445       448       450
       446       445       448       451       447       445       448       449
       447       445       448       450       447       445       448       451
       448       451       454       455       448       451       454       456
       448       451       454       457       449       448       451       452
       449       448       451       453       449       448       451       454
       450       448       451       452       450       448       451       453
       450       448       451       454       451       454       457       458
       451       454       457       459       451       454       457       460
       452       451       454       455       452       451       454       456
       452       451       454       457       453       451       454       455
       453       451       454       456       453       451       454       457
       454       457       460       461       454       457       460       462
       454       457       460       463       455       454       457       458
       455       454       457       459       455       454       457       460
       456       454       457       458       456       454       457       459
       456       454       457       460       457       460       463       464
       457       460       463       465       457       460       463       466
       458       457       460       461       458       457       460       462
       458       457       460       463       459       457       460       461
       459       457       460       462       459       457       460       463
       460       463       466       467       460       463       466       468
       460       463       466       469       461       460       463       464
       461       460       463       465       461       460       463       466
       462       460       463       464       462       460       463       465
       462       460       463       466       463       466       469       470
       463       466       469       471       463       466       469       472
       464       463       466       467       464       463       466       468
       464       463       466       469       465       463       466       467
       465       463       466       468       465       463       466       469
       467       466       469       470       467       466       469       471
       467       466       469       472       468       466       469       470
       468       466       469       471       468       466       469       472
       473       475       478       479       473       475       478       480
       473       475       478       481       474       473       475       476
       474       473       475       477       474       473       475       478
       475       478       481       482       475       478       481       483
       475       478       481       484       476       475       478       479
       476       475       478       480       476       475       478       481
       477       475       478       479       477       475       478       480
       477       475       478       481       478       481       484       485
       478       481       484       486       478       481       484       487
       479       478       481       482       479       478       481       483
       479       478       481       484       480       478       481       482
       480       478       481       483       480       478       481       484
       481       484       487       488       481       484       487       489
       481       484       487       490       482       481       484       485
       482       481       484       486       482       481       484       487
       483       481       484       485       483       481       484       486
       483       481       484       487       484       487       490       491
       484       487       490       492       484       487       490       493
       485       484       487       488       485       484       487       489
       485       484       487       490       486       484       487       488
       486       484       487       489       486       484       487       490
       487       490       493       494       487       490       493       495
       487       490       493       496       488       487       490       491
       488       487       490       492       488       487       490       493
       489       487       490       491       489       487       490       492
       489       487       490       493       490       493       496       497
       490       493       496       498       491       490       493       494
       491       490       493       495       491       490       493       496
       492       490       493       494       492       490       493       495
       492       490       493       496       493       496       498       499
       493       496       498       500       494       493       496       497
       494       493       496       498       495       493       496       497
       495       493       496       498       496       498       500       501
       496       498       500       502       496       498       500       503
       497       496       498       499       497       496       498       500
       498       500       503       504       498       500       503       505
       498       500       503       506       499       498       500       501
       499       498       500       502       499       498       500       503
       500       503       506       507       500       503       506       508
       500       503       506       509       501       500       503       504
       501       500       503       505       501       500       503       506
       502       500       503       504       502       500       503       505
       502       500       503       506       503       506       509       510
       503       506       509       511       503       506       509       512
       504       503       506       507       504       503       506       508
       504       503       506       509       505       503       506       507
       505       503       506       508       505       503       506       509
       506       509       512       513       506       509       512       514
       506       509       512       515       507       506       509       510
       507       506       509       511       507       506       509       512
       508       506       509       510       508       506       509       511
       508       506       509       512       509       512       515       516
       509       512       515       517       509       512       515       518
       510       509       512       513       510       509       512       514
       510       509       512       515       511       509       512       513
       511       509       512       514       511       509       512       515
       512       515       518       519       512       515       518       520
       512       515       518       521       513       512       515       516
       513       512       515       517       513       512       515       518
       514       512       515       516       514       512       515       517
       514       512       515       518       515       518       521       522
       515       518       521       523       515       518       521       524
       516       515       518       519       516       515       518       520
       516       515       518       521       517       515       518       519
       517       515       518       520       517       515       518       521
       519       518       521       522       519       518       521       523
       519       518       521       524       520       518       521       522
       520       518       521       523       520       518       521       524
      9553      9554      9569      9570      9553      9554      9569      9571
      9553      9554      9569      9575      9554      9553      9557      9558
      9554      9553      9557      9559      9554      9553      9557      9560
      9554      9553      9561      9562      9554      9553      9561      9563
      9554      9553      9561      9564      9554      9553      9565      9566
      9554      9553      9565      9567      9554      9553      9565      9568
      9554      9569      9575      9572      9555      9554      9553      9557
      9555      9554      9553      9561      9555      9554      9553      9565
      9555      9554      9569      9570      9555      9554      9569      9571
      9555      9554      9569      9575      9556      9554      9553      9557
      9556      9554      9553      9561      9556      9554      9553      9565
      9556      9554      9569      9570      9556      9554      9569      9571
      9556      9554      9569      9575      9557      9553      9554      9569
      9557      9553      9561      9562      9557      9553      9561      9563
      9557      9553      9561      9564      9557      9553      9565      9566
      9557      9553      9565      9567      9557      9553      9565      9568
      9558      9557      9553      9561      9558      9557      9553      9565
      9559      9557      9553      9561      9559      9557      9553      9565
      9560      9557      9553      9561      9560      9557      9553      9565
      9561      9553      9554      9569      9561      9553      9565      9566
      9561      9553      9565      9567      9561      9553      9565      9568
      9562      9561      9553      9565      9563      9561      9553      9565
      9564      9561      9553      9565      9565      9553      9554      9569
      9569      9575      9572      9573      9569      9575      9572      9574
      9569      9575      9572      9576      9570      9569      9575      9572
      9571      9569      9575      9572      9572      9576      9577      9578
      9572      9576      9577      9579      9572      9576      9577      9580
      9573      9572      9576      9577      9574      9572      9576      9577
      9575      9572      9576      9577      9576      9577      9580      9581
      9576      9577      9580      9582      9576      9577      9580      9588
      9577      9580      9582      9583      9577      9580      9588      9589
      9577      9580      9588      9590      9577      9580      9588      9591
      9578      9577      9580      9581      9578      9577      9580      9582
      9578      9577      9580      9588      9579      9577      9580      9581
      9579      9577      9580      9582      9579      9577      9580      9588
      9580      9582      9583      9584      9580      9582      9583      9585
      9580      9588      9591      9592      9581      9580      9582      9583
      9581      9580      9588      9589      9581      9580      9588      9590
      9581      9580      9588      9591      9582      9580      9588      9589
      9582      9580      9588      9590      9582      9580      9588      9591
      9582      9583      9585      9586      9582      9583      9585      9587
      9582      9583      9585      9597      9583      9582      9580      9588
      9583      9585      9597      9598      9583      9585      9597      9599
      9583      9585      9597      9600      9584      9583      9585      9586
      9584      9583      9585      9587      9584      9583      9585      9597
      9585      9597      9600      9601      9585      9597      9600      9602
      9585      9597      9600      9603      9586      9585      9597      9598
      9586      9585      9597      9599      9586      9585      9597      9600
      9587      9585      9597      9598      9587      9585      9597      9599
      9587      9585      9597      9600      9588      9591      9592      9593
      9588      9591      9592      9594      9589      9588      9591      9592
      9590      9588      9591      9592      9591      9592      9594      9595
      9591      9592      9594      9596      9591      9592      9594      9644
      9592      9594      9644      9645      9592      9594      9644      9646
      9592      9594      9644      9647      9593      9592      9594      9595
      9593      9592      9594      9596      9593      9592      9594      9644
      9594      9644      9647      9648      9594      9644      9647      9649
      9594      9644      9647      9650      9595      9594      9644      9645
      9595      9594      9644      9646      9595      9594      9644      9647
      9596      9594      9644      9645      9596      9594      9644      9646
      9596      9594      9644      9647      9597      9600      9603      9604
      9597      9600      9603      9605      9597      9600      9603      9606
      9598      9597      9600      9601      9598      9597      9600      9602
      9598      9597      9600      9603      9599      9597      9600      9601
      9599      9597      9600      9602      9599      9597      9600      9603
      9600      9603      9606      9607      9600      9603      9606      9608
      9600      9603      9606      9609      9601      9600      9603      9604
      9601      9600      9603      9605      9601      9600      9603      9606
      9602      9600      9603      9604      9602      9600      9603      9605
      9602      9600      9603      9606      9603      9606      9609      9610
      9603      9606      9609      9611      9603      9606      9609      9612
      9604      9603      9606      9607      9604      9603      9606      9608
      9604      9603      9606      9609      9605      9603      9606      9607
      9605      9603      9606      9608      9605      9603      9606      9609
      9606      9609      9612      9613      9606      9609      9612      9614
      9606      9609      9612      9615      9607      9606      9609      9610
      9607      9606      9609      9611      9607      9606      9609      9612
      9608      9606      9609      9610      9608      9606      9609      9611
      9608      9606      9609      9612      9609      9612      9615      9616
      9609      9612      9615      9617      9610      9609      9612      9613
      9610      9609      9612      9614      9610      9609      9612      9615
      9611      9609      9612      9613      9611      9609      9612      9614
      9611      9609      9612      9615      9612      9615      9617      9618
      9612      9615      9617      9619      9613      9612      9615      9616
      9613      9612      9615      9617      9614      9612      9615      9616
      9614      9612      9615      9617      9615      9617      9619      9620
      9615      9617      9619      9621      9615      9617      9619      9622
      9616      9615      9617      9618      9616      9615      9617      9619
      9617      9619      9622      9623      9617      9619      9622      9624
      9617      9619      9622      9625      9618      9617      9619      9620
      9618      9617      9619      9621      9618      9617      9619      9622
      9619      9622      9625      9626      9619      9622      9625      9627
      9619      9622      9625      9628      9620      9619      9622      9623
      9620      9619      9622      9624      9620      9619      9622      9625
      9621      9619      9622      9623      9621      9619      9622      9624
      9621      9619      9622      9625      9622      9625      9628      9629
      9622      9625      9628      9630      9622      9625      9628      9631
      9623      9622      9625      9626      9623      9622      9625      9627
      9623      9622      9625      9628      9624      9622      9625      9626
      9624      9622      9625      9627      9624      9622      9625      9628
      9625      9628      9631      9632      9625      9628      9631      9633
      9625      9628      9631      9634      9626      9625      9628      9629
      9626      9625      9628      9630      9626      9625      9628      9631
      9627      9625      9628      9629      9627      9625      9628      9630
      9627      9625      9628      9631      9628      9631      9634      9635
      9628      9631      9634      9636      9628      9631      9634      9637
      9629      9628      9631      9632      9629      9628      9631      9633
      9629      9628      9631      9634      9630      9628      9631      9632
      9630      9628      9631      9633      9630      9628      9631      9634
      9631      9634      9637      9638      9631      9634      9637      9639
      9631      9634      9637      9640      9632      9631      9634      9635
      9632      9631      9634      9636      9632      9631      9634      9637
      9633      9631      9634      9635      9633      9631      9634      9636
      9633      9631      9634      9637      9634      9637      9640      9641
      9634      9637      9640      9642      9634      9637      9640      9643
      9635      9634      9637      9638      9635      9634      9637      9639
      9635      9634      9637      9640      9636      9634      9637      9638
      9636      9634      9637      9639      9636      9634      9637      9640
      9638      9637      9640      9641      9638      9637      9640      9642
      9638      9637      9640      9643      9639      9637      9640      9641
      9639      9637      9640      9642      9639      9637      9640      9643
      9644      9647      9650      9651      9644      9647      9650      9652
      9644      9647      9650      9653      9645      9644      9647      9648
      9645      9644      9647      9649      9645      9644      9647      9650
      9646      9644      9647      9648      9646      9644      9647      9649
      9646      9644      9647      9650      9647      9650      9653      9654
      9647      9650      9653      9655      9647      9650      9653      9656
      9648      9647      9650      9651      9648      9647      9650      9652
      9648      9647      9650      9653      9649      9647      9650      9651
      9649      9647      9650      9652      9649      9647      9650      9653
      9650      9653      9656      9657      9650      9653      9656      9658
      9650      9653      9656      9659      9651      9650      9653      9654
      9651      9650      9653      9655      9651      9650      9653      9656
      9652      9650      9653      9654      9652      9650      9653      9655
      9652      9650      9653      9656      9653      9656      9659      9660
      9653      9656      9659      9661      9653      9656      9659      9662
      9654      9653      9656      9657      9654      9653      9656      9658
      9654      9653      9656      9659      9655      9653      9656      9657
      9655      9653      9656      9658      9655      9653      9656      9659
      9656      9659      9662      9663      9656      9659      9662      9664
      9656      9659      9662      9665      9657      9656      9659      9660
      9657      9656      9659      9661      9657      9656      9659      9662
      9658      9656      9659      9660      9658      9656      9659      9661
      9658      9656      9659      9662      9659      9662      9665      9666
      9659      9662      9665      9667      9659      9662      9665      9668
      9660      9659      9662      9663      9660      9659      9662      9664
      9660      9659      9662      9665      9661      9659      9662      9663
      9661      9659      9662      9664      9661      9659      9662      9665
      9662      9665      9668      9669      9662      9665      9668      9670
      9662      9665      9668      9671      9663      9662      9665      9666
      9663      9662      9665      9667      9663      9662      9665      9668
      9664      9662      9665      9666      9664      9662      9665      9667
      9664      9662      9665      9668      9665      9668      9671      9672
      9665      9668      9671      9673      9665      9668      9671      9674
      9666      9665      9668      9669      9666      9665      9668      9670
      9666      9665      9668      9671      9667      9665      9668      9669
      9667      9665      9668      9670      9667      9665      9668      9671
      9668      9671      9674      9675      9668      9671      9674      9676
      9668      9671      9674      9677      9669      9668      9671      9672
      9669      9668      9671      9673      9669      9668      9671      9674
      9670      9668      9671      9672      9670      9668      9671      9673
      9670      9668      9671      9674      9671      9674      9677      9678
      9671      9674      9677      9679      9671      9674      9677      9680
      9672      9671      9674      9675      9672      9671      9674      9676
      9672      9671      9674      9677      9673      9671      9674      9675
      9673      9671      9674      9676      9673      9671      9674      9677
      9674      9677      9680      9681      9674      9677      9680      9682
      9674      9677      9680      9683      9675      9674      9677      9678
      9675      9674      9677      9679      9675      9674      9677      9680
      9676      9674      9677      9678      9676      9674      9677      9679
      9676      9674      9677      9680      9677      9680      9683      9684
      9677      9680      9683      9685      9677      9680      9683      9686
      9678      9677      9680      9681      9678      9677      9680      9682
      9678      9677      9680      9683      9679      9677      9680      9681
      9679      9677      9680      9682      9679      9677      9680      9683
      9681      9680      9683      9684      9681      9680      9683      9685
      9681      9680      9683      9686      9682      9680      9683      9684
      9682      9680      9683      9685      9682      9680      9683      9686
      2492      2496      2498      2499      2492      2496      2498      2500
      2492      2496      2501      2502      2492      2496      2501      2503
      2492      2496      2501      2507      2493      2492      2496      2497
      2493      2492      2496      2498      2493      2492      2496      2501
      2494      2492      2496      2497      2494      2492      2496      2498
      2494      2492      2496      2501      2495      2492      2496      2497
      2495      2492      2496      2498      2495      2492      2496      2501
      2496      2501      2507      2504      2497      2496      2498      2499
      2497      2496      2498      2500      2497      2496      2501      2502
      2497      2496      2501      2503      2497      2496      2501      2507
      2498      2496      2501      2502      2498      2496      2501      2503
      2498      2496      2501      2507      2499      2498      2496      2501
      2500      2498      2496      2501      2501      2507      2504      2505
      2501      2507      2504      2506      2501      2507      2504      2508
      2502      2501      2507      2504      2503      2501      2507      2504
      2504      2508      2509      2510      2504      2508      2509      2511
      2504      2508      2509      2512      2505      2504      2508      2509
      2506      2504      2508      2509      2507      2504      2508      2509
      2508      2509      2512      2513      2508      2509      2512      2514
      2508      2509      2512      2520      2509      2512      2514      2515
      2509      2512      2520      2521      2509      2512      2520      2522
      2509      2512      2520      2523      2510      2509      2512      2513
      2510      2509      2512      2514      2510      2509      2512      2520
      2511      2509      2512      2513      2511      2509      2512      2514
      2511      2509      2512      2520      2512      2514      2515      2516
      2512      2514      2515      2517      2512      2520      2523      2524
      2513      2512      2514      2515      2513      2512      2520      2521
      2513      2512      2520      2522      2513      2512      2520      2523
      2514      2512      2520      2521      2514      2512      2520      2522
      2514      2512      2520      2523      2514      2515      2517      2518
      2514      2515      2517      2519      2514      2515      2517      2529
      2515      2514      2512      2520      2515      2517      2529      2530
      2515      2517      2529      2531      2515      2517      2529      2532
      2516      2515      2517      2518      2516      2515      2517      2519
      2516      2515      2517      2529      2517      2529      2532      2533
      2517      2529      2532      2534      2517      2529      2532      2535
      2518      2517      2529      2530      2518      2517      2529      2531
      2518      2517      2529      2532      2519      2517      2529      2530
      2519      2517      2529      2531      2519      2517      2529      2532
      2520      2523      2524      2525      2520      2523      2524      2526
      2521      2520      2523      2524      2522      2520      2523      2524
      2523      2524      2526      2527      2523      2524      2526      2528
      2523      2524      2526      2576      2524      2526      2576      2577
      2524      2526      2576      2578      2524      2526      2576      2579
      2525      2524      2526      2527      2525      2524      2526      2528
      2525      2524      2526      2576      2526      2576      2579      2580
      2526      2576      2579      2581      2526      2576      2579      2582
      2527      2526      2576      2577      2527      2526      2576      2578
      2527      2526      2576      2579      2528      2526      2576      2577
      2528      2526      2576      2578      2528      2526      2576      2579
      2529      2532      2535      2536      2529      2532      2535      2537
      2530      2529      2532      2533      2530      2529      2532      2534
      2530      2529      2532      2535      2531      2529      2532      2533
      2531      2529      2532      2534      2531      2529      2532      2535
      2532      2535      2537      2538      2532      2535      2537      2539
      2533      2532      2535      2536      2533      2532      2535      2537
      2534      2532      2535      2536      2534      2532      2535      2537
      2535      2537      2539      2540      2535      2537      2539      2541
      2535      2537      2539      2542      2536      2535      2537      2538
      2536      2535      2537      2539      2537      2539      2542      2543
      2537      2539      2542      2544      2538      2537      2539      2540
      2538      2537      2539      2541      2538      2537      2539      2542
      2539      2542      2544      2545      2539      2542      2544      2546
      2540      2539      2542      2543      2540      2539      2542      2544
      2541      2539      2542      2543      2541      2539      2542      2544
      2542      2544      2546      2547      2542      2544      2546      2548
      2542      2544      2546      2549      2543      2542      2544      2545
      2543      2542      2544      2546      2544      2546      2549      2550
      2544      2546      2549      2551      2545      2544      2546      2547
      2545      2544      2546      2548      2545      2544      2546      2549
      2546      2549      2551      2552      2546      2549      2551      2553
      2547      2546      2549      2550      2547      2546      2549      2551
      2548      2546      2549      2550      2548      2546      2549      2551
      2549      2551      2553      2554      2549      2551      2553      2555
      2549      2551      2553      2556      2550      2549      2551      2552
      2550      2549      2551      2553      2551      2553      2556      2557
      2551      2553      2556      2558      2552      2551      2553      2554
      2552      2551      2553      2555      2552      2551      2553      2556
      2553      2556      2558      2559      2553      2556      2558      2560
      2554      2553      2556      2557      2554      2553      2556      2558
      2555      2553      2556      2557      2555      2553      2556      2558
      2556      2558      2560      2561      2556      2558      2560      2562
      2556      2558      2560      2563      2557      2556      2558      2559
      2557      2556      2558      2560      2558      2560      2563      2564
      2558      2560      2563      2565      2558      2560      2563      2566
      2559      2558      2560      2561      2559      2558      2560      2562
      2559      2558      2560      2563      2560      2563      2566      2567
      2560      2563      2566      2568      2560      2563      2566      2569
      2561      2560      2563      2564      2561      2560      2563      2565
      2561      2560      2563      2566      2562      2560      2563      2564
      2562      2560      2563      2565      2562      2560      2563      2566
      2563      2566      2569      2570      2563      2566      2569      2571
      2563      2566      2569      2572      2564      2563      2566      2567
      2564      2563      2566      2568      2564      2563      2566      2569
      2565      2563      2566      2567      2565      2563      2566      2568
      2565      2563      2566      2569      2566      2569      2572      2573
      2566      2569      2572      2574      2566      2569      2572      2575
      2567      2566      2569      2570      2567      2566      2569      2571
      2567      2566      2569      2572      2568      2566      2569      2570
      2568      2566      2569      2571      2568      2566      2569      2572
      2570      2569      2572      2573      2570      2569      2572      2574
      2570      2569      2572      2575      2571      2569      2572      2573
      2571      2569      2572      2574      2571      2569      2572      2575
      2576      2579      2582      2583      2576      2579      2582      2584
      2576      2579      2582      2585      2577      2576      2579      2580
      2577      2576      2579      2581      2577      2576      2579      2582
      2578      2576      2579      2580      2578      2576      2579      2581
      2578      2576      2579      2582      2579      2582      2585      2586
      2579      2582      2585      2587      2579      2582      2585      2588
      2580      2579      2582      2583      2580      2579      2582      2584
      2580      2579      2582      2585      2581      2579      2582      2583
      2581      2579      2582      2584      2581      2579      2582      2585
      2582      2585      2588      2589      2582      2585      2588      2590
      2582      2585      2588      2591      2583      2582      2585      2586
      2583      2582      2585      2587      2583      2582      2585      2588
      2584      2582      2585      2586      2584      2582      2585      2587
      2584      2582      2585      2588      2585      2588      2591      2592
      2585      2588      2591      2593      2585      2588      2591      2594
      2586      2585      2588      2589      2586      2585      2588      2590
      2586      2585      2588      2591      2587      2585      2588      2589
      2587      2585      2588      2590      2587      2585      2588      2591
      2588      2591      2594      2595      2588      2591      2594      2596
      2588      2591      2594      2597      2589      2588      2591      2592
      2589      2588      2591      2593      2589      2588      2591      2594
      2590      2588      2591      2592      2590      2588      2591      2593
      2590      2588      2591      2594      2591      2594      2597      2598
      2591      2594      2597      2599      2591      2594      2597      2600
      2592      2591      2594      2595      2592      2591      2594      2596
      2592      2591      2594      2597      2593      2591      2594      2595
      2593      2591      2594      2596      2593      2591      2594      2597
      2594      2597      2600      2601      2594      2597      2600      2602
      2594      2597      2600      2603      2595      2594      2597      2598
      2595      2594      2597      2599      2595      2594      2597      2600
      2596      2594      2597      2598      2596      2594      2597      2599
      2596      2594      2597      2600      2597      2600      2603      2604
      2597      2600      2603      2605      2597      2600      2603      2606
      2598      2597      2600      2601      2598      2597      2600      2602
      2598      2597      2600      2603      2599      2597      2600      2601
      2599      2597      2600      2602      2599      2597      2600      2603
      2600      2603      2606      2607      2600      2603      2606      2608
      2600      2603      2606      2609      2601      2600      2603      2604
      2601      2600      2603      2605      2601      2600      2603      2606
      2602      2600      2603      2604      2602      2600      2603      2605
      2602      2600      2603      2606      2603      2606      2609      2610
      2603      2606      2609      2611      2603      2606      2609      2612
      2604      2603      2606      2607      2604      2603      2606      2608
      2604      2603      2606      2609      2605      2603      2606      2607
      2605      2603      2606      2608      2605      2603      2606      2609
      2606      2609      2612      2613      2606      2609      2612      2614
      2606      2609      2612      2615      2607      2606      2609      2610
      2607      2606      2609      2611      2607      2606      2609      2612
      2608      2606      2609      2610      2608      2606      2609      2611
      2608      2606      2609      2612      2609      2612      2615      2616
      2609      2612      2615      2617      2609      2612      2615      2618
      2610      2609      2612      2613      2610      2609      2612      2614
      2610      2609      2612      2615      2611      2609      2612      2613
      2611      2609      2612      2614      2611      2609      2612      2615
      2612      2615      2618      2619      2612      2615      2618      2620
      2612      2615      2618      2621      2613      2612      2615      2616
      2613      2612      2615      2617      2613      2612      2615      2618
      2614      2612      2615      2616      2614      2612      2615      2617
      2614      2612      2615      2618      2615      2618      2621      2622
      2615      2618      2621      2623      2615      2618      2621      2624
      2616      2615      2618      2619      2616      2615      2618      2620
      2616      2615      2618      2621      2617      2615      2618      2619
      2617      2615      2618      2620      2617      2615      2618      2621
      2619      2618      2621      2622      2619      2618      2621      2623
      2619      2618      2621      2624      2620      2618      2621      2622
      2620      2618      2621      2623      2620      2618      2621      2624
       525       538       541       542       525       538       541       543
       525       538       541       548       526       525       530       531
       526       525       530       532       526       525       530       533
       526       525       534       535       526       525       534       536
       526       525       534       537       526       525       538       539
       526       525       538       540       526       525       538       541
       527       526       525       530       527       526       525       534
       527       526       525       538       528       526       525       530
       528       526       525       534       528       526       525       538
       529       526       525       530       529       526       525       534
       529       526       525       538       530       525       534       535
       530       525       534       536       530       525       534       537
       530       525       538       539       530       525       538       540
       530       525       538       541       531       530       525       534
       531       530       525       538       532       530       525       534
       532       530       525       538       533       530       525       534
       533       530       525       538       534       525       538       539
       534       525       538       540       534       525       538       541
       535       534       525       538       536       534       525       538
       537       534       525       538       538       541       548       544
       539       538       541       542       539       538       541       543
       539       538       541       548       540       538       541       542
       540       538       541       543       540       538       541       548
       541       548       544       545       541       548       544       546
       541       548       544       547       542       541       548       544
       543       541       548       544       544       547       549       550
       544       547       549       551       544       547       549       554
       545       544       547       549       546       544       547       549
       547       549       554       552       547       549       554       555
       547       549       554       556       548       544       547       549
       549       554       552       553       549       554       552       604
       549       554       556       557       549       554       556       558
       549       554       556       560       550       549       554       552
       550       549       554       555       550       549       554       556
       551       549       554       552       551       549       554       555
       551       549       554       556       552       554       556       557
       552       554       556       558       552       554       556       560
       552       604       606       607       552       604       606       608
       552       604       606       609       553       552       554       555
       553       552       554       556       553       552       604       605
       553       552       604       606       554       552       604       605
       554       552       604       606       554       556       558       559
       554       556       560       561       554       556       560       562
       555       554       552       604       555       554       556       557
       555       554       556       558       555       554       556       560
       556       554       552       604       556       560       562       563
       556       560       562       564       557       556       558       559
       557       556       560       561       557       556       560       562
       558       556       560       561       558       556       560       562
       559       558       556       560       560       562       564       565
       560       562       564       566       560       562       564       567
       561       560       562       563       561       560       562       564
       562       564       567       568       562       564       567       569
       562       564       567       570       563       562       564       565
       563       562       564       566       563       562       564       567
       564       567       570       571       564       567       570       572
       564       567       570       573       565       564       567       568
       565       564       567       569       565       564       567       570
       566       564       567       568       566       564       567       569
       566       564       567       570       567       570       573       574
       567       570       573       575       567       570       573       576
       568       567       570       571       568       567       570       572
       568       567       570       573       569       567       570       571
       569       567       570       572       569       567       570       573
       570       573       576       577       570       573       576       578
       570       573       576       579       571       570       573       574
       571       570       573       575       571       570       573       576
       572       570       573       574       572       570       573       575
       572       570       573       576       573       576       579       580
       573       576       579       581       573       576       579       582
       574       573       576       577       574       573       576       578
       574       573       576       579       575       573       576       577
       575       573       576       578       575       573       576       579
       576       579       582       583       576       579       582       584
       576       579       582       585       577       576       579       580
       577       576       579       581       577       576       579       582
       578       576       579       580       578       576       579       581
       578       576       579       582       579       582       585       586
       579       582       585       587       579       582       585       588
       580       579       582       583       580       579       582       584
       580       579       582       585       581       579       582       583
       581       579       582       584       581       579       582       585
       582       585       588       589       582       585       588       590
       582       585       588       591       583       582       585       586
       583       582       585       587       583       582       585       588
       584       582       585       586       584       582       585       587
       584       582       585       588       585       588       591       592
       585       588       591       593       585       588       591       594
       586       585       588       589       586       585       588       590
       586       585       588       591       587       585       588       589
       587       585       588       590       587       585       588       591
       588       591       594       595       588       591       594       596
       588       591       594       597       589       588       591       592
       589       588       591       593       589       588       591       594
       590       588       591       592       590       588       591       593
       590       588       591       594       591       594       597       598
       591       594       597       599       591       594       597       600
       592       591       594       595       592       591       594       596
       592       591       594       597       593       591       594       595
       593       591       594       596       593       591       594       597
       594       597       600       601       594       597       600       602
       594       597       600       603       595       594       597       598
       595       594       597       599       595       594       597       600
       596       594       597       598       596       594       597       599
       596       594       597       600       598       597       600       601
       598       597       600       602       598       597       600       603
       599       597       600       601       599       597       600       602
       599       597       600       603       604       606       609       610
       604       606       609       611       604       606       609       612
       605       604       606       607       605       604       606       608
       605       604       606       609       606       609       612       613
       606       609       612       614       606       609       612       615
       607       606       609       610       607       606       609       611
       607       606       609       612       608       606       609       610
       608       606       609       611       608       606       609       612
       609       612       615       616       609       612       615       617
       609       612       615       618       610       609       612       613
       610       609       612       614       610       609       612       615
       611       609       612       613       611       609       612       614
       611       609       612       615       612       615       618       619
       612       615       618       620       612       615       618       621
       613       612       615       616       613       612       615       617
       613       612       615       618       614       612       615       616
       614       612       615       617       614       612       615       618
       615       618       621       622       615       618       621       623
       615       618       621       624       616       615       618       619
       616       615       618       620       616       615       618       621
       617       615       618       619       617       615       618       620
       617       615       618       621       618       621       624       625
       618       621       624       626       618       621       624       627
       619       618       621       622       619       618       621       623
       619       618       621       624       620       618       621       622
       620       618       621       623       620       618       621       624
       621       624       627       628       621       624       627       629
       622       621       624       625       622       621       624       626
       622       621       624       627       623       621       624       625
       623       621       624       626       623       621       624       627
       624       627       629       630       624       627       629       631
       625       624       627       628       625       624       627       629
       626       624       627       628       626       624       627       629
       627       629       631       632       627       629       631       633
       627       629       631       634       628       627       629       630
       628       627       629       631       629       631       634       635
       629       631       634       636       629       631       634       637
       630       629       631       632       630       629       631       633
       630       629       631       634       631       634       637       638
       631       634       637       639       631       634       637       640
       632       631       634       635       632       631       634       636
       632       631       634       637       633       631       634       635
       633       631       634       636       633       631       634       637
       634       637       640       641       634       637       640       642
       634       637       640       643       635       634       637       638
       635       634       637       639       635       634       637       640
       636       634       637       638       636       634       637       639
       636       634       637       640       637       640       643       644
       637       640       643       645       637       640       643       646
       638       637       640       641       638       637       640       642
       638       637       640       643       639       637       640       641
       639       637       640       642       639       637       640       643
       640       643       646       647       640       643       646       648
       640       643       646       649       641       640       643       644
       641       640       643       645       641       640       643       646
       642       640       643       644       642       640       643       645
       642       640       643       646       643       646       649       650
       643       646       649       651       643       646       649       652
       644       643       646       647       644       643       646       648
       644       643       646       649       645       643       646       647
       645       643       646       648       645       643       646       649
       646       649       652       653       646       649       652       654
       646       649       652       655       647       646       649       650
       647       646       649       651       647       646       649       652
       648       646       649       650       648       646       649       651
       648       646       649       652       650       649       652       653
       650       649       652       654       650       649       652       655
       651       649       652       653       651       649       652       654
       651       649       652       655      3947      3951      3954      3955
      3947      3951      3954      3956      3947      3951      3954      3960
      3948      3947      3951      3952      3948      3947      3951      3953
      3948      3947      3951      3954      3949      3947      3951      3952
      3949      3947      3951      3953      3949      3947      3951      3954
      3950      3947      3951      3952      3950      3947      3951      3953
      3950      3947      3951      3954      3951      3954      3960      3957
      3952      3951      3954      3955      3952      3951      3954      3956
      3952      3951      3954      3960      3953      3951      3954      3955
      3953      3951      3954      3956      3953      3951      3954      3960
      3954      3960      3957      3958      3954      3960      3957      3959
      3954      3960      3957      3961      3955      3954      3960      3957
      3956      3954      3960      3957      3957      3961      3962      3963
      3957      3961      3962      3964      3957      3961      3962      3965
      3958      3957      3961      3962      3959      3957      3961      3962
      3960      3957      3961      3962      3961      3962      3965      3966
      3961      3962      3965      3967      3961      3962      3965      3973
      3962      3965      3967      3968      3962      3965      3973      3974
      3962      3965      3973      3975      3962      3965      3973      3976
      3963      3962      3965      3966      3963      3962      3965      3967
      3963      3962      3965      3973      3964      3962      3965      3966
      3964      3962      3965      3967      3964      3962      3965      3973
      3965      3967      3968      3969      3965      3967      3968      3970
      3965      3973      3976      3977      3966      3965      3967      3968
      3966      3965      3973      3974      3966      3965      3973      3975
      3966      3965      3973      3976      3967      3965      3973      3974
      3967      3965      3973      3975      3967      3965      3973      3976
      3967      3968      3970      3971      3967      3968      3970      3972
      3967      3968      3970      3982      3968      3967      3965      3973
      3968      3970      3982      3983      3968      3970      3982      3984
      3968      3970      3982      3985      3969      3968      3970      3971
      3969      3968      3970      3972      3969      3968      3970      3982
      3970      3982      3985      3986      3970      3982      3985      3987
      3970      3982      3985      3988      3971      3970      3982      3983
      3971      3970      3982      3984      3971      3970      3982      3985
      3972      3970      3982      3983      3972      3970      3982      3984
      3972      3970      3982      3985      3973      3976      3977      3978
      3973      3976      3977      3979      3974      3973      3976      3977
      3975      3973      3976      3977      3976      3977      3979      3980
      3976      3977      3979      3981      3976      3977      3979      4029
      3977      3979      4029      4030      3977      3979      4029      4031
      3977      3979      4029      4032      3978      3977      3979      3980
      3978      3977      3979      3981      3978      3977      3979      4029
      3979      4029      4032      4033      3979      4029      4032      4034
      3979      4029      4032      4035      3980      3979      4029      4030
      3980      3979      4029      4031      3980      3979      4029      4032
      3981      3979      4029      4030      3981      3979      4029      4031
      3981      3979      4029      4032      3982      3985      3988      3989
      3982      3985      3988      3990      3983      3982      3985      3986
      3983      3982      3985      3987      3983      3982      3985      3988
      3984      3982      3985      3986      3984      3982      3985      3987
      3984      3982      3985      3988      3985      3988      3990      3991
      3985      3988      3990      3992      3986      3985      3988      3989
      3986      3985      3988      3990      3987      3985      3988      3989
      3987      3985      3988      3990      3988      3990      3992      3993
      3988      3990      3992      3994      3988      3990      3992      3995
      3989      3988      3990      3991      3989      3988      3990      3992
      3990      3992      3995      3996      3990      3992      3995      3997
      3991      3990      3992      3993      3991      3990      3992      3994
      3991      3990      3992      3995      3992      3995      3997      3998
      3992      3995      3997      3999      3993      3992      3995      3996
      3993      3992      3995      3997      3994      3992      3995      3996
      3994      3992      3995      3997      3995      3997      3999      4000
      3995      3997      3999      4001      3995      3997      3999      4002
      3996      3995      3997      3998      3996      3995      3997      3999
      3997      3999      4002      4003      3997      3999      4002      4004
      3998      3997      3999      4000      3998      3997      3999      4001
      3998      3997      3999      4002      3999      4002      4004      4005
      3999      4002      4004      4006      4000      3999      4002      4003
      4000      3999      4002      4004      4001      3999      4002      4003
      4001      3999      4002      4004      4002      4004      4006      4007
      4002      4004      4006      4008      4002      4004      4006      4009
      4003      4002      4004      4005      4003      4002      4004      4006
      4004      4006      4009      4010      4004      4006      4009      4011
      4005      4004      4006      4007      4005      4004      4006      4008
      4005      4004      4006      4009      4006      4009      4011      4012
      4006      4009      4011      4013      4007      4006      4009      4010
      4007      4006      4009      4011      4008      4006      4009      4010
      4008      4006      4009      4011      4009      4011      4013      4014
      4009      4011      4013      4015      4009      4011      4013      4016
      4010      4009      4011      4012      4010      4009      4011      4013
      4011      4013      4016      4017      4011      4013      4016      4018
      4011      4013      4016      4019      4012      4011      4013      4014
      4012      4011      4013      4015      4012      4011      4013      4016
      4013      4016      4019      4020      4013      4016      4019      4021
      4013      4016      4019      4022      4014      4013      4016      4017
      4014      4013      4016      4018      4014      4013      4016      4019
      4015      4013      4016      4017      4015      4013      4016      4018
      4015      4013      4016      4019      4016      4019      4022      4023
      4016      4019      4022      4024      4016      4019      4022      4025
      4017      4016      4019      4020      4017      4016      4019      4021
      4017      4016      4019      4022      4018      4016      4019      4020
      4018      4016      4019      4021      4018      4016      4019      4022
      4019      4022      4025      4026      4019      4022      4025      4027
      4019      4022      4025      4028      4020      4019      4022      4023
      4020      4019      4022      4024      4020      4019      4022      4025
      4021      4019      4022      4023      4021      4019      4022      4024
      4021      4019      4022      4025      4023      4022      4025      4026
      4023      4022      4025      4027      4023      4022      4025      4028
      4024      4022      4025      4026      4024      4022      4025      4027
      4024      4022      4025      4028      4029      4032      4035      4036
      4029      4032      4035      4037      4029      4032      4035      4038
      4030      4029      4032      4033      4030      4029      4032      4034
      4030      4029      4032      4035      4031      4029      4032      4033
      4031      4029      4032      4034      4031      4029      4032      4035
      4032      4035      4038      4039      4032      4035      4038      4040
      4032      4035      4038      4041      4033      4032      4035      4036
      4033      4032      4035      4037      4033      4032      4035      4038
      4034      4032      4035      4036      4034      4032      4035      4037
      4034      4032      4035      4038      4035      4038      4041      4042
      4035      4038      4041      4043      4035      4038      4041      4044
      4036      4035      4038      4039      4036      4035      4038      4040
      4036      4035      4038      4041      4037      4035      4038      4039
      4037      4035      4038      4040      4037      4035      4038      4041
      4038      4041      4044      4045      4038      4041      4044      4046
      4038      4041      4044      4047      4039      4038      4041      4042
      4039      4038      4041      4043      4039      4038      4041      4044
      4040      4038      4041      4042      4040      4038      4041      4043
      4040      4038      4041      4044      4041      4044      4047      4048
      4041      4044      4047      4049      4041      4044      4047      4050
      4042      4041      4044      4045      4042      4041      4044      4046
      4042      4041      4044      4047      4043      4041      4044      4045
      4043      4041      4044      4046      4043      4041      4044      4047
      4044      4047      4050      4051      4044      4047      4050      4052
      4044      4047      4050      4053      4045      4044      4047      4048
      4045      4044      4047      4049      4045      4044      4047      4050
      4046      4044      4047      4048      4046      4044      4047      4049
      4046      4044      4047      4050      4047      4050      4053      4054
      4047      4050      4053      4055      4047      4050      4053      4056
      4048      4047      4050      4051      4048      4047      4050      4052
      4048      4047      4050      4053      4049      4047      4050      4051
      4049      4047      4050      4052      4049      4047      4050      4053
      4050      4053      4056      4057      4050      4053      4056      4058
      4050      4053      4056      4059      4051      4050      4053      4054
      4051      4050      4053      4055      4051      4050      4053      4056
      4052      4050      4053      4054      4052      4050      4053      4055
      4052      4050      4053      4056      4053      4056      4059      4060
      4053      4056      4059      4061      4053      4056      4059      4062
      4054      4053      4056      4057      4054      4053      4056      4058
      4054      4053      4056      4059      4055      4053      4056      4057
      4055      4053      4056      4058      4055      4053      4056      4059
      4056      4059      4062      4063      4056      4059      4062      4064
      4056      4059      4062      4065      4057      4056      4059      4060
      4057      4056      4059      4061      4057      4056      4059      4062
      4058      4056      4059      4060      4058      4056      4059      4061
      4058      4056      4059      4062      4059      4062      4065      4066
      4059      4062      4065      4067      4059      4062      4065      4068
      4060      4059      4062      4063      4060      4059      4062      4064
      4060      4059      4062      4065      4061      4059      4062      4063
      4061      4059      4062      4064      4061      4059      4062      4065
      4062      4065      4068      4069      4062      4065      4068      4070
      4062      4065      4068      4071      4063      4062      4065      4066
      4063      4062      4065      4067      4063      4062      4065      4068
      4064      4062      4065      4066      4064      4062      4065      4067
      4064      4062      4065      4068      4065      4068      4071      4072
      4065      4068      4071      4073      4065      4068      4071      4074
      4066      4065      4068      4069      4066      4065      4068      4070
      4066      4065      4068      4071      4067      4065      4068      4069
      4067      4065      4068      4070      4067      4065      4068      4071
      4068      4071      4074      4075      4068      4071      4074      4076
      4068      4071      4074      4077      4069      4068      4071      4072
      4069      4068      4071      4073      4069      4068      4071      4074
      4070      4068      4071      4072      4070      4068      4071      4073
      4070      4068      4071      4074      4072      4071      4074      4075
      4072      4071      4074      4076      4072      4071      4074      4077
      4073      4071      4074      4075      4073      4071      4074      4076
      4073      4071      4074      4077     10089     10093     10096     10097
     10089     10093     10096     10098     10089     10093     10096     10102
     10090     10089     10093     10094     10090     10089     10093     10095
     10090     10089     10093     10096     10091     10089     10093     10094
     10091     10089     10093     10095     10091     10089     10093     10096
     10092     10089     10093     10094     10092     10089     10093     10095
     10092     10089     10093     10096     10093     10096     10102     10099
     10094     10093     10096     10097     10094     10093     10096     10098
     10094     10093     10096     10102     10095     10093     10096     10097
     10095     10093     10096     10098     10095     10093     10096     10102
     10096     10102     10099     10100     10096     10102     10099     10101
     10096     10102     10099     10103     10097     10096     10102     10099
     10098     10096     10102     10099     10099     10103     10104     10105
     10099     10103     10104     10106     10099     10103     10104     10107
     10100     10099     10103     10104     10101     10099     10103     10104
     10102     10099     10103     10104     10103     10104     10107     10108
     10103     10104     10107     10109     10103     10104     10107     10115
     10104     10107     10109     10110     10104     10107     10115     10116
     10104     10107     10115     10117     10104     10107     10115     10118
     10105     10104     10107     10108     10105     10104     10107     10109
     10105     10104     10107     10115     10106     10104     10107     10108
     10106     10104     10107     10109     10106     10104     10107     10115
     10107     10109     10110     10111     10107     10109     10110     10112
     10107     10115     10118     10119     10108     10107     10109     10110
     10108     10107     10115     10116     10108     10107     10115     10117
     10108     10107     10115     10118     10109     10107     10115     10116
     10109     10107     10115     10117     10109     10107     10115     10118
     10109     10110     10112     10113     10109     10110     10112     10114
     10109     10110     10112     10124     10110     10109     10107     10115
     10110     10112     10124     10125     10110     10112     10124     10126
     10110     10112     10124     10127     10111     10110     10112     10113
     10111     10110     10112     10114     10111     10110     10112     10124
     10112     10124     10127     10128     10112     10124     10127     10129
     10112     10124     10127     10130     10113     10112     10124     10125
     10113     10112     10124     10126     10113     10112     10124     10127
     10114     10112     10124     10125     10114     10112     10124     10126
     10114     10112     10124     10127     10115     10118     10119     10120
     10115     10118     10119     10121     10116     10115     10118     10119
     10117     10115     10118     10119     10118     10119     10121     10122
     10118     10119     10121     10123     10118     10119     10121     10171
     10119     10121     10171     10172     10119     10121     10171     10173
     10119     10121     10171     10174     10120     10119     10121     10122
     10120     10119     10121     10123     10120     10119     10121     10171
     10121     10171     10174     10175     10121     10171     10174     10176
     10121     10171     10174     10177     10122     10121     10171     10172
     10122     10121     10171     10173     10122     10121     10171     10174
     10123     10121     10171     10172     10123     10121     10171     10173
     10123     10121     10171     10174     10124     10127     10130     10131
     10124     10127     10130     10132     10124     10127     10130     10133
     10125     10124     10127     10128     10125     10124     10127     10129
     10125     10124     10127     10130     10126     10124     10127     10128
     10126     10124     10127     10129     10126     10124     10127     10130
     10127     10130     10133     10134     10127     10130     10133     10135
     10127     10130     10133     10136     10128     10127     10130     10131
     10128     10127     10130     10132     10128     10127     10130     10133
     10129     10127     10130     10131     10129     10127     10130     10132
     10129     10127     10130     10133     10130     10133     10136     10137
     10130     10133     10136     10138     10130     10133     10136     10139
     10131     10130     10133     10134     10131     10130     10133     10135
     10131     10130     10133     10136     10132     10130     10133     10134
     10132     10130     10133     10135     10132     10130     10133     10136
     10133     10136     10139     10140     10133     10136     10139     10141
     10133     10136     10139     10142     10134     10133     10136     10137
     10134     10133     10136     10138     10134     10133     10136     10139
     10135     10133     10136     10137     10135     10133     10136     10138
     10135     10133     10136     10139     10136     10139     10142     10143
     10136     10139     10142     10144     10137     10136     10139     10140
     10137     10136     10139     10141     10137     10136     10139     10142
     10138     10136     10139     10140     10138     10136     10139     10141
     10138     10136     10139     10142     10139     10142     10144     10145
     10139     10142     10144     10146     10140     10139     10142     10143
     10140     10139     10142     10144     10141     10139     10142     10143
     10141     10139     10142     10144     10142     10144     10146     10147
     10142     10144     10146     10148     10142     10144     10146     10149
     10143     10142     10144     10145     10143     10142     10144     10146
     10144     10146     10149     10150     10144     10146     10149     10151
     10144     10146     10149     10152     10145     10144     10146     10147
     10145     10144     10146     10148     10145     10144     10146     10149
     10146     10149     10152     10153     10146     10149     10152     10154
     10146     10149     10152     10155     10147     10146     10149     10150
     10147     10146     10149     10151     10147     10146     10149     10152
     10148     10146     10149     10150     10148     10146     10149     10151
     10148     10146     10149     10152     10149     10152     10155     10156
     10149     10152     10155     10157     10149     10152     10155     10158
     10150     10149     10152     10153     10150     10149     10152     10154
     10150     10149     10152     10155     10151     10149     10152     10153
     10151     10149     10152     10154     10151     10149     10152     10155
     10152     10155     10158     10159     10152     10155     10158     10160
     10152     10155     10158     10161     10153     10152     10155     10156
     10153     10152     10155     10157     10153     10152     10155     10158
     10154     10152     10155     10156     10154     10152     10155     10157
     10154     10152     10155     10158     10155     10158     10161     10162
     10155     10158     10161     10163     10155     10158     10161     10164
     10156     10155     10158     10159     10156     10155     10158     10160
     10156     10155     10158     10161     10157     10155     10158     10159
     10157     10155     10158     10160     10157     10155     10158     10161
     10158     10161     10164     10165     10158     10161     10164     10166
     10158     10161     10164     10167     10159     10158     10161     10162
     10159     10158     10161     10163     10159     10158     10161     10164
     10160     10158     10161     10162     10160     10158     10161     10163
     10160     10158     10161     10164     10161     10164     10167     10168
     10161     10164     10167     10169     10161     10164     10167     10170
     10162     10161     10164     10165     10162     10161     10164     10166
     10162     10161     10164     10167     10163     10161     10164     10165
     10163     10161     10164     10166     10163     10161     10164     10167
     10165     10164     10167     10168     10165     10164     10167     10169
     10165     10164     10167     10170     10166     10164     10167     10168
     10166     10164     10167     10169     10166     10164     10167     10170
     10171     10174     10177     10178     10171     10174     10177     10179
     10171     10174     10177     10180     10172     10171     10174     10175
     10172     10171     10174     10176     10172     10171     10174     10177
     10173     10171     10174     10175     10173     10171     10174     10176
     10173     10171     10174     10177     10174     10177     10180     10181
     10174     10177     10180     10182     10174     10177     10180     10183
     10175     10174     10177     10178     10175     10174     10177     10179
     10175     10174     10177     10180     10176     10174     10177     10178
     10176     10174     10177     10179     10176     10174     10177     10180
     10177     10180     10183     10184     10177     10180     10183     10185
     10177     10180     10183     10186     10178     10177     10180     10181
     10178     10177     10180     10182     10178     10177     10180     10183
     10179     10177     10180     10181     10179     10177     10180     10182
     10179     10177     10180     10183     10180     10183     10186     10187
     10180     10183     10186     10188     10180     10183     10186     10189
     10181     10180     10183     10184     10181     10180     10183     10185
     10181     10180     10183     10186     10182     10180     10183     10184
     10182     10180     10183     10185     10182     10180     10183     10186
     10183     10186     10189     10190     10183     10186     10189     10191
     10183     10186     10189     10192     10184     10183     10186     10187
     10184     10183     10186     10188     10184     10183     10186     10189
     10185     10183     10186     10187     10185     10183     10186     10188
     10185     10183     10186     10189     10186     10189     10192     10193
     10186     10189     10192     10194     10186     10189     10192     10195
     10187     10186     10189     10190     10187     10186     10189     10191
     10187     10186     10189     10192     10188     10186     10189     10190
     10188     10186     10189     10191     10188     10186     10189     10192
     10189     10192     10195     10196     10189     10192     10195     10197
     10189     10192     10195     10198     10190     10189     10192     10193
     10190     10189     10192     10194     10190     10189     10192     10195
     10191     10189     10192     10193     10191     10189     10192     10194
     10191     10189     10192     10195     10192     10195     10198     10199
     10192     10195     10198     10200     10192     10195     10198     10201
     10193     10192     10195     10196     10193     10192     10195     10197
     10193     10192     10195     10198     10194     10192     10195     10196
     10194     10192     10195     10197     10194     10192     10195     10198
     10195     10198     10201     10202     10195     10198     10201     10203
     10195     10198     10201     10204     10196     10195     10198     10199
     10196     10195     10198     10200     10196     10195     10198     10201
     10197     10195     10198     10199     10197     10195     10198     10200
     10197     10195     10198     10201     10198     10201     10204     10205
     10198     10201     10204     10206     10198     10201     10204     10207
     10199     10198     10201     10202     10199     10198     10201     10203
     10199     10198     10201     10204     10200     10198     10201     10202
     10200     10198     10201     10203     10200     10198     10201     10204
     10201     10204     10207     10208     10201     10204     10207     10209
     10201     10204     10207     10210     10202     10201     10204     10205
     10202     10201     10204     10206     10202     10201     10204     10207
     10203     10201     10204     10205     10203     10201     10204     10206
     10203     10201     10204     10207     10204     10207     10210     10211
     10204     10207     10210     10212     10204     10207     10210     10213
     10205     10204     10207     10208     10205     10204     10207     10209
     10205     10204     10207     10210     10206     10204     10207     10208
     10206     10204     10207     10209     10206     10204     10207     10210
     10207     10210     10213     10214     10207     10210     10213     10215
     10207     10210     10213     10216     10208     10207     10210     10211
     10208     10207     10210     10212     10208     10207     10210     10213
     10209     10207     10210     10211     10209     10207     10210     10212
     10209     10207     10210     10213     10210     10213     10216     10217
     10210     10213     10216     10218     10210     10213     10216     10219
     10211     10210     10213     10214     10211     10210     10213     10215
     10211     10210     10213     10216     10212     10210     10213     10214
     10212     10210     10213     10215     10212     10210     10213     10216
     10214     10213     10216     10217     10214     10213     10216     10218
     10214     10213     10216     10219     10215     10213     10216     10217
     10215     10213     10216     10218     10215     10213     10216     10219
       656       669       672       673       656       669       672       674
       656       669       672       679       657       656       661       662
       657       656       661       663       657       656       661       664
       657       656       665       666       657       656       665       667
       657       656       665       668       657       656       669       670
       657       656       669       671       657       656       669       672
       658       657       656       661       658       657       656       665
       658       657       656       669       659       657       656       661
       659       657       656       665       659       657       656       669
       660       657       656       661       660       657       656       665
       660       657       656       669       661       656       665       666
       661       656       665       667       661       656       665       668
       661       656       669       670       661       656       669       671
       661       656       669       672       662       661       656       665
       662       661       656       669       663       661       656       665
       663       661       656       669       664       661       656       665
       664       661       656       669       665       656       669       670
       665       656       669       671       665       656       669       672
       666       665       656       669       667       665       656       669
       668       665       656       669       669       672       679       675
       670       669       672       673       670       669       672       674
       670       669       672       679       671       669       672       673
       671       669       672       674       671       669       672       679
       672       679       675       676       672       679       675       677
       672       679       675       678       673       672       679       675
       674       672       679       675       675       678       680       681
       675       678       680       682       675       678       680       685
       676       675       678       680       677       675       678       680
       678       680       685       683       678       680       685       686
       678       680       685       687       679       675       678       680
       680       685       683       684       680       685       683       735
       680       685       687       688       680       685       687       689
       680       685       687       691       681       680       685       683
       681       680       685       686       681       680       685       687
       682       680       685       683       682       680       685       686
       682       680       685       687       683       685       687       688
       683       685       687       689       683       685       687       691
       683       735       737       738       683       735       737       739
       683       735       737       740       684       683       685       686
       684       683       685       687       684       683       735       736
       684       683       735       737       685       683       735       736
       685       683       735       737       685       687       689       690
       685       687       691       692       685       687       691       693
       686       685       683       735       686       685       687       688
       686       685       687       689       686       685       687       691
       687       685       683       735       687       691       693       694
       687       691       693       695       688       687       689       690
       688       687       691       692       688       687       691       693
       689       687       691       692       689       687       691       693
       690       689       687       691       691       693       695       696
       691       693       695       697       691       693       695       698
       692       691       693       694       692       691       693       695
       693       695       698       699       693       695       698       700
       693       695       698       701       694       693       695       696
       694       693       695       697       694       693       695       698
       695       698       701       702       695       698       701       703
       695       698       701       704       696       695       698       699
       696       695       698       700       696       695       698       701
       697       695       698       699       697       695       698       700
       697       695       698       701       698       701       704       705
       698       701       704       706       698       701       704       707
       699       698       701       702       699       698       701       703
       699       698       701       704       700       698       701       702
       700       698       701       703       700       698       701       704
       701       704       707       708       701       704       707       709
       701       704       707       710       702       701       704       705
       702       701       704       706       702       701       704       707
       703       701       704       705       703       701       704       706
       703       701       704       707       704       707       710       711
       704       707       710       712       704       707       710       713
       705       704       707       708       705       704       707       709
       705       704       707       710       706       704       707       708
       706       704       707       709       706       704       707       710
       707       710       713       714       707       710       713       715
       707       710       713       716       708       707       710       711
       708       707       710       712       708       707       710       713
       709       707       710       711       709       707       710       712
       709       707       710       713       710       713       716       717
       710       713       716       718       710       713       716       719
       711       710       713       714       711       710       713       715
       711       710       713       716       712       710       713       714
       712       710       713       715       712       710       713       716
       713       716       719       720       713       716       719       721
       713       716       719       722       714       713       716       717
       714       713       716       718       714       713       716       719
       715       713       716       717       715       713       716       718
       715       713       716       719       716       719       722       723
       716       719       722       724       716       719       722       725
       717       716       719       720       717       716       719       721
       717       716       719       722       718       716       719       720
       718       716       719       721       718       716       719       722
       719       722       725       726       719       722       725       727
       719       722       725       728       720       719       722       723
       720       719       722       724       720       719       722       725
       721       719       722       723       721       719       722       724
       721       719       722       725       722       725       728       729
       722       725       728       730       722       725       728       731
       723       722       725       726       723       722       725       727
       723       722       725       728       724       722       725       726
       724       722       725       727       724       722       725       728
       725       728       731       732       725       728       731       733
       725       728       731       734       726       725       728       729
       726       725       728       730       726       725       728       731
       727       725       728       729       727       725       728       730
       727       725       728       731       729       728       731       732
       729       728       731       733       729       728       731       734
       730       728       731       732       730       728       731       733
       730       728       731       734       735       737       740       741
       735       737       740       742       735       737       740       743
       736       735       737       738       736       735       737       739
       736       735       737       740       737       740       743       744
       737       740       743       745       737       740       743       746
       738       737       740       741       738       737       740       742
       738       737       740       743       739       737       740       741
       739       737       740       742       739       737       740       743
       740       743       746       747       740       743       746       748
       740       743       746       749       741       740       743       744
       741       740       743       745       741       740       743       746
       742       740       743       744       742       740       743       745
       742       740       743       746       743       746       749       750
       743       746       749       751       743       746       749       752
       744       743       746       747       744       743       746       748
       744       743       746       749       745       743       746       747
       745       743       746       748       745       743       746       749
       746       749       752       753       746       749       752       754
       746       749       752       755       747       746       749       750
       747       746       749       751       747       746       749       752
       748       746       749       750       748       746       749       751
       748       746       749       752       749       752       755       756
       749       752       755       757       749       752       755       758
       750       749       752       753       750       749       752       754
       750       749       752       755       751       749       752       753
       751       749       752       754       751       749       752       755
       752       755       758       759       752       755       758       760
       753       752       755       756       753       752       755       757
       753       752       755       758       754       752       755       756
       754       752       755       757       754       752       755       758
       755       758       760       761       755       758       760       762
       756       755       758       759       756       755       758       760
       757       755       758       759       757       755       758       760
       758       760       762       763       758       760       762       764
       758       760       762       765       759       758       760       761
       759       758       760       762       760       762       765       766
       760       762       765       767       760       762       765       768
       761       760       762       763       761       760       762       764
       761       760       762       765       762       765       768       769
       762       765       768       770       762       765       768       771
       763       762       765       766       763       762       765       767
       763       762       765       768       764       762       765       766
       764       762       765       767       764       762       765       768
       765       768       771       772       765       768       771       773
       765       768       771       774       766       765       768       769
       766       765       768       770       766       765       768       771
       767       765       768       769       767       765       768       770
       767       765       768       771       768       771       774       775
       768       771       774       776       768       771       774       777
       769       768       771       772       769       768       771       773
       769       768       771       774       770       768       771       772
       770       768       771       773       770       768       771       774
       771       774       777       778       771       774       777       779
       771       774       777       780       772       771       774       775
       772       771       774       776       772       771       774       777
       773       771       774       775       773       771       774       776
       773       771       774       777       774       777       780       781
       774       777       780       782       774       777       780       783
       775       774       777       778       775       774       777       779
       775       774       777       780       776       774       777       778
       776       774       777       779       776       774       777       780
       777       780       783       784       777       780       783       785
       777       780       783       786       778       777       780       781
       778       777       780       782       778       777       780       783
       779       777       780       781       779       777       780       782
       779       777       780       783       781       780       783       784
       781       780       783       785       781       780       783       786
       782       780       783       784       782       780       783       785
       782       780       783       786       787       800       803       804
       787       800       803       805       787       800       803       810
       788       787       792       793       788       787       792       794
       788       787       792       795       788       787       796       797
       788       787       796       798       788       787       796       799
       788       787       800       801       788       787       800       802
       788       787       800       803       789       788       787       792
       789       788       787       796       789       788       787       800
       790       788       787       792       790       788       787       796
       790       788       787       800       791       788       787       792
       791       788       787       796       791       788       787       800
       792       787       796       797       792       787       796       798
       792       787       796       799       792       787       800       801
       792       787       800       802       792       787       800       803
       793       792       787       796       793       792       787       800
       794       792       787       796       794       792       787       800
       795       792       787       796       795       792       787       800
       796       787       800       801       796       787       800       802
       796       787       800       803       797       796       787       800
       798       796       787       800       799       796       787       800
       800       803       810       806       801       800       803       804
       801       800       803       805       801       800       803       810
       802       800       803       804       802       800       803       805
       802       800       803       810       803       810       806       807
       803       810       806       808       803       810       806       809
       804       803       810       806       805       803       810       806
       806       809       811       812       806       809       811       813
       806       809       811       816       807       806       809       811
       808       806       809       811       809       811       816       814
       809       811       816       817       809       811       816       818
       810       806       809       811       811       816       814       815
       811       816       814       866       811       816       818       819
       811       816       818       820       811       816       818       822
       812       811       816       814       812       811       816       817
       812       811       816       818       813       811       816       814
       813       811       816       817       813       811       816       818
       814       816       818       819       814       816       818       820
       814       816       818       822       814       866       868       869
       814       866       868       870       814       866       868       871
       815       814       816       817       815       814       816       818
       815       814       866       867       815       814       866       868
       816       814       866       867       816       814       866       868
       816       818       820       821       816       818       822       823
       816       818       822       824       817       816       814       866
       817       816       818       819       817       816       818       820
       817       816       818       822       818       816       814       866
       818       822       824       825       818       822       824       826
       819       818       820       821       819       818       822       823
       819       818       822       824       820       818       822       823
       820       818       822       824       821       820       818       822
       822       824       826       827       822       824       826       828
       822       824       826       829       823       822       824       825
       823       822       824       826       824       826       829       830
       824       826       829       831       824       826       829       832
       825       824       826       827       825       824       826       828
       825       824       826       829       826       829       832       833
       826       829       832       834       826       829       832       835
       827       826       829       830       827       826       829       831
       827       826       829       832       828       826       829       830
       828       826       829       831       828       826       829       832
       829       832       835       836       829       832       835       837
       829       832       835       838       830       829       832       833
       830       829       832       834       830       829       832       835
       831       829       832       833       831       829       832       834
       831       829       832       835       832       835       838       839
       832       835       838       840       832       835       838       841
       833       832       835       836       833       832       835       837
       833       832       835       838       834       832       835       836
       834       832       835       837       834       832       835       838
       835       838       841       842       835       838       841       843
       835       838       841       844       836       835       838       839
       836       835       838       840       836       835       838       841
       837       835       838       839       837       835       838       840
       837       835       838       841       838       841       844       845
       838       841       844       846       838       841       844       847
       839       838       841       842       839       838       841       843
       839       838       841       844       840       838       841       842
       840       838       841       843       840       838       841       844
       841       844       847       848       841       844       847       849
       841       844       847       850       842       841       844       845
       842       841       844       846       842       841       844       847
       843       841       844       845       843       841       844       846
       843       841       844       847       844       847       850       851
       844       847       850       852       844       847       850       853
       845       844       847       848       845       844       847       849
       845       844       847       850       846       844       847       848
       846       844       847       849       846       844       847       850
       847       850       853       854       847       850       853       855
       847       850       853       856       848       847       850       851
       848       847       850       852       848       847       850       853
       849       847       850       851       849       847       850       852
       849       847       850       853       850       853       856       857
       850       853       856       858       850       853       856       859
       851       850       853       854       851       850       853       855
       851       850       853       856       852       850       853       854
       852       850       853       855       852       850       853       856
       853       856       859       860       853       856       859       861
       853       856       859       862       854       853       856       857
       854       853       856       858       854       853       856       859
       855       853       856       857       855       853       856       858
       855       853       856       859       856       859       862       863
       856       859       862       864       856       859       862       865
       857       856       859       860       857       856       859       861
       857       856       859       862       858       856       859       860
       858       856       859       861       858       856       859       862
       860       859       862       863       860       859       862       864
       860       859       862       865       861       859       862       863
       861       859       862       864       861       859       862       865
       866       868       871       872       866       868       871       873
       866       868       871       874       867       866       868       869
       867       866       868       870       867       866       868       871
       868       871       874       875       868       871       874       876
       868       871       874       877       869       868       871       872
       869       868       871       873       869       868       871       874
       870       868       871       872       870       868       871       873
       870       868       871       874       871       874       877       878
       871       874       877       879       871       874       877       880
       872       871       874       875       872       871       874       876
       872       871       874       877       873       871       874       875
       873       871       874       876       873       871       874       877
       874       877       880       881       874       877       880       882
       874       877       880       883       875       874       877       878
       875       874       877       879       875       874       877       880
       876       874       877       878       876       874       877       879
       876       874       877       880       877       880       883       884
       877       880       883       885       877       880       883       886
       878       877       880       881       878       877       880       882
       878       877       880       883       879       877       880       881
       879       877       880       882       879       877       880       883
       880       883       886       887       880       883       886       888
       880       883       886       889       881       880       883       884
       881       880       883       885       881       880       883       886
       882       880       883       884       882       880       883       885
       882       880       883       886       883       886       889       890
       883       886       889       891       884       883       886       887
       884       883       886       888       884       883       886       889
       885       883       886       887       885       883       886       888
       885       883       886       889       886       889       891       892
       886       889       891       893       887       886       889       890
       887       886       889       891       888       886       889       890
       888       886       889       891       889       891       893       894
       889       891       893       895       889       891       893       896
       890       889       891       892       890       889       891       893
       891       893       896       897       891       893       896       898
       891       893       896       899       892       891       893       894
       892       891       893       895       892       891       893       896
       893       896       899       900       893       896       899       901
       893       896       899       902       894       893       896       897
       894       893       896       898       894       893       896       899
       895       893       896       897       895       893       896       898
       895       893       896       899       896       899       902       903
       896       899       902       904       896       899       902       905
       897       896       899       900       897       896       899       901
       897       896       899       902       898       896       899       900
       898       896       899       901       898       896       899       902
       899       902       905       906       899       902       905       907
       899       902       905       908       900       899       902       903
       900       899       902       904       900       899       902       905
       901       899       902       903       901       899       902       904
       901       899       902       905       902       905       908       909
       902       905       908       910       902       905       908       911
       903       902       905       906       903       902       905       907
       903       902       905       908       904       902       905       906
       904       902       905       907       904       902       905       908
       905       908       911       912       905       908       911       913
       905       908       911       914       906       905       908       909
       906       905       908       910       906       905       908       911
       907       905       908       909       907       905       908       910
       907       905       908       911       908       911       914       915
       908       911       914       916       908       911       914       917
       909       908       911       912       909       908       911       913
       909       908       911       914       910       908       911       912
       910       908       911       913       910       908       911       914
       912       911       914       915       912       911       914       916
       912       911       914       917       913       911       914       915
       913       911       914       916       913       911       914       917
       918       931       934       935       918       931       934       936
       918       931       934       941       919       918       923       924
       919       918       923       925       919       918       923       926
       919       918       927       928       919       918       927       929
       919       918       927       930       919       918       931       932
       919       918       931       933       919       918       931       934
       920       919       918       923       920       919       918       927
       920       919       918       931       921       919       918       923
       921       919       918       927       921       919       918       931
       922       919       918       923       922       919       918       927
       922       919       918       931       923       918       927       928
       923       918       927       929       923       918       927       930
       923       918       931       932       923       918       931       933
       923       918       931       934       924       923       918       927
       924       923       918       931       925       923       918       927
       925       923       918       931       926       923       918       927
       926       923       918       931       927       918       931       932
       927       918       931       933       927       918       931       934
       928       927       918       931       929       927       918       931
       930       927       918       931       931       934       941       937
       932       931       934       935       932       931       934       936
       932       931       934       941       933       931       934       935
       933       931       934       936       933       931       934       941
       934       941       937       938       934       941       937       939
       934       941       937       940       935       934       941       937
       936       934       941       937       937       940       942       943
       937       940       942       944       937       940       942       947
       938       937       940       942       939       937       940       942
       940       942       947       945       940       942       947       948
       940       942       947       949       941       937       940       942
       942       947       945       946       942       947       945       997
       942       947       949       950       942       947       949       951
       942       947       949       953       943       942       947       945
       943       942       947       948       943       942       947       949
       944       942       947       945       944       942       947       948
       944       942       947       949       945       947       949       950
       945       947       949       951       945       947       949       953
       945       997       999      1000       945       997       999      1001
       945       997       999      1002       946       945       947       948
       946       945       947       949       946       945       997       998
       946       945       997       999       947       945       997       998
       947       945       997       999       947       949       951       952
       947       949       953       954       947       949       953       955
       948       947       945       997       948       947       949       950
       948       947       949       951       948       947       949       953
       949       947       945       997       949       953       955       956
       949       953       955       957       950       949       951       952
       950       949       953       954       950       949       953       955
       951       949       953       954       951       949       953       955
       952       951       949       953       953       955       957       958
       953       955       957       959       953       955       957       960
       954       953       955       956       954       953       955       957
       955       957       960       961       955       957       960       962
       955       957       960       963       956       955       957       958
       956       955       957       959       956       955       957       960
       957       960       963       964       957       960       963       965
       957       960       963       966       958       957       960       961
       958       957       960       962       958       957       960       963
       959       957       960       961       959       957       960       962
       959       957       960       963       960       963       966       967
       960       963       966       968       960       963       966       969
       961       960       963       964       961       960       963       965
       961       960       963       966       962       960       963       964
       962       960       963       965       962       960       963       966
       963       966       969       970       963       966       969       971
       963       966       969       972       964       963       966       967
       964       963       966       968       964       963       966       969
       965       963       966       967       965       963       966       968
       965       963       966       969       966       969       972       973
       966       969       972       974       966       969       972       975
       967       966       969       970       967       966       969       971
       967       966       969       972       968       966       969       970
       968       966       969       971       968       966       969       972
       969       972       975       976       969       972       975       977
       969       972       975       978       970       969       972       973
       970       969       972       974       970       969       972       975
       971       969       972       973       971       969       972       974
       971       969       972       975       972       975       978       979
       972       975       978       980       972       975       978       981
       973       972       975       976       973       972       975       977
       973       972       975       978       974       972       975       976
       974       972       975       977       974       972       975       978
       975       978       981       982       975       978       981       983
       975       978       981       984       976       975       978       979
       976       975       978       980       976       975       978       981
       977       975       978       979       977       975       978       980
       977       975       978       981       978       981       984       985
       978       981       984       986       978       981       984       987
       979       978       981       982       979       978       981       983
       979       978       981       984       980       978       981       982
       980       978       981       983       980       978       981       984
       981       984       987       988       981       984       987       989
       981       984       987       990       982       981       984       985
       982       981       984       986       982       981       984       987
       983       981       984       985       983       981       984       986
       983       981       984       987       984       987       990       991
       984       987       990       992       984       987       990       993
       985       984       987       988       985       984       987       989
       985       984       987       990       986       984       987       988
       986       984       987       989       986       984       987       990
       987       990       993       994       987       990       993       995
       987       990       993       996       988       987       990       991
       988       987       990       992       988       987       990       993
       989       987       990       991       989       987       990       992
       989       987       990       993       991       990       993       994
       991       990       993       995       991       990       993       996
       992       990       993       994       992       990       993       995
       992       990       993       996       997       999      1002      1003
       997       999      1002      1004       997       999      1002      1005
       998       997       999      1000       998       997       999      1001
       998       997       999      1002       999      1002      1005      1006
       999      1002      1005      1007       999      1002      1005      1008
      1000       999      1002      1003      1000       999      1002      1004
      1000       999      1002      1005      1001       999      1002      1003
      1001       999      1002      1004      1001       999      1002      1005
      1002      1005      1008      1009      1002      1005      1008      1010
      1002      1005      1008      1011      1003      1002      1005      1006
      1003      1002      1005      1007      1003      1002      1005      1008
      1004      1002      1005      1006      1004      1002      1005      1007
      1004      1002      1005      1008      1005      1008      1011      1012
      1005      1008      1011      1013      1005      1008      1011      1014
      1006      1005      1008      1009      1006      1005      1008      1010
      1006      1005      1008      1011      1007      1005      1008      1009
      1007      1005      1008      1010      1007      1005      1008      1011
      1008      1011      1014      1015      1008      1011      1014      1016
      1008      1011      1014      1017      1009      1008      1011      1012
      1009      1008      1011      1013      1009      1008      1011      1014
      1010      1008      1011      1012      1010      1008      1011      1013
      1010      1008      1011      1014      1011      1014      1017      1018
      1011      1014      1017      1019      1011      1014      1017      1020
      1012      1011      1014      1015      1012      1011      1014      1016
      1012      1011      1014      1017      1013      1011      1014      1015
      1013      1011      1014      1016      1013      1011      1014      1017
      1014      1017      1020      1021      1014      1017      1020      1022
      1015      1014      1017      1018      1015      1014      1017      1019
      1015      1014      1017      1020      1016      1014      1017      1018
      1016      1014      1017      1019      1016      1014      1017      1020
      1017      1020      1022      1023      1017      1020      1022      1024
      1018      1017      1020      1021      1018      1017      1020      1022
      1019      1017      1020      1021      1019      1017      1020      1022
      1020      1022      1024      1025      1020      1022      1024      1026
      1020      1022      1024      1027      1021      1020      1022      1023
      1021      1020      1022      1024      1022      1024      1027      1028
      1022      1024      1027      1029      1022      1024      1027      1030
      1023      1022      1024      1025      1023      1022      1024      1026
      1023      1022      1024      1027      1024      1027      1030      1031
      1024      1027      1030      1032      1024      1027      1030      1033
      1025      1024      1027      1028      1025      1024      1027      1029
      1025      1024      1027      1030      1026      1024      1027      1028
      1026      1024      1027      1029      1026      1024      1027      1030
      1027      1030      1033      1034      1027      1030      1033      1035
      1027      1030      1033      1036      1028      1027      1030      1031
      1028      1027      1030      1032      1028      1027      1030      1033
      1029      1027      1030      1031      1029      1027      1030      1032
      1029      1027      1030      1033      1030      1033      1036      1037
      1030      1033      1036      1038      1030      1033      1036      1039
      1031      1030      1033      1034      1031      1030      1033      1035
      1031      1030      1033      1036      1032      1030      1033      1034
      1032      1030      1033      1035      1032      1030      1033      1036
      1033      1036      1039      1040      1033      1036      1039      1041
      1033      1036      1039      1042      1034      1033      1036      1037
      1034      1033      1036      1038      1034      1033      1036      1039
      1035      1033      1036      1037      1035      1033      1036      1038
      1035      1033      1036      1039      1036      1039      1042      1043
      1036      1039      1042      1044      1036      1039      1042      1045
      1037      1036      1039      1040      1037      1036      1039      1041
      1037      1036      1039      1042      1038      1036      1039      1040
      1038      1036      1039      1041      1038      1036      1039      1042
      1039      1042      1045      1046      1039      1042      1045      1047
      1039      1042      1045      1048      1040      1039      1042      1043
      1040      1039      1042      1044      1040      1039      1042      1045
      1041      1039      1042      1043      1041      1039      1042      1044
      1041      1039      1042      1045      1043      1042      1045      1046
      1043      1042      1045      1047      1043      1042      1045      1048
      1044      1042      1045      1046      1044      1042      1045      1047
      1044      1042      1045      1048     10220     10224     10227     10228
     10220     10224     10227     10229     10220     10224     10227     10233
     10221     10220     10224     10225     10221     10220     10224     10226
     10221     10220     10224     10227     10222     10220     10224     10225
     10222     10220     10224     10226     10222     10220     10224     10227
     10223     10220     10224     10225     10223     10220     10224     10226
     10223     10220     10224     10227     10224     10227     10233     10230
     10225     10224     10227     10228     10225     10224     10227     10229
     10225     10224     10227     10233     10226     10224     10227     10228
     10226     10224     10227     10229     10226     10224     10227     10233
     10227     10233     10230     10231     10227     10233     10230     10232
     10227     10233     10230     10234     10228     10227     10233     10230
     10229     10227     10233     10230     10230     10234     10235     10236
     10230     10234     10235     10237     10230     10234     10235     10238
     10231     10230     10234     10235     10232     10230     10234     10235
     10233     10230     10234     10235     10234     10235     10238     10239
     10234     10235     10238     10240     10234     10235     10238     10246
     10235     10238     10240     10241     10235     10238     10246     10247
     10235     10238     10246     10248     10235     10238     10246     10249
     10236     10235     10238     10239     10236     10235     10238     10240
     10236     10235     10238     10246     10237     10235     10238     10239
     10237     10235     10238     10240     10237     10235     10238     10246
     10238     10240     10241     10242     10238     10240     10241     10243
     10238     10246     10249     10250     10239     10238     10240     10241
     10239     10238     10246     10247     10239     10238     10246     10248
     10239     10238     10246     10249     10240     10238     10246     10247
     10240     10238     10246     10248     10240     10238     10246     10249
     10240     10241     10243     10244     10240     10241     10243     10245
     10240     10241     10243     10255     10241     10240     10238     10246
     10241     10243     10255     10256     10241     10243     10255     10257
     10241     10243     10255     10258     10242     10241     10243     10244
     10242     10241     10243     10245     10242     10241     10243     10255
     10243     10255     10258     10259     10243     10255     10258     10260
     10243     10255     10258     10261     10244     10243     10255     10256
     10244     10243     10255     10257     10244     10243     10255     10258
     10245     10243     10255     10256     10245     10243     10255     10257
     10245     10243     10255     10258     10246     10249     10250     10251
     10246     10249     10250     10252     10247     10246     10249     10250
     10248     10246     10249     10250     10249     10250     10252     10253
     10249     10250     10252     10254     10249     10250     10252     10302
     10250     10252     10302     10303     10250     10252     10302     10304
     10250     10252     10302     10305     10251     10250     10252     10253
     10251     10250     10252     10254     10251     10250     10252     10302
     10252     10302     10305     10306     10252     10302     10305     10307
     10252     10302     10305     10308     10253     10252     10302     10303
     10253     10252     10302     10304     10253     10252     10302     10305
     10254     10252     10302     10303     10254     10252     10302     10304
     10254     10252     10302     10305     10255     10258     10261     10262
     10255     10258     10261     10263     10255     10258     10261     10264
     10256     10255     10258     10259     10256     10255     10258     10260
     10256     10255     10258     10261     10257     10255     10258     10259
     10257     10255     10258     10260     10257     10255     10258     10261
     10258     10261     10264     10265     10258     10261     10264     10266
     10258     10261     10264     10267     10259     10258     10261     10262
     10259     10258     10261     10263     10259     10258     10261     10264
     10260     10258     10261     10262     10260     10258     10261     10263
     10260     10258     10261     10264     10261     10264     10267     10268
     10261     10264     10267     10269     10261     10264     10267     10270
     10262     10261     10264     10265     10262     10261     10264     10266
     10262     10261     10264     10267     10263     10261     10264     10265
     10263     10261     10264     10266     10263     10261     10264     10267
     10264     10267     10270     10271     10264     10267     10270     10272
     10264     10267     10270     10273     10265     10264     10267     10268
     10265     10264     10267     10269     10265     10264     10267     10270
     10266     10264     10267     10268     10266     10264     10267     10269
     10266     10264     10267     10270     10267     10270     10273     10274
     10267     10270     10273     10275     10268     10267     10270     10271
     10268     10267     10270     10272     10268     10267     10270     10273
     10269     10267     10270     10271     10269     10267     10270     10272
     10269     10267     10270     10273     10270     10273     10275     10276
     10270     10273     10275     10277     10271     10270     10273     10274
     10271     10270     10273     10275     10272     10270     10273     10274
     10272     10270     10273     10275     10273     10275     10277     10278
     10273     10275     10277     10279     10273     10275     10277     10280
     10274     10273     10275     10276     10274     10273     10275     10277
     10275     10277     10280     10281     10275     10277     10280     10282
     10275     10277     10280     10283     10276     10275     10277     10278
     10276     10275     10277     10279     10276     10275     10277     10280
     10277     10280     10283     10284     10277     10280     10283     10285
     10277     10280     10283     10286     10278     10277     10280     10281
     10278     10277     10280     10282     10278     10277     10280     10283
     10279     10277     10280     10281     10279     10277     10280     10282
     10279     10277     10280     10283     10280     10283     10286     10287
     10280     10283     10286     10288     10280     10283     10286     10289
     10281     10280     10283     10284     10281     10280     10283     10285
     10281     10280     10283     10286     10282     10280     10283     10284
     10282     10280     10283     10285     10282     10280     10283     10286
     10283     10286     10289     10290     10283     10286     10289     10291
     10283     10286     10289     10292     10284     10283     10286     10287
     10284     10283     10286     10288     10284     10283     10286     10289
     10285     10283     10286     10287     10285     10283     10286     10288
     10285     10283     10286     10289     10286     10289     10292     10293
     10286     10289     10292     10294     10286     10289     10292     10295
     10287     10286     10289     10290     10287     10286     10289     10291
     10287     10286     10289     10292     10288     10286     10289     10290
     10288     10286     10289     10291     10288     10286     10289     10292
     10289     10292     10295     10296     10289     10292     10295     10297
     10289     10292     10295     10298     10290     10289     10292     10293
     10290     10289     10292     10294     10290     10289     10292     10295
     10291     10289     10292     10293     10291     10289     10292     10294
     10291     10289     10292     10295     10292     10295     10298     10299
     10292     10295     10298     10300     10292     10295     10298     10301
     10293     10292     10295     10296     10293     10292     10295     10297
     10293     10292     10295     10298     10294     10292     10295     10296
     10294     10292     10295     10297     10294     10292     10295     10298
     10296     10295     10298     10299     10296     10295     10298     10300
     10296     10295     10298     10301     10297     10295     10298     10299
     10297     10295     10298     10300     10297     10295     10298     10301
     10302     10305     10308     10309     10302     10305     10308     10310
     10302     10305     10308     10311     10303     10302     10305     10306
     10303     10302     10305     10307     10303     10302     10305     10308
     10304     10302     10305     10306     10304     10302     10305     10307
     10304     10302     10305     10308     10305     10308     10311     10312
     10305     10308     10311     10313     10305     10308     10311     10314
     10306     10305     10308     10309     10306     10305     10308     10310
     10306     10305     10308     10311     10307     10305     10308     10309
     10307     10305     10308     10310     10307     10305     10308     10311
     10308     10311     10314     10315     10308     10311     10314     10316
     10308     10311     10314     10317     10309     10308     10311     10312
     10309     10308     10311     10313     10309     10308     10311     10314
     10310     10308     10311     10312     10310     10308     10311     10313
     10310     10308     10311     10314     10311     10314     10317     10318
     10311     10314     10317     10319     10311     10314     10317     10320
     10312     10311     10314     10315     10312     10311     10314     10316
     10312     10311     10314     10317     10313     10311     10314     10315
     10313     10311     10314     10316     10313     10311     10314     10317
     10314     10317     10320     10321     10314     10317     10320     10322
     10314     10317     10320     10323     10315     10314     10317     10318
     10315     10314     10317     10319     10315     10314     10317     10320
     10316     10314     10317     10318     10316     10314     10317     10319
     10316     10314     10317     10320     10317     10320     10323     10324
     10317     10320     10323     10325     10317     10320     10323     10326
     10318     10317     10320     10321     10318     10317     10320     10322
     10318     10317     10320     10323     10319     10317     10320     10321
     10319     10317     10320     10322     10319     10317     10320     10323
     10320     10323     10326     10327     10320     10323     10326     10328
     10320     10323     10326     10329     10321     10320     10323     10324
     10321     10320     10323     10325     10321     10320     10323     10326
     10322     10320     10323     10324     10322     10320     10323     10325
     10322     10320     10323     10326     10323     10326     10329     10330
     10323     10326     10329     10331     10323     10326     10329     10332
     10324     10323     10326     10327     10324     10323     10326     10328
     10324     10323     10326     10329     10325     10323     10326     10327
     10325     10323     10326     10328     10325     10323     10326     10329
     10326     10329     10332     10333     10326     10329     10332     10334
     10326     10329     10332     10335     10327     10326     10329     10330
     10327     10326     10329     10331     10327     10326     10329     10332
     10328     10326     10329     10330     10328     10326     10329     10331
     10328     10326     10329     10332     10329     10332     10335     10336
     10329     10332     10335     10337     10329     10332     10335     10338
     10330     10329     10332     10333     10330     10329     10332     10334
     10330     10329     10332     10335     10331     10329     10332     10333
     10331     10329     10332     10334     10331     10329     10332     10335
     10332     10335     10338     10339     10332     10335     10338     10340
     10332     10335     10338     10341     10333     10332     10335     10336
     10333     10332     10335     10337     10333     10332     10335     10338
     10334     10332     10335     10336     10334     10332     10335     10337
     10334     10332     10335     10338     10335     10338     10341     10342
     10335     10338     10341     10343     10335     10338     10341     10344
     10336     10335     10338     10339     10336     10335     10338     10340
     10336     10335     10338     10341     10337     10335     10338     10339
     10337     10335     10338     10340     10337     10335     10338     10341
     10338     10341     10344     10345     10338     10341     10344     10346
     10338     10341     10344     10347     10339     10338     10341     10342
     10339     10338     10341     10343     10339     10338     10341     10344
     10340     10338     10341     10342     10340     10338     10341     10343
     10340     10338     10341     10344     10341     10344     10347     10348
     10341     10344     10347     10349     10341     10344     10347     10350
     10342     10341     10344     10345     10342     10341     10344     10346
     10342     10341     10344     10347     10343     10341     10344     10345
     10343     10341     10344     10346     10343     10341     10344     10347
     10345     10344     10347     10348     10345     10344     10347     10349
     10345     10344     10347     10350     10346     10344     10347     10348
     10346     10344     10347     10349     10346     10344     10347     10350
      1049      1062      1065      1066      1049      1062      1065      1067
      1049      1062      1065      1072      1050      1049      1054      1055
      1050      1049      1054      1056      1050      1049      1054      1057
      1050      1049      1058      1059      1050      1049      1058      1060
      1050      1049      1058      1061      1050      1049      1062      1063
      1050      1049      1062      1064      1050      1049      1062      1065
      1051      1050      1049      1054      1051      1050      1049      1058
      1051      1050      1049      1062      1052      1050      1049      1054
      1052      1050      1049      1058      1052      1050      1049      1062
      1053      1050      1049      1054      1053      1050      1049      1058
      1053      1050      1049      1062      1054      1049      1058      1059
      1054      1049      1058      1060      1054      1049      1058      1061
      1054      1049      1062      1063      1054      1049      1062      1064
      1054      1049      1062      1065      1055      1054      1049      1058
      1055      1054      1049      1062      1056      1054      1049      1058
      1056      1054      1049      1062      1057      1054      1049      1058
      1057      1054      1049      1062      1058      1049      1062      1063
      1058      1049      1062      1064      1058      1049      1062      1065
      1059      1058      1049      1062      1060      1058      1049      1062
      1061      1058      1049      1062      1062      1065      1072      1068
      1063      1062      1065      1066      1063      1062      1065      1067
      1063      1062      1065      1072      1064      1062      1065      1066
      1064      1062      1065      1067      1064      1062      1065      1072
      1065      1072      1068      1069      1065      1072      1068      1070
      1065      1072      1068      1071      1066      1065      1072      1068
      1067      1065      1072      1068      1068      1071      1073      1074
      1068      1071      1073      1075      1068      1071      1073      1078
      1069      1068      1071      1073      1070      1068      1071      1073
      1071      1073      1078      1076      1071      1073      1078      1079
      1071      1073      1078      1080      1072      1068      1071      1073
      1073      1078      1076      1077      1073      1078      1076      1128
      1073      1078      1080      1081      1073      1078      1080      1082
      1073      1078      1080      1084      1074      1073      1078      1076
      1074      1073      1078      1079      1074      1073      1078      1080
      1075      1073      1078      1076      1075      1073      1078      1079
      1075      1073      1078      1080      1076      1078      1080      1081
      1076      1078      1080      1082      1076      1078      1080      1084
      1076      1128      1130      1131      1076      1128      1130      1132
      1076      1128      1130      1133      1077      1076      1078      1079
      1077      1076      1078      1080      1077      1076      1128      1129
      1077      1076      1128      1130      1078      1076      1128      1129
      1078      1076      1128      1130      1078      1080      1082      1083
      1078      1080      1084      1085      1078      1080      1084      1086
      1079      1078      1076      1128      1079      1078      1080      1081
      1079      1078      1080      1082      1079      1078      1080      1084
      1080      1078      1076      1128      1080      1084      1086      1087
      1080      1084      1086      1088      1081      1080      1082      1083
      1081      1080      1084      1085      1081      1080      1084      1086
      1082      1080      1084      1085      1082      1080      1084      1086
      1083      1082      1080      1084      1084      1086      1088      1089
      1084      1086      1088      1090      1084      1086      1088      1091
      1085      1084      1086      1087      1085      1084      1086      1088
      1086      1088      1091      1092      1086      1088      1091      1093
      1086      1088      1091      1094      1087      1086      1088      1089
      1087      1086      1088      1090      1087      1086      1088      1091
      1088      1091      1094      1095      1088      1091      1094      1096
      1088      1091      1094      1097      1089      1088      1091      1092
      1089      1088      1091      1093      1089      1088      1091      1094
      1090      1088      1091      1092      1090      1088      1091      1093
      1090      1088      1091      1094      1091      1094      1097      1098
      1091      1094      1097      1099      1091      1094      1097      1100
      1092      1091      1094      1095      1092      1091      1094      1096
      1092      1091      1094      1097      1093      1091      1094      1095
      1093      1091      1094      1096      1093      1091      1094      1097
      1094      1097      1100      1101      1094      1097      1100      1102
      1094      1097      1100      1103      1095      1094      1097      1098
      1095      1094      1097      1099      1095      1094      1097      1100
      1096      1094      1097      1098      1096      1094      1097      1099
      1096      1094      1097      1100      1097      1100      1103      1104
      1097      1100      1103      1105      1097      1100      1103      1106
      1098      1097      1100      1101      1098      1097      1100      1102
      1098      1097      1100      1103      1099      1097      1100      1101
      1099      1097      1100      1102      1099      1097      1100      1103
      1100      1103      1106      1107      1100      1103      1106      1108
      1100      1103      1106      1109      1101      1100      1103      1104
      1101      1100      1103      1105      1101      1100      1103      1106
      1102      1100      1103      1104      1102      1100      1103      1105
      1102      1100      1103      1106      1103      1106      1109      1110
      1103      1106      1109      1111      1103      1106      1109      1112
      1104      1103      1106      1107      1104      1103      1106      1108
      1104      1103      1106      1109      1105      1103      1106      1107
      1105      1103      1106      1108      1105      1103      1106      1109
      1106      1109      1112      1113      1106      1109      1112      1114
      1106      1109      1112      1115      1107      1106      1109      1110
      1107      1106      1109      1111      1107      1106      1109      1112
      1108      1106      1109      1110      1108      1106      1109      1111
      1108      1106      1109      1112      1109      1112      1115      1116
      1109      1112      1115      1117      1109      1112      1115      1118
      1110      1109      1112      1113      1110      1109      1112      1114
      1110      1109      1112      1115      1111      1109      1112      1113
      1111      1109      1112      1114      1111      1109      1112      1115
      1112      1115      1118      1119      1112      1115      1118      1120
      1112      1115      1118      1121      1113      1112      1115      1116
      1113      1112      1115      1117      1113      1112      1115      1118
      1114      1112      1115      1116      1114      1112      1115      1117
      1114      1112      1115      1118      1115      1118      1121      1122
      1115      1118      1121      1123      1115      1118      1121      1124
      1116      1115      1118      1119      1116      1115      1118      1120
      1116      1115      1118      1121      1117      1115      1118      1119
      1117      1115      1118      1120      1117      1115      1118      1121
      1118      1121      1124      1125      1118      1121      1124      1126
      1118      1121      1124      1127      1119      1118      1121      1122
      1119      1118      1121      1123      1119      1118      1121      1124
      1120      1118      1121      1122      1120      1118      1121      1123
      1120      1118      1121      1124      1122      1121      1124      1125
      1122      1121      1124      1126      1122      1121      1124      1127
      1123      1121      1124      1125      1123      1121      1124      1126
      1123      1121      1124      1127      1128      1130      1133      1134
      1128      1130      1133      1135      1128      1130      1133      1136
      1129      1128      1130      1131      1129      1128      1130      1132
      1129      1128      1130      1133      1130      1133      1136      1137
      1130      1133      1136      1138      1130      1133      1136      1139
      1131      1130      1133      1134      1131      1130      1133      1135
      1131      1130      1133      1136      1132      1130      1133      1134
      1132      1130      1133      1135      1132      1130      1133      1136
      1133      1136      1139      1140      1133      1136      1139      1141
      1133      1136      1139      1142      1134      1133      1136      1137
      1134      1133      1136      1138      1134      1133      1136      1139
      1135      1133      1136      1137      1135      1133      1136      1138
      1135      1133      1136      1139      1136      1139      1142      1143
      1136      1139      1142      1144      1136      1139      1142      1145
      1137      1136      1139      1140      1137      1136      1139      1141
      1137      1136      1139      1142      1138      1136      1139      1140
      1138      1136      1139      1141      1138      1136      1139      1142
      1139      1142      1145      1146      1139      1142      1145      1147
      1139      1142      1145      1148      1140      1139      1142      1143
      1140      1139      1142      1144      1140      1139      1142      1145
      1141      1139      1142      1143      1141      1139      1142      1144
      1141      1139      1142      1145      1142      1145      1148      1149
      1142      1145      1148      1150      1142      1145      1148      1151
      1143      1142      1145      1146      1143      1142      1145      1147
      1143      1142      1145      1148      1144      1142      1145      1146
      1144      1142      1145      1147      1144      1142      1145      1148
      1145      1148      1151      1152      1145      1148      1151      1153
      1146      1145      1148      1149      1146      1145      1148      1150
      1146      1145      1148      1151      1147      1145      1148      1149
      1147      1145      1148      1150      1147      1145      1148      1151
      1148      1151      1153      1154      1148      1151      1153      1155
      1149      1148      1151      1152      1149      1148      1151      1153
      1150      1148      1151      1152      1150      1148      1151      1153
      1151      1153      1155      1156      1151      1153      1155      1157
      1151      1153      1155      1158      1152      1151      1153      1154
      1152      1151      1153      1155      1153      1155      1158      1159
      1153      1155      1158      1160      1153      1155      1158      1161
      1154      1153      1155      1156      1154      1153      1155      1157
      1154      1153      1155      1158      1155      1158      1161      1162
      1155      1158      1161      1163      1155      1158      1161      1164
      1156      1155      1158      1159      1156      1155      1158      1160
      1156      1155      1158      1161      1157      1155      1158      1159
      1157      1155      1158      1160      1157      1155      1158      1161
      1158      1161      1164      1165      1158      1161      1164      1166
      1158      1161      1164      1167      1159      1158      1161      1162
      1159      1158      1161      1163      1159      1158      1161      1164
      1160      1158      1161      1162      1160      1158      1161      1163
      1160      1158      1161      1164      1161      1164      1167      1168
      1161      1164      1167      1169      1161      1164      1167      1170
      1162      1161      1164      1165      1162      1161      1164      1166
      1162      1161      1164      1167      1163      1161      1164      1165
      1163      1161      1164      1166      1163      1161      1164      1167
      1164      1167      1170      1171      1164      1167      1170      1172
      1164      1167      1170      1173      1165      1164      1167      1168
      1165      1164      1167      1169      1165      1164      1167      1170
      1166      1164      1167      1168      1166      1164      1167      1169
      1166      1164      1167      1170      1167      1170      1173      1174
      1167      1170      1173      1175      1167      1170      1173      1176
      1168      1167      1170      1171      1168      1167      1170      1172
      1168      1167      1170      1173      1169      1167      1170      1171
      1169      1167      1170      1172      1169      1167      1170      1173
      1170      1173      1176      1177      1170      1173      1176      1178
      1170      1173      1176      1179      1171      1170      1173      1174
      1171      1170      1173      1175      1171      1170      1173      1176
      1172      1170      1173      1174      1172      1170      1173      1175
      1172      1170      1173      1176      1174      1173      1176      1177
      1174      1173      1176      1178      1174      1173      1176      1179
      1175      1173      1176      1177      1175      1173      1176      1178
      1175      1173      1176      1179      5849      5853      5856      5857
      5849      5853      5856      5887      5849      5895      5892      5887
      5849      5895      5892      5893      5849      5895      5892      5894
      5850      5849      5851      5852      5850      5849      5853      5854
      5850      5849      5853      5855      5850      5849      5853      5856
      5850      5849      5895      5892      5850      5849      5895      5896
      5850      5849      5895      5897      5851      5849      5853      5854
      5851      5849      5853      5855      5851      5849      5853      5856
      5851      5849      5895      5892      5851      5849      5895      5896
      5851      5849      5895      5897      5852      5851      5849      5853
      5852      5851      5849      5895      5853      5849      5895      5892
      5853      5849      5895      5896      5853      5849      5895      5897
      5853      5856      5857      5858      5853      5856      5857      5859
      5853      5856      5887      5885      5853      5856      5887      5888
      5853      5856      5887      5892      5854      5853      5849      5895
      5854      5853      5856      5857      5854      5853      5856      5887
      5855      5853      5849      5895      5855      5853      5856      5857
      5855      5853      5856      5887      5856      5853      5849      5895
      5856      5857      5859      5860      5856      5857      5859      5861
      5856      5857      5859      5862      5856      5887      5885      5862
      5856      5887      5885      5882      5856      5887      5885      5886
      5856      5887      5888      5889      5856      5887      5888      5890
      5856      5887      5888      5891      5856      5887      5892      5893
      5856      5887      5892      5894      5856      5887      5892      5895
      5857      5856      5887      5885      5857      5856      5887      5888
      5857      5856      5887      5892      5857      5859      5862      5863
      5857      5859      5862      5864      5857      5859      5862      5885
      5858      5857      5856      5887      5858      5857      5859      5860
      5858      5857      5859      5861      5858      5857      5859      5862
      5859      5857      5856      5887      5859      5862      5864      5865
      5859      5862      5864      5866      5859      5862      5864      5874
      5859      5862      5885      5882      5859      5862      5885      5886
      5859      5862      5885      5887      5860      5859      5862      5863
      5860      5859      5862      5864      5860      5859      5862      5885
      5861      5859      5862      5863      5861      5859      5862      5864
      5861      5859      5862      5885      5862      5864      5866      5867
      5862      5864      5866      5868      5862      5864      5866      5869
      5862      5864      5874      5872      5862      5864      5874      5875
      5862      5864      5874      5879      5862      5885      5882      5879
      5862      5885      5882      5883      5862      5885      5882      5884
      5862      5885      5887      5888      5862      5885      5887      5892
      5863      5862      5864      5865      5863      5862      5864      5866
      5863      5862      5864      5874      5863      5862      5885      5882
      5863      5862      5885      5886      5863      5862      5885      5887
      5864      5862      5885      5882      5864      5862      5885      5886
      5864      5862      5885      5887      5864      5866      5869      5870
      5864      5866      5869      5871      5864      5866      5869      5872
      5864      5874      5872      5869      5864      5874      5872      5873
      5864      5874      5872      5898      5864      5874      5875      5876
      5864      5874      5875      5877      5864      5874      5875      5878
      5864      5874      5879      5880      5864      5874      5879      5881
      5864      5874      5879      5882      5865      5864      5862      5885
      5865      5864      5866      5867      5865      5864      5866      5868
      5865      5864      5866      5869      5865      5864      5874      5872
      5865      5864      5874      5875      5865      5864      5874      5879
      5866      5864      5862      5885      5866      5864      5874      5872
      5866      5864      5874      5875      5866      5864      5874      5879
      5866      5869      5872      5873      5866      5869      5872      5874
      5866      5869      5872      5898      5867      5866      5864      5874
      5867      5866      5869      5870      5867      5866      5869      5871
      5867      5866      5869      5872      5868      5866      5864      5874
      5868      5866      5869      5870      5868      5866      5869      5871
      5868      5866      5869      5872      5869      5866      5864      5874
      5869      5872      5874      5875      5869      5872      5874      5879
      5869      5872      5898      5899      5869      5872      5898      5900
      5869      5872      5898      5904      5870      5869      5872      5873
      5870      5869      5872      5874      5870      5869      5872      5898
      5871      5869      5872      5873      5871      5869      5872      5874
      5871      5869      5872      5898      5872      5874      5875      5876
      5872      5874      5875      5877      5872      5874      5875      5878
      5872      5874      5879      5880      5872      5874      5879      5881
      5872      5874      5879      5882      5872      5898      5900      5901
      5872      5898      5900      5902      5872      5898      5900      5903
      5872      5898      5904      5905      5872      5898      5904      5906
      5872      5898      5904      5907      5873      5872      5874      5875
      5873      5872      5874      5879      5873      5872      5898      5899
      5873      5872      5898      5900      5873      5872      5898      5904
      5874      5864      5862      5885      5874      5872      5898      5899
      5874      5872      5898      5900      5874      5872      5898      5904
      5874      5879      5882      5883      5874      5879      5882      5884
      5874      5879      5882      5885      5875      5874      5872      5898
      5875      5874      5879      5880      5875      5874      5879      5881
      5875      5874      5879      5882      5876      5875      5874      5879
      5877      5875      5874      5879      5878      5875      5874      5879
      5879      5874      5872      5898      5879      5882      5885      5886
      5879      5882      5885      5887      5880      5879      5882      5883
      5880      5879      5882      5884      5880      5879      5882      5885
      5881      5879      5882      5883      5881      5879      5882      5884
      5881      5879      5882      5885      5882      5885      5887      5888
      5882      5885      5887      5892      5883      5882      5885      5886
      5883      5882      5885      5887      5884      5882      5885      5886
      5884      5882      5885      5887      5885      5887      5888      5889
      5885      5887      5888      5890      5885      5887      5888      5891
      5885      5887      5892      5893      5885      5887      5892      5894
      5885      5887      5892      5895      5886      5885      5887      5888
      5886      5885      5887      5892      5887      5892      5895      5896
      5887      5892      5895      5897      5888      5887      5892      5893
      5888      5887      5892      5894      5888      5887      5892      5895
      5889      5888      5887      5892      5890      5888      5887      5892
      5891      5888      5887      5892      5893      5892      5895      5896
      5893      5892      5895      5897      5894      5892      5895      5896
      5894      5892      5895      5897      5898      5904      5907      5908
      5898      5904      5907      5909      5898      5904      5907      5910
      5899      5898      5900      5901      5899      5898      5900      5902
      5899      5898      5900      5903      5899      5898      5904      5905
      5899      5898      5904      5906      5899      5898      5904      5907
      5900      5898      5904      5905      5900      5898      5904      5906
      5900      5898      5904      5907      5901      5900      5898      5904
      5902      5900      5898      5904      5903      5900      5898      5904
      5904      5907      5910      5911      5904      5907      5910      5912
      5904      5907      5910      5913      5905      5904      5907      5908
      5905      5904      5907      5909      5905      5904      5907      5910
      5906      5904      5907      5908      5906      5904      5907      5909
      5906      5904      5907      5910      5907      5910      5913      5914
      5907      5910      5913      5915      5907      5910      5913      5919
      5908      5907      5910      5911      5908      5907      5910      5912
      5908      5907      5910      5913      5909      5907      5910      5911
      5909      5907      5910      5912      5909      5907      5910      5913
      5910      5913      5915      5916      5910      5913      5915      5917
      5910      5913      5915      5918      5910      5913      5919      5920
      5910      5913      5919      5921      5910      5913      5919      5922
      5911      5910      5913      5914      5911      5910      5913      5915
      5911      5910      5913      5919      5912      5910      5913      5914
      5912      5910      5913      5915      5912      5910      5913      5919
      5914      5913      5915      5916      5914      5913      5915      5917
      5914      5913      5915      5918      5914      5913      5919      5920
      5914      5913      5919      5921      5914      5913      5919      5922
      5915      5913      5919      5920      5915      5913      5919      5921
      5915      5913      5919      5922      5916      5915      5913      5919
      5917      5915      5913      5919      5918      5915      5913      5919
      4078      4082      4085      4086      4078      4082      4085      4087
      4078      4082      4085      4091      4079      4078      4082      4083
      4079      4078      4082      4084      4079      4078      4082      4085
      4080      4078      4082      4083      4080      4078      4082      4084
      4080      4078      4082      4085      4081      4078      4082      4083
      4081      4078      4082      4084      4081      4078      4082      4085
      4082      4085      4091      4088      4083      4082      4085      4086
      4083      4082      4085      4087      4083      4082      4085      4091
      4084      4082      4085      4086      4084      4082      4085      4087
      4084      4082      4085      4091      4085      4091      4088      4089
      4085      4091      4088      4090      4085      4091      4088      4092
      4086      4085      4091      4088      4087      4085      4091      4088
      4088      4092      4093      4094      4088      4092      4093      4095
      4088      4092      4093      4096      4089      4088      4092      4093
      4090      4088      4092      4093      4091      4088      4092      4093
      4092      4093      4096      4097      4092      4093      4096      4098
      4092      4093      4096      4104      4093      4096      4098      4099
      4093      4096      4104      4105      4093      4096      4104      4106
      4093      4096      4104      4107      4094      4093      4096      4097
      4094      4093      4096      4098      4094      4093      4096      4104
      4095      4093      4096      4097      4095      4093      4096      4098
      4095      4093      4096      4104      4096      4098      4099      4100
      4096      4098      4099      4101      4096      4104      4107      4108
      4097      4096      4098      4099      4097      4096      4104      4105
      4097      4096      4104      4106      4097      4096      4104      4107
      4098      4096      4104      4105      4098      4096      4104      4106
      4098      4096      4104      4107      4098      4099      4101      4102
      4098      4099      4101      4103      4098      4099      4101      4113
      4099      4098      4096      4104      4099      4101      4113      4114
      4099      4101      4113      4115      4099      4101      4113      4116
      4100      4099      4101      4102      4100      4099      4101      4103
      4100      4099      4101      4113      4101      4113      4116      4117
      4101      4113      4116      4118      4101      4113      4116      4119
      4102      4101      4113      4114      4102      4101      4113      4115
      4102      4101      4113      4116      4103      4101      4113      4114
      4103      4101      4113      4115      4103      4101      4113      4116
      4104      4107      4108      4109      4104      4107      4108      4110
      4105      4104      4107      4108      4106      4104      4107      4108
      4107      4108      4110      4111      4107      4108      4110      4112
      4107      4108      4110      4160      4108      4110      4160      4161
      4108      4110      4160      4162      4108      4110      4160      4163
      4109      4108      4110      4111      4109      4108      4110      4112
      4109      4108      4110      4160      4110      4160      4163      4164
      4110      4160      4163      4165      4110      4160      4163      4166
      4111      4110      4160      4161      4111      4110      4160      4162
      4111      4110      4160      4163      4112      4110      4160      4161
      4112      4110      4160      4162      4112      4110      4160      4163
      4113      4116      4119      4120      4113      4116      4119      4121
      4114      4113      4116      4117      4114      4113      4116      4118
      4114      4113      4116      4119      4115      4113      4116      4117
      4115      4113      4116      4118      4115      4113      4116      4119
      4116      4119      4121      4122      4116      4119      4121      4123
      4117      4116      4119      4120      4117      4116      4119      4121
      4118      4116      4119      4120      4118      4116      4119      4121
      4119      4121      4123      4124      4119      4121      4123      4125
      4119      4121      4123      4126      4120      4119      4121      4122
      4120      4119      4121      4123      4121      4123      4126      4127
      4121      4123      4126      4128      4122      4121      4123      4124
      4122      4121      4123      4125      4122      4121      4123      4126
      4123      4126      4128      4129      4123      4126      4128      4130
      4124      4123      4126      4127      4124      4123      4126      4128
      4125      4123      4126      4127      4125      4123      4126      4128
      4126      4128      4130      4131      4126      4128      4130      4132
      4126      4128      4130      4133      4127      4126      4128      4129
      4127      4126      4128      4130      4128      4130      4133      4134
      4128      4130      4133      4135      4129      4128      4130      4131
      4129      4128      4130      4132      4129      4128      4130      4133
      4130      4133      4135      4136      4130      4133      4135      4137
      4131      4130      4133      4134      4131      4130      4133      4135
      4132      4130      4133      4134      4132      4130      4133      4135
      4133      4135      4137      4138      4133      4135      4137      4139
      4133      4135      4137      4140      4134      4133      4135      4136
      4134      4133      4135      4137      4135      4137      4140      4141
      4135      4137      4140      4142      4136      4135      4137      4138
      4136      4135      4137      4139      4136      4135      4137      4140
      4137      4140      4142      4143      4137      4140      4142      4144
      4138      4137      4140      4141      4138      4137      4140      4142
      4139      4137      4140      4141      4139      4137      4140      4142
      4140      4142      4144      4145      4140      4142      4144      4146
      4140      4142      4144      4147      4141      4140      4142      4143
      4141      4140      4142      4144      4142      4144      4147      4148
      4142      4144      4147      4149      4142      4144      4147      4150
      4143      4142      4144      4145      4143      4142      4144      4146
      4143      4142      4144      4147      4144      4147      4150      4151
      4144      4147      4150      4152      4144      4147      4150      4153
      4145      4144      4147      4148      4145      4144      4147      4149
      4145      4144      4147      4150      4146      4144      4147      4148
      4146      4144      4147      4149      4146      4144      4147      4150
      4147      4150      4153      4154      4147      4150      4153      4155
      4147      4150      4153      4156      4148      4147      4150      4151
      4148      4147      4150      4152      4148      4147      4150      4153
      4149      4147      4150      4151      4149      4147      4150      4152
      4149      4147      4150      4153      4150      4153      4156      4157
      4150      4153      4156      4158      4150      4153      4156      4159
      4151      4150      4153      4154      4151      4150      4153      4155
      4151      4150      4153      4156      4152      4150      4153      4154
      4152      4150      4153      4155      4152      4150      4153      4156
      4154      4153      4156      4157      4154      4153      4156      4158
      4154      4153      4156      4159      4155      4153      4156      4157
      4155      4153      4156      4158      4155      4153      4156      4159
      4160      4163      4166      4167      4160      4163      4166      4168
      4160      4163      4166      4169      4161      4160      4163      4164
      4161      4160      4163      4165      4161      4160      4163      4166
      4162      4160      4163      4164      4162      4160      4163      4165
      4162      4160      4163      4166      4163      4166      4169      4170
      4163      4166      4169      4171      4163      4166      4169      4172
      4164      4163      4166      4167      4164      4163      4166      4168
      4164      4163      4166      4169      4165      4163      4166      4167
      4165      4163      4166      4168      4165      4163      4166      4169
      4166      4169      4172      4173      4166      4169      4172      4174
      4166      4169      4172      4175      4167      4166      4169      4170
      4167      4166      4169      4171      4167      4166      4169      4172
      4168      4166      4169      4170      4168      4166      4169      4171
      4168      4166      4169      4172      4169      4172      4175      4176
      4169      4172      4175      4177      4169      4172      4175      4178
      4170      4169      4172      4173      4170      4169      4172      4174
      4170      4169      4172      4175      4171      4169      4172      4173
      4171      4169      4172      4174      4171      4169      4172      4175
      4172      4175      4178      4179      4172      4175      4178      4180
      4172      4175      4178      4181      4173      4172      4175      4176
      4173      4172      4175      4177      4173      4172      4175      4178
      4174      4172      4175      4176      4174      4172      4175      4177
      4174      4172      4175      4178      4175      4178      4181      4182
      4175      4178      4181      4183      4175      4178      4181      4184
      4176      4175      4178      4179      4176      4175      4178      4180
      4176      4175      4178      4181      4177      4175      4178      4179
      4177      4175      4178      4180      4177      4175      4178      4181
      4178      4181      4184      4185      4178      4181      4184      4186
      4178      4181      4184      4187      4179      4178      4181      4182
      4179      4178      4181      4183      4179      4178      4181      4184
      4180      4178      4181      4182      4180      4178      4181      4183
      4180      4178      4181      4184      4181      4184      4187      4188
      4181      4184      4187      4189      4181      4184      4187      4190
      4182      4181      4184      4185      4182      4181      4184      4186
      4182      4181      4184      4187      4183      4181      4184      4185
      4183      4181      4184      4186      4183      4181      4184      4187
      4184      4187      4190      4191      4184      4187      4190      4192
      4184      4187      4190      4193      4185      4184      4187      4188
      4185      4184      4187      4189      4185      4184      4187      4190
      4186      4184      4187      4188      4186      4184      4187      4189
      4186      4184      4187      4190      4187      4190      4193      4194
      4187      4190      4193      4195      4187      4190      4193      4196
      4188      4187      4190      4191      4188      4187      4190      4192
      4188      4187      4190      4193      4189      4187      4190      4191
      4189      4187      4190      4192      4189      4187      4190      4193
      4190      4193      4196      4197      4190      4193      4196      4198
      4190      4193      4196      4199      4191      4190      4193      4194
      4191      4190      4193      4195      4191      4190      4193      4196
      4192      4190      4193      4194      4192      4190      4193      4195
      4192      4190      4193      4196      4193      4196      4199      4200
      4193      4196      4199      4201      4193      4196      4199      4202
      4194      4193      4196      4197      4194      4193      4196      4198
      4194      4193      4196      4199      4195      4193      4196      4197
      4195      4193      4196      4198      4195      4193      4196      4199
      4196      4199      4202      4203      4196      4199      4202      4204
      4196      4199      4202      4205      4197      4196      4199      4200
      4197      4196      4199      4201      4197      4196      4199      4202
      4198      4196      4199      4200      4198      4196      4199      4201
      4198      4196      4199      4202      4199      4202      4205      4206
      4199      4202      4205      4207      4199      4202      4205      4208
      4200      4199      4202      4203      4200      4199      4202      4204
      4200      4199      4202      4205      4201      4199      4202      4203
      4201      4199      4202      4204      4201      4199      4202      4205
      4203      4202      4205      4206      4203      4202      4205      4207
      4203      4202      4205      4208      4204      4202      4205      4206
      4204      4202      4205      4207      4204      4202      4205      4208
      2625      2629      2631      2632      2625      2629      2631      2633
      2625      2629      2634      2635      2625      2629      2634      2636
      2625      2629      2634      2640      2626      2625      2629      2630
      2626      2625      2629      2631      2626      2625      2629      2634
      2627      2625      2629      2630      2627      2625      2629      2631
      2627      2625      2629      2634      2628      2625      2629      2630
      2628      2625      2629      2631      2628      2625      2629      2634
      2629      2634      2640      2637      2630      2629      2631      2632
      2630      2629      2631      2633      2630      2629      2634      2635
      2630      2629      2634      2636      2630      2629      2634      2640
      2631      2629      2634      2635      2631      2629      2634      2636
      2631      2629      2634      2640      2632      2631      2629      2634
      2633      2631      2629      2634      2634      2640      2637      2638
      2634      2640      2637      2639      2634      2640      2637      2641
      2635      2634      2640      2637      2636      2634      2640      2637
      2637      2641      2642      2643      2637      2641      2642      2644
      2637      2641      2642      2645      2638      2637      2641      2642
      2639      2637      2641      2642      2640      2637      2641      2642
      2641      2642      2645      2646      2641      2642      2645      2647
      2641      2642      2645      2653      2642      2645      2647      2648
      2642      2645      2653      2654      2642      2645      2653      2655
      2642      2645      2653      2656      2643      2642      2645      2646
      2643      2642      2645      2647      2643      2642      2645      2653
      2644      2642      2645      2646      2644      2642      2645      2647
      2644      2642      2645      2653      2645      2647      2648      2649
      2645      2647      2648      2650      2645      2653      2656      2657
      2646      2645      2647      2648      2646      2645      2653      2654
      2646      2645      2653      2655      2646      2645      2653      2656
      2647      2645      2653      2654      2647      2645      2653      2655
      2647      2645      2653      2656      2647      2648      2650      2651
      2647      2648      2650      2652      2647      2648      2650      2662
      2648      2647      2645      2653      2648      2650      2662      2663
      2648      2650      2662      2664      2648      2650      2662      2665
      2649      2648      2650      2651      2649      2648      2650      2652
      2649      2648      2650      2662      2650      2662      2665      2666
      2650      2662      2665      2667      2650      2662      2665      2668
      2651      2650      2662      2663      2651      2650      2662      2664
      2651      2650      2662      2665      2652      2650      2662      2663
      2652      2650      2662      2664      2652      2650      2662      2665
      2653      2656      2657      2658      2653      2656      2657      2659
      2654      2653      2656      2657      2655      2653      2656      2657
      2656      2657      2659      2660      2656      2657      2659      2661
      2656      2657      2659      2709      2657      2659      2709      2710
      2657      2659      2709      2711      2657      2659      2709      2712
      2658      2657      2659      2660      2658      2657      2659      2661
      2658      2657      2659      2709      2659      2709      2712      2713
      2659      2709      2712      2714      2659      2709      2712      2715
      2660      2659      2709      2710      2660      2659      2709      2711
      2660      2659      2709      2712      2661      2659      2709      2710
      2661      2659      2709      2711      2661      2659      2709      2712
      2662      2665      2668      2669      2662      2665      2668      2670
      2663      2662      2665      2666      2663      2662      2665      2667
      2663      2662      2665      2668      2664      2662      2665      2666
      2664      2662      2665      2667      2664      2662      2665      2668
      2665      2668      2670      2671      2665      2668      2670      2672
      2666      2665      2668      2669      2666      2665      2668      2670
      2667      2665      2668      2669      2667      2665      2668      2670
      2668      2670      2672      2673      2668      2670      2672      2674
      2668      2670      2672      2675      2669      2668      2670      2671
      2669      2668      2670      2672      2670      2672      2675      2676
      2670      2672      2675      2677      2671      2670      2672      2673
      2671      2670      2672      2674      2671      2670      2672      2675
      2672      2675      2677      2678      2672      2675      2677      2679
      2673      2672      2675      2676      2673      2672      2675      2677
      2674      2672      2675      2676      2674      2672      2675      2677
      2675      2677      2679      2680      2675      2677      2679      2681
      2675      2677      2679      2682      2676      2675      2677      2678
      2676      2675      2677      2679      2677      2679      2682      2683
      2677      2679      2682      2684      2678      2677      2679      2680
      2678      2677      2679      2681      2678      2677      2679      2682
      2679      2682      2684      2685      2679      2682      2684      2686
      2680      2679      2682      2683      2680      2679      2682      2684
      2681      2679      2682      2683      2681      2679      2682      2684
      2682      2684      2686      2687      2682      2684      2686      2688
      2682      2684      2686      2689      2683      2682      2684      2685
      2683      2682      2684      2686      2684      2686      2689      2690
      2684      2686      2689      2691      2685      2684      2686      2687
      2685      2684      2686      2688      2685      2684      2686      2689
      2686      2689      2691      2692      2686      2689      2691      2693
      2687      2686      2689      2690      2687      2686      2689      2691
      2688      2686      2689      2690      2688      2686      2689      2691
      2689      2691      2693      2694      2689      2691      2693      2695
      2689      2691      2693      2696      2690      2689      2691      2692
      2690      2689      2691      2693      2691      2693      2696      2697
      2691      2693      2696      2698      2691      2693      2696      2699
      2692      2691      2693      2694      2692      2691      2693      2695
      2692      2691      2693      2696      2693      2696      2699      2700
      2693      2696      2699      2701      2693      2696      2699      2702
      2694      2693      2696      2697      2694      2693      2696      2698
      2694      2693      2696      2699      2695      2693      2696      2697
      2695      2693      2696      2698      2695      2693      2696      2699
      2696      2699      2702      2703      2696      2699      2702      2704
      2696      2699      2702      2705      2697      2696      2699      2700
      2697      2696      2699      2701      2697      2696      2699      2702
      2698      2696      2699      2700      2698      2696      2699      2701
      2698      2696      2699      2702      2699      2702      2705      2706
      2699      2702      2705      2707      2699      2702      2705      2708
      2700      2699      2702      2703      2700      2699      2702      2704
      2700      2699      2702      2705      2701      2699      2702      2703
      2701      2699      2702      2704      2701      2699      2702      2705
      2703      2702      2705      2706      2703      2702      2705      2707
      2703      2702      2705      2708      2704      2702      2705      2706
      2704      2702      2705      2707      2704      2702      2705      2708
      2709      2712      2715      2716      2709      2712      2715      2717
      2709      2712      2715      2718      2710      2709      2712      2713
      2710      2709      2712      2714      2710      2709      2712      2715
      2711      2709      2712      2713      2711      2709      2712      2714
      2711      2709      2712      2715      2712      2715      2718      2719
      2712      2715      2718      2720      2712      2715      2718      2721
      2713      2712      2715      2716      2713      2712      2715      2717
      2713      2712      2715      2718      2714      2712      2715      2716
      2714      2712      2715      2717      2714      2712      2715      2718
      2715      2718      2721      2722      2715      2718      2721      2723
      2715      2718      2721      2724      2716      2715      2718      2719
      2716      2715      2718      2720      2716      2715      2718      2721
      2717      2715      2718      2719      2717      2715      2718      2720
      2717      2715      2718      2721      2718      2721      2724      2725
      2718      2721      2724      2726      2718      2721      2724      2727
      2719      2718      2721      2722      2719      2718      2721      2723
      2719      2718      2721      2724      2720      2718      2721      2722
      2720      2718      2721      2723      2720      2718      2721      2724
      2721      2724      2727      2728      2721      2724      2727      2729
      2721      2724      2727      2730      2722      2721      2724      2725
      2722      2721      2724      2726      2722      2721      2724      2727
      2723      2721      2724      2725      2723      2721      2724      2726
      2723      2721      2724      2727      2724      2727      2730      2731
      2724      2727      2730      2732      2724      2727      2730      2733
      2725      2724      2727      2728      2725      2724      2727      2729
      2725      2724      2727      2730      2726      2724      2727      2728
      2726      2724      2727      2729      2726      2724      2727      2730
      2727      2730      2733      2734      2727      2730      2733      2735
      2727      2730      2733      2736      2728      2727      2730      2731
      2728      2727      2730      2732      2728      2727      2730      2733
      2729      2727      2730      2731      2729      2727      2730      2732
      2729      2727      2730      2733      2730      2733      2736      2737
      2730      2733      2736      2738      2730      2733      2736      2739
      2731      2730      2733      2734      2731      2730      2733      2735
      2731      2730      2733      2736      2732      2730      2733      2734
      2732      2730      2733      2735      2732      2730      2733      2736
      2733      2736      2739      2740      2733      2736      2739      2741
      2733      2736      2739      2742      2734      2733      2736      2737
      2734      2733      2736      2738      2734      2733      2736      2739
      2735      2733      2736      2737      2735      2733      2736      2738
      2735      2733      2736      2739      2736      2739      2742      2743
      2736      2739      2742      2744      2736      2739      2742      2745
      2737      2736      2739      2740      2737      2736      2739      2741
      2737      2736      2739      2742      2738      2736      2739      2740
      2738      2736      2739      2741      2738      2736      2739      2742
      2739      2742      2745      2746      2739      2742      2745      2747
      2739      2742      2745      2748      2740      2739      2742      2743
      2740      2739      2742      2744      2740      2739      2742      2745
      2741      2739      2742      2743      2741      2739      2742      2744
      2741      2739      2742      2745      2742      2745      2748      2749
      2742      2745      2748      2750      2742      2745      2748      2751
      2743      2742      2745      2746      2743      2742      2745      2747
      2743      2742      2745      2748      2744      2742      2745      2746
      2744      2742      2745      2747      2744      2742      2745      2748
      2745      2748      2751      2752      2745      2748      2751      2753
      2745      2748      2751      2754      2746      2745      2748      2749
      2746      2745      2748      2750      2746      2745      2748      2751
      2747      2745      2748      2749      2747      2745      2748      2750
      2747      2745      2748      2751      2748      2751      2754      2755
      2748      2751      2754      2756      2748      2751      2754      2757
      2749      2748      2751      2752      2749      2748      2751      2753
      2749      2748      2751      2754      2750      2748      2751      2752
      2750      2748      2751      2753      2750      2748      2751      2754
      2752      2751      2754      2755      2752      2751      2754      2756
      2752      2751      2754      2757      2753      2751      2754      2755
      2753      2751      2754      2756      2753      2751      2754      2757
      8713      8714      8729      8730      8713      8714      8729      8731
      8713      8714      8729      8735      8714      8713      8717      8718
      8714      8713      8717      8719      8714      8713      8717      8720
      8714      8713      8721      8722      8714      8713      8721      8723
      8714      8713      8721      8724      8714      8713      8725      8726
      8714      8713      8725      8727      8714      8713      8725      8728
      8714      8729      8735      8732      8715      8714      8713      8717
      8715      8714      8713      8721      8715      8714      8713      8725
      8715      8714      8729      8730      8715      8714      8729      8731
      8715      8714      8729      8735      8716      8714      8713      8717
      8716      8714      8713      8721      8716      8714      8713      8725
      8716      8714      8729      8730      8716      8714      8729      8731
      8716      8714      8729      8735      8717      8713      8714      8729
      8717      8713      8721      8722      8717      8713      8721      8723
      8717      8713      8721      8724      8717      8713      8725      8726
      8717      8713      8725      8727      8717      8713      8725      8728
      8718      8717      8713      8721      8718      8717      8713      8725
      8719      8717      8713      8721      8719      8717      8713      8725
      8720      8717      8713      8721      8720      8717      8713      8725
      8721      8713      8714      8729      8721      8713      8725      8726
      8721      8713      8725      8727      8721      8713      8725      8728
      8722      8721      8713      8725      8723      8721      8713      8725
      8724      8721      8713      8725      8725      8713      8714      8729
      8729      8735      8732      8733      8729      8735      8732      8734
      8729      8735      8732      8736      8730      8729      8735      8732
      8731      8729      8735      8732      8732      8736      8737      8738
      8732      8736      8737      8739      8732      8736      8737      8740
      8733      8732      8736      8737      8734      8732      8736      8737
      8735      8732      8736      8737      8736      8737      8740      8741
      8736      8737      8740      8742      8736      8737      8740      8748
      8737      8740      8742      8743      8737      8740      8748      8749
      8737      8740      8748      8750      8737      8740      8748      8751
      8738      8737      8740      8741      8738      8737      8740      8742
      8738      8737      8740      8748      8739      8737      8740      8741
      8739      8737      8740      8742      8739      8737      8740      8748
      8740      8742      8743      8744      8740      8742      8743      8745
      8740      8748      8751      8752      8741      8740      8742      8743
      8741      8740      8748      8749      8741      8740      8748      8750
      8741      8740      8748      8751      8742      8740      8748      8749
      8742      8740      8748      8750      8742      8740      8748      8751
      8742      8743      8745      8746      8742      8743      8745      8747
      8742      8743      8745      8757      8743      8742      8740      8748
      8743      8745      8757      8758      8743      8745      8757      8759
      8743      8745      8757      8760      8744      8743      8745      8746
      8744      8743      8745      8747      8744      8743      8745      8757
      8745      8757      8760      8761      8745      8757      8760      8762
      8745      8757      8760      8763      8746      8745      8757      8758
      8746      8745      8757      8759      8746      8745      8757      8760
      8747      8745      8757      8758      8747      8745      8757      8759
      8747      8745      8757      8760      8748      8751      8752      8753
      8748      8751      8752      8754      8749      8748      8751      8752
      8750      8748      8751      8752      8751      8752      8754      8755
      8751      8752      8754      8756      8751      8752      8754      8804
      8752      8754      8804      8805      8752      8754      8804      8806
      8752      8754      8804      8807      8753      8752      8754      8755
      8753      8752      8754      8756      8753      8752      8754      8804
      8754      8804      8807      8808      8754      8804      8807      8809
      8754      8804      8807      8810      8755      8754      8804      8805
      8755      8754      8804      8806      8755      8754      8804      8807
      8756      8754      8804      8805      8756      8754      8804      8806
      8756      8754      8804      8807      8757      8760      8763      8764
      8757      8760      8763      8765      8758      8757      8760      8761
      8758      8757      8760      8762      8758      8757      8760      8763
      8759      8757      8760      8761      8759      8757      8760      8762
      8759      8757      8760      8763      8760      8763      8765      8766
      8760      8763      8765      8767      8761      8760      8763      8764
      8761      8760      8763      8765      8762      8760      8763      8764
      8762      8760      8763      8765      8763      8765      8767      8768
      8763      8765      8767      8769      8763      8765      8767      8770
      8764      8763      8765      8766      8764      8763      8765      8767
      8765      8767      8770      8771      8765      8767      8770      8772
      8766      8765      8767      8768      8766      8765      8767      8769
      8766      8765      8767      8770      8767      8770      8772      8773
      8767      8770      8772      8774      8768      8767      8770      8771
      8768      8767      8770      8772      8769      8767      8770      8771
      8769      8767      8770      8772      8770      8772      8774      8775
      8770      8772      8774      8776      8770      8772      8774      8777
      8771      8770      8772      8773      8771      8770      8772      8774
      8772      8774      8777      8778      8772      8774      8777      8779
      8773      8772      8774      8775      8773      8772      8774      8776
      8773      8772      8774      8777      8774      8777      8779      8780
      8774      8777      8779      8781      8775      8774      8777      8778
      8775      8774      8777      8779      8776      8774      8777      8778
      8776      8774      8777      8779      8777      8779      8781      8782
      8777      8779      8781      8783      8777      8779      8781      8784
      8778      8777      8779      8780      8778      8777      8779      8781
      8779      8781      8784      8785      8779      8781      8784      8786
      8780      8779      8781      8782      8780      8779      8781      8783
      8780      8779      8781      8784      8781      8784      8786      8787
      8781      8784      8786      8788      8782      8781      8784      8785
      8782      8781      8784      8786      8783      8781      8784      8785
      8783      8781      8784      8786      8784      8786      8788      8789
      8784      8786      8788      8790      8784      8786      8788      8791
      8785      8784      8786      8787      8785      8784      8786      8788
      8786      8788      8791      8792      8786      8788      8791      8793
      8786      8788      8791      8794      8787      8786      8788      8789
      8787      8786      8788      8790      8787      8786      8788      8791
      8788      8791      8794      8795      8788      8791      8794      8796
      8788      8791      8794      8797      8789      8788      8791      8792
      8789      8788      8791      8793      8789      8788      8791      8794
      8790      8788      8791      8792      8790      8788      8791      8793
      8790      8788      8791      8794      8791      8794      8797      8798
      8791      8794      8797      8799      8791      8794      8797      8800
      8792      8791      8794      8795      8792      8791      8794      8796
      8792      8791      8794      8797      8793      8791      8794      8795
      8793      8791      8794      8796      8793      8791      8794      8797
      8794      8797      8800      8801      8794      8797      8800      8802
      8794      8797      8800      8803      8795      8794      8797      8798
      8795      8794      8797      8799      8795      8794      8797      8800
      8796      8794      8797      8798      8796      8794      8797      8799
      8796      8794      8797      8800      8798      8797      8800      8801
      8798      8797      8800      8802      8798      8797      8800      8803
      8799      8797      8800      8801      8799      8797      8800      8802
      8799      8797      8800      8803      8804      8807      8810      8811
      8804      8807      8810      8812      8804      8807      8810      8813
      8805      8804      8807      8808      8805      8804      8807      8809
      8805      8804      8807      8810      8806      8804      8807      8808
      8806      8804      8807      8809      8806      8804      8807      8810
      8807      8810      8813      8814      8807      8810      8813      8815
      8807      8810      8813      8816      8808      8807      8810      8811
      8808      8807      8810      8812      8808      8807      8810      8813
      8809      8807      8810      8811      8809      8807      8810      8812
      8809      8807      8810      8813      8810      8813      8816      8817
      8810      8813      8816      8818      8810      8813      8816      8819
      8811      8810      8813      8814      8811      8810      8813      8815
      8811      8810      8813      8816      8812      8810      8813      8814
      8812      8810      8813      8815      8812      8810      8813      8816
      8813      8816      8819      8820      8813      8816      8819      8821
      8813      8816      8819      8822      8814      8813      8816      8817
      8814      8813      8816      8818      8814      8813      8816      8819
      8815      8813      8816      8817      8815      8813      8816      8818
      8815      8813      8816      8819      8816      8819      8822      8823
      8816      8819      8822      8824      8816      8819      8822      8825
      8817      8816      8819      8820      8817      8816      8819      8821
      8817      8816      8819      8822      8818      8816      8819      8820
      8818      8816      8819      8821      8818      8816      8819      8822
      8819      8822      8825      8826      8819      8822      8825      8827
      8819      8822      8825      8828      8820      8819      8822      8823
      8820      8819      8822      8824      8820      8819      8822      8825
      8821      8819      8822      8823      8821      8819      8822      8824
      8821      8819      8822      8825      8822      8825      8828      8829
      8822      8825      8828      8830      8822      8825      8828      8831
      8823      8822      8825      8826      8823      8822      8825      8827
      8823      8822      8825      8828      8824      8822      8825      8826
      8824      8822      8825      8827      8824      8822      8825      8828
      8825      8828      8831      8832      8825      8828      8831      8833
      8825      8828      8831      8834      8826      8825      8828      8829
      8826      8825      8828      8830      8826      8825      8828      8831
      8827      8825      8828      8829      8827      8825      8828      8830
      8827      8825      8828      8831      8828      8831      8834      8835
      8828      8831      8834      8836      8828      8831      8834      8837
      8829      8828      8831      8832      8829      8828      8831      8833
      8829      8828      8831      8834      8830      8828      8831      8832
      8830      8828      8831      8833      8830      8828      8831      8834
      8831      8834      8837      8838      8831      8834      8837      8839
      8831      8834      8837      8840      8832      8831      8834      8835
      8832      8831      8834      8836      8832      8831      8834      8837
      8833      8831      8834      8835      8833      8831      8834      8836
      8833      8831      8834      8837      8834      8837      8840      8841
      8834      8837      8840      8842      8834      8837      8840      8843
      8835      8834      8837      8838      8835      8834      8837      8839
      8835      8834      8837      8840      8836      8834      8837      8838
      8836      8834      8837      8839      8836      8834      8837      8840
      8837      8840      8843      8844      8837      8840      8843      8845
      8837      8840      8843      8846      8838      8837      8840      8841
      8838      8837      8840      8842      8838      8837      8840      8843
      8839      8837      8840      8841      8839      8837      8840      8842
      8839      8837      8840      8843      8840      8843      8846      8847
      8840      8843      8846      8848      8840      8843      8846      8849
      8841      8840      8843      8844      8841      8840      8843      8845
      8841      8840      8843      8846      8842      8840      8843      8844
      8842      8840      8843      8845      8842      8840      8843      8846
      8843      8846      8849      8850      8843      8846      8849      8851
      8843      8846      8849      8852      8844      8843      8846      8847
      8844      8843      8846      8848      8844      8843      8846      8849
      8845      8843      8846      8847      8845      8843      8846      8848
      8845      8843      8846      8849      8847      8846      8849      8850
      8847      8846      8849      8851      8847      8846      8849      8852
      8848      8846      8849      8850      8848      8846      8849      8851
      8848      8846      8849      8852      9687      9688      9703      9704
      9687      9688      9703      9705      9687      9688      9703      9709
      9688      9687      9691      9692      9688      9687      9691      9693
      9688      9687      9691      9694      9688      9687      9695      9696
      9688      9687      9695      9697      9688      9687      9695      9698
      9688      9687      9699      9700      9688      9687      9699      9701
      9688      9687      9699      9702      9688      9703      9709      9706
      9689      9688      9687      9691      9689      9688      9687      9695
      9689      9688      9687      9699      9689      9688      9703      9704
      9689      9688      9703      9705      9689      9688      9703      9709
      9690      9688      9687      9691      9690      9688      9687      9695
      9690      9688      9687      9699      9690      9688      9703      9704
      9690      9688      9703      9705      9690      9688      9703      9709
      9691      9687      9688      9703      9691      9687      9695      9696
      9691      9687      9695      9697      9691      9687      9695      9698
      9691      9687      9699      9700      9691      9687      9699      9701
      9691      9687      9699      9702      9692      9691      9687      9695
      9692      9691      9687      9699      9693      9691      9687      9695
      9693      9691      9687      9699      9694      9691      9687      9695
      9694      9691      9687      9699      9695      9687      9688      9703
      9695      9687      9699      9700      9695      9687      9699      9701
      9695      9687      9699      9702      9696      9695      9687      9699
      9697      9695      9687      9699      9698      9695      9687      9699
      9699      9687      9688      9703      9703      9709      9706      9707
      9703      9709      9706      9708      9703      9709      9706      9710
      9704      9703      9709      9706      9705      9703      9709      9706
      9706      9710      9711      9712      9706      9710      9711      9713
      9706      9710      9711      9714      9707      9706      9710      9711
      9708      9706      9710      9711      9709      9706      9710      9711
      9710      9711      9714      9715      9710      9711      9714      9716
      9710      9711      9714      9722      9711      9714      9716      9717
      9711      9714      9722      9723      9711      9714      9722      9724
      9711      9714      9722      9725      9712      9711      9714      9715
      9712      9711      9714      9716      9712      9711      9714      9722
      9713      9711      9714      9715      9713      9711      9714      9716
      9713      9711      9714      9722      9714      9716      9717      9718
      9714      9716      9717      9719      9714      9722      9725      9726
      9715      9714      9716      9717      9715      9714      9722      9723
      9715      9714      9722      9724      9715      9714      9722      9725
      9716      9714      9722      9723      9716      9714      9722      9724
      9716      9714      9722      9725      9716      9717      9719      9720
      9716      9717      9719      9721      9716      9717      9719      9731
      9717      9716      9714      9722      9717      9719      9731      9732
      9717      9719      9731      9733      9717      9719      9731      9734
      9718      9717      9719      9720      9718      9717      9719      9721
      9718      9717      9719      9731      9719      9731      9734      9735
      9719      9731      9734      9736      9719      9731      9734      9737
      9720      9719      9731      9732      9720      9719      9731      9733
      9720      9719      9731      9734      9721      9719      9731      9732
      9721      9719      9731      9733      9721      9719      9731      9734
      9722      9725      9726      9727      9722      9725      9726      9728
      9723      9722      9725      9726      9724      9722      9725      9726
      9725      9726      9728      9729      9725      9726      9728      9730
      9725      9726      9728      9778      9726      9728      9778      9779
      9726      9728      9778      9780      9726      9728      9778      9781
      9727      9726      9728      9729      9727      9726      9728      9730
      9727      9726      9728      9778      9728      9778      9781      9782
      9728      9778      9781      9783      9728      9778      9781      9784
      9729      9728      9778      9779      9729      9728      9778      9780
      9729      9728      9778      9781      9730      9728      9778      9779
      9730      9728      9778      9780      9730      9728      9778      9781
      9731      9734      9737      9738      9731      9734      9737      9739
      9731      9734      9737      9740      9732      9731      9734      9735
      9732      9731      9734      9736      9732      9731      9734      9737
      9733      9731      9734      9735      9733      9731      9734      9736
      9733      9731      9734      9737      9734      9737      9740      9741
      9734      9737      9740      9742      9734      9737      9740      9743
      9735      9734      9737      9738      9735      9734      9737      9739
      9735      9734      9737      9740      9736      9734      9737      9738
      9736      9734      9737      9739      9736      9734      9737      9740
      9737      9740      9743      9744      9737      9740      9743      9745
      9737      9740      9743      9746      9738      9737      9740      9741
      9738      9737      9740      9742      9738      9737      9740      9743
      9739      9737      9740      9741      9739      9737      9740      9742
      9739      9737      9740      9743      9740      9743      9746      9747
      9740      9743      9746      9748      9740      9743      9746      9749
      9741      9740      9743      9744      9741      9740      9743      9745
      9741      9740      9743      9746      9742      9740      9743      9744
      9742      9740      9743      9745      9742      9740      9743      9746
      9743      9746      9749      9750      9743      9746      9749      9751
      9744      9743      9746      9747      9744      9743      9746      9748
      9744      9743      9746      9749      9745      9743      9746      9747
      9745      9743      9746      9748      9745      9743      9746      9749
      9746      9749      9751      9752      9746      9749      9751      9753
      9747      9746      9749      9750      9747      9746      9749      9751
      9748      9746      9749      9750      9748      9746      9749      9751
      9749      9751      9753      9754      9749      9751      9753      9755
      9749      9751      9753      9756      9750      9749      9751      9752
      9750      9749      9751      9753      9751      9753      9756      9757
      9751      9753      9756      9758      9751      9753      9756      9759
      9752      9751      9753      9754      9752      9751      9753      9755
      9752      9751      9753      9756      9753      9756      9759      9760
      9753      9756      9759      9761      9753      9756      9759      9762
      9754      9753      9756      9757      9754      9753      9756      9758
      9754      9753      9756      9759      9755      9753      9756      9757
      9755      9753      9756      9758      9755      9753      9756      9759
      9756      9759      9762      9763      9756      9759      9762      9764
      9756      9759      9762      9765      9757      9756      9759      9760
      9757      9756      9759      9761      9757      9756      9759      9762
      9758      9756      9759      9760      9758      9756      9759      9761
      9758      9756      9759      9762      9759      9762      9765      9766
      9759      9762      9765      9767      9759      9762      9765      9768
      9760      9759      9762      9763      9760      9759      9762      9764
      9760      9759      9762      9765      9761      9759      9762      9763
      9761      9759      9762      9764      9761      9759      9762      9765
      9762      9765      9768      9769      9762      9765      9768      9770
      9762      9765      9768      9771      9763      9762      9765      9766
      9763      9762      9765      9767      9763      9762      9765      9768
      9764      9762      9765      9766      9764      9762      9765      9767
      9764      9762      9765      9768      9765      9768      9771      9772
      9765      9768      9771      9773      9765      9768      9771      9774
      9766      9765      9768      9769      9766      9765      9768      9770
      9766      9765      9768      9771      9767      9765      9768      9769
      9767      9765      9768      9770      9767      9765      9768      9771
      9768      9771      9774      9775      9768      9771      9774      9776
      9768      9771      9774      9777      9769      9768      9771      9772
      9769      9768      9771      9773      9769      9768      9771      9774
      9770      9768      9771      9772      9770      9768      9771      9773
      9770      9768      9771      9774      9772      9771      9774      9775
      9772      9771      9774      9776      9772      9771      9774      9777
      9773      9771      9774      9775      9773      9771      9774      9776
      9773      9771      9774      9777      9778      9781      9784      9785
      9778      9781      9784      9786      9778      9781      9784      9787
      9779      9778      9781      9782      9779      9778      9781      9783
      9779      9778      9781      9784      9780      9778      9781      9782
      9780      9778      9781      9783      9780      9778      9781      9784
      9781      9784      9787      9788      9781      9784      9787      9789
      9781      9784      9787      9790      9782      9781      9784      9785
      9782      9781      9784      9786      9782      9781      9784      9787
      9783      9781      9784      9785      9783      9781      9784      9786
      9783      9781      9784      9787      9784      9787      9790      9791
      9784      9787      9790      9792      9784      9787      9790      9793
      9785      9784      9787      9788      9785      9784      9787      9789
      9785      9784      9787      9790      9786      9784      9787      9788
      9786      9784      9787      9789      9786      9784      9787      9790
      9787      9790      9793      9794      9787      9790      9793      9795
      9787      9790      9793      9796      9788      9787      9790      9791
      9788      9787      9790      9792      9788      9787      9790      9793
      9789      9787      9790      9791      9789      9787      9790      9792
      9789      9787      9790      9793      9790      9793      9796      9797
      9790      9793      9796      9798      9790      9793      9796      9799
      9791      9790      9793      9794      9791      9790      9793      9795
      9791      9790      9793      9796      9792      9790      9793      9794
      9792      9790      9793      9795      9792      9790      9793      9796
      9793      9796      9799      9800      9793      9796      9799      9801
      9793      9796      9799      9802      9794      9793      9796      9797
      9794      9793      9796      9798      9794      9793      9796      9799
      9795      9793      9796      9797      9795      9793      9796      9798
      9795      9793      9796      9799      9796      9799      9802      9803
      9796      9799      9802      9804      9796      9799      9802      9805
      9797      9796      9799      9800      9797      9796      9799      9801
      9797      9796      9799      9802      9798      9796      9799      9800
      9798      9796      9799      9801      9798      9796      9799      9802
      9799      9802      9805      9806      9799      9802      9805      9807
      9799      9802      9805      9808      9800      9799      9802      9803
      9800      9799      9802      9804      9800      9799      9802      9805
      9801      9799      9802      9803      9801      9799      9802      9804
      9801      9799      9802      9805      9802      9805      9808      9809
      9802      9805      9808      9810      9802      9805      9808      9811
      9803      9802      9805      9806      9803      9802      9805      9807
      9803      9802      9805      9808      9804      9802      9805      9806
      9804      9802      9805      9807      9804      9802      9805      9808
      9805      9808      9811      9812      9805      9808      9811      9813
      9805      9808      9811      9814      9806      9805      9808      9809
      9806      9805      9808      9810      9806      9805      9808      9811
      9807      9805      9808      9809      9807      9805      9808      9810
      9807      9805      9808      9811      9808      9811      9814      9815
      9808      9811      9814      9816      9808      9811      9814      9817
      9809      9808      9811      9812      9809      9808      9811      9813
      9809      9808      9811      9814      9810      9808      9811      9812
      9810      9808      9811      9813      9810      9808      9811      9814
      9811      9814      9817      9818      9811      9814      9817      9819
      9811      9814      9817      9820      9812      9811      9814      9815
      9812      9811      9814      9816      9812      9811      9814      9817
      9813      9811      9814      9815      9813      9811      9814      9816
      9813      9811      9814      9817      9815      9814      9817      9818
      9815      9814      9817      9819      9815      9814      9817      9820
      9816      9814      9817      9818      9816      9814      9817      9819
      9816      9814      9817      9820      4209      4213      4216      4217
      4209      4213      4216      4218      4209      4213      4216      4222
      4210      4209      4213      4214      4210      4209      4213      4215
      4210      4209      4213      4216      4211      4209      4213      4214
      4211      4209      4213      4215      4211      4209      4213      4216
      4212      4209      4213      4214      4212      4209      4213      4215
      4212      4209      4213      4216      4213      4216      4222      4219
      4214      4213      4216      4217      4214      4213      4216      4218
      4214      4213      4216      4222      4215      4213      4216      4217
      4215      4213      4216      4218      4215      4213      4216      4222
      4216      4222      4219      4220      4216      4222      4219      4221
      4216      4222      4219      4223      4217      4216      4222      4219
      4218      4216      4222      4219      4219      4223      4224      4225
      4219      4223      4224      4226      4219      4223      4224      4227
      4220      4219      4223      4224      4221      4219      4223      4224
      4222      4219      4223      4224      4223      4224      4227      4228
      4223      4224      4227      4229      4223      4224      4227      4235
      4224      4227      4229      4230      4224      4227      4235      4236
      4224      4227      4235      4237      4224      4227      4235      4238
      4225      4224      4227      4228      4225      4224      4227      4229
      4225      4224      4227      4235      4226      4224      4227      4228
      4226      4224      4227      4229      4226      4224      4227      4235
      4227      4229      4230      4231      4227      4229      4230      4232
      4227      4235      4238      4239      4228      4227      4229      4230
      4228      4227      4235      4236      4228      4227      4235      4237
      4228      4227      4235      4238      4229      4227      4235      4236
      4229      4227      4235      4237      4229      4227      4235      4238
      4229      4230      4232      4233      4229      4230      4232      4234
      4229      4230      4232      4244      4230      4229      4227      4235
      4230      4232      4244      4245      4230      4232      4244      4246
      4230      4232      4244      4247      4231      4230      4232      4233
      4231      4230      4232      4234      4231      4230      4232      4244
      4232      4244      4247      4248      4232      4244      4247      4249
      4232      4244      4247      4250      4233      4232      4244      4245
      4233      4232      4244      4246      4233      4232      4244      4247
      4234      4232      4244      4245      4234      4232      4244      4246
      4234      4232      4244      4247      4235      4238      4239      4240
      4235      4238      4239      4241      4236      4235      4238      4239
      4237      4235      4238      4239      4238      4239      4241      4242
      4238      4239      4241      4243      4238      4239      4241      4291
      4239      4241      4291      4292      4239      4241      4291      4293
      4239      4241      4291      4294      4240      4239      4241      4242
      4240      4239      4241      4243      4240      4239      4241      4291
      4241      4291      4294      4295      4241      4291      4294      4296
      4241      4291      4294      4297      4242      4241      4291      4292
      4242      4241      4291      4293      4242      4241      4291      4294
      4243      4241      4291      4292      4243      4241      4291      4293
      4243      4241      4291      4294      4244      4247      4250      4251
      4244      4247      4250      4252      4245      4244      4247      4248
      4245      4244      4247      4249      4245      4244      4247      4250
      4246      4244      4247      4248      4246      4244      4247      4249
      4246      4244      4247      4250      4247      4250      4252      4253
      4247      4250      4252      4254      4248      4247      4250      4251
      4248      4247      4250      4252      4249      4247      4250      4251
      4249      4247      4250      4252      4250      4252      4254      4255
      4250      4252      4254      4256      4250      4252      4254      4257
      4251      4250      4252      4253      4251      4250      4252      4254
      4252      4254      4257      4258      4252      4254      4257      4259
      4253      4252      4254      4255      4253      4252      4254      4256
      4253      4252      4254      4257      4254      4257      4259      4260
      4254      4257      4259      4261      4255      4254      4257      4258
      4255      4254      4257      4259      4256      4254      4257      4258
      4256      4254      4257      4259      4257      4259      4261      4262
      4257      4259      4261      4263      4257      4259      4261      4264
      4258      4257      4259      4260      4258      4257      4259      4261
      4259      4261      4264      4265      4259      4261      4264      4266
      4260      4259      4261      4262      4260      4259      4261      4263
      4260      4259      4261      4264      4261      4264      4266      4267
      4261      4264      4266      4268      4262      4261      4264      4265
      4262      4261      4264      4266      4263      4261      4264      4265
      4263      4261      4264      4266      4264      4266      4268      4269
      4264      4266      4268      4270      4264      4266      4268      4271
      4265      4264      4266      4267      4265      4264      4266      4268
      4266      4268      4271      4272      4266      4268      4271      4273
      4267      4266      4268      4269      4267      4266      4268      4270
      4267      4266      4268      4271      4268      4271      4273      4274
      4268      4271      4273      4275      4269      4268      4271      4272
      4269      4268      4271      4273      4270      4268      4271      4272
      4270      4268      4271      4273      4271      4273      4275      4276
      4271      4273      4275      4277      4271      4273      4275      4278
      4272      4271      4273      4274      4272      4271      4273      4275
      4273      4275      4278      4279      4273      4275      4278      4280
      4273      4275      4278      4281      4274      4273      4275      4276
      4274      4273      4275      4277      4274      4273      4275      4278
      4275      4278      4281      4282      4275      4278      4281      4283
      4275      4278      4281      4284      4276      4275      4278      4279
      4276      4275      4278      4280      4276      4275      4278      4281
      4277      4275      4278      4279      4277      4275      4278      4280
      4277      4275      4278      4281      4278      4281      4284      4285
      4278      4281      4284      4286      4278      4281      4284      4287
      4279      4278      4281      4282      4279      4278      4281      4283
      4279      4278      4281      4284      4280      4278      4281      4282
      4280      4278      4281      4283      4280      4278      4281      4284
      4281      4284      4287      4288      4281      4284      4287      4289
      4281      4284      4287      4290      4282      4281      4284      4285
      4282      4281      4284      4286      4282      4281      4284      4287
      4283      4281      4284      4285      4283      4281      4284      4286
      4283      4281      4284      4287      4285      4284      4287      4288
      4285      4284      4287      4289      4285      4284      4287      4290
      4286      4284      4287      4288      4286      4284      4287      4289
      4286      4284      4287      4290      4291      4294      4297      4298
      4291      4294      4297      4299      4291      4294      4297      4300
      4292      4291      4294      4295      4292      4291      4294      4296
      4292      4291      4294      4297      4293      4291      4294      4295
      4293      4291      4294      4296      4293      4291      4294      4297
      4294      4297      4300      4301      4294      4297      4300      4302
      4294      4297      4300      4303      4295      4294      4297      4298
      4295      4294      4297      4299      4295      4294      4297      4300
      4296      4294      4297      4298      4296      4294      4297      4299
      4296      4294      4297      4300      4297      4300      4303      4304
      4297      4300      4303      4305      4297      4300      4303      4306
      4298      4297      4300      4301      4298      4297      4300      4302
      4298      4297      4300      4303      4299      4297      4300      4301
      4299      4297      4300      4302      4299      4297      4300      4303
      4300      4303      4306      4307      4300      4303      4306      4308
      4300      4303      4306      4309      4301      4300      4303      4304
      4301      4300      4303      4305      4301      4300      4303      4306
      4302      4300      4303      4304      4302      4300      4303      4305
      4302      4300      4303      4306      4303      4306      4309      4310
      4303      4306      4309      4311      4303      4306      4309      4312
      4304      4303      4306      4307      4304      4303      4306      4308
      4304      4303      4306      4309      4305      4303      4306      4307
      4305      4303      4306      4308      4305      4303      4306      4309
      4306      4309      4312      4313      4306      4309      4312      4314
      4306      4309      4312      4315      4307      4306      4309      4310
      4307      4306      4309      4311      4307      4306      4309      4312
      4308      4306      4309      4310      4308      4306      4309      4311
      4308      4306      4309      4312      4309      4312      4315      4316
      4309      4312      4315      4317      4309      4312      4315      4318
      4310      4309      4312      4313      4310      4309      4312      4314
      4310      4309      4312      4315      4311      4309      4312      4313
      4311      4309      4312      4314      4311      4309      4312      4315
      4312      4315      4318      4319      4312      4315      4318      4320
      4312      4315      4318      4321      4313      4312      4315      4316
      4313      4312      4315      4317      4313      4312      4315      4318
      4314      4312      4315      4316      4314      4312      4315      4317
      4314      4312      4315      4318      4315      4318      4321      4322
      4315      4318      4321      4323      4315      4318      4321      4324
      4316      4315      4318      4319      4316      4315      4318      4320
      4316      4315      4318      4321      4317      4315      4318      4319
      4317      4315      4318      4320      4317      4315      4318      4321
      4318      4321      4324      4325      4318      4321      4324      4326
      4318      4321      4324      4327      4319      4318      4321      4322
      4319      4318      4321      4323      4319      4318      4321      4324
      4320      4318      4321      4322      4320      4318      4321      4323
      4320      4318      4321      4324      4321      4324      4327      4328
      4321      4324      4327      4329      4321      4324      4327      4330
      4322      4321      4324      4325      4322      4321      4324      4326
      4322      4321      4324      4327      4323      4321      4324      4325
      4323      4321      4324      4326      4323      4321      4324      4327
      4324      4327      4330      4331      4324      4327      4330      4332
      4324      4327      4330      4333      4325      4324      4327      4328
      4325      4324      4327      4329      4325      4324      4327      4330
      4326      4324      4327      4328      4326      4324      4327      4329
      4326      4324      4327      4330      4327      4330      4333      4334
      4327      4330      4333      4335      4327      4330      4333      4336
      4328      4327      4330      4331      4328      4327      4330      4332
      4328      4327      4330      4333      4329      4327      4330      4331
      4329      4327      4330      4332      4329      4327      4330      4333
      4330      4333      4336      4337      4330      4333      4336      4338
      4330      4333      4336      4339      4331      4330      4333      4334
      4331      4330      4333      4335      4331      4330      4333      4336
      4332      4330      4333      4334      4332      4330      4333      4335
      4332      4330      4333      4336      4334      4333      4336      4337
      4334      4333      4336      4338      4334      4333      4336      4339
      4335      4333      4336      4337      4335      4333      4336      4338
      4335      4333      4336      4339     10351     10355     10358     10359
     10351     10355     10358     10360     10351     10355     10358     10364
     10352     10351     10355     10356     10352     10351     10355     10357
     10352     10351     10355     10358     10353     10351     10355     10356
     10353     10351     10355     10357     10353     10351     10355     10358
     10354     10351     10355     10356     10354     10351     10355     10357
     10354     10351     10355     10358     10355     10358     10364     10361
     10356     10355     10358     10359     10356     10355     10358     10360
     10356     10355     10358     10364     10357     10355     10358     10359
     10357     10355     10358     10360     10357     10355     10358     10364
     10358     10364     10361     10362     10358     10364     10361     10363
     10358     10364     10361     10365     10359     10358     10364     10361
     10360     10358     10364     10361     10361     10365     10366     10367
     10361     10365     10366     10368     10361     10365     10366     10369
     10362     10361     10365     10366     10363     10361     10365     10366
     10364     10361     10365     10366     10365     10366     10369     10370
     10365     10366     10369     10371     10365     10366     10369     10377
     10366     10369     10371     10372     10366     10369     10377     10378
     10366     10369     10377     10379     10366     10369     10377     10380
     10367     10366     10369     10370     10367     10366     10369     10371
     10367     10366     10369     10377     10368     10366     10369     10370
     10368     10366     10369     10371     10368     10366     10369     10377
     10369     10371     10372     10373     10369     10371     10372     10374
     10369     10377     10380     10381     10370     10369     10371     10372
     10370     10369     10377     10378     10370     10369     10377     10379
     10370     10369     10377     10380     10371     10369     10377     10378
     10371     10369     10377     10379     10371     10369     10377     10380
     10371     10372     10374     10375     10371     10372     10374     10376
     10371     10372     10374     10386     10372     10371     10369     10377
     10372     10374     10386     10387     10372     10374     10386     10388
     10372     10374     10386     10389     10373     10372     10374     10375
     10373     10372     10374     10376     10373     10372     10374     10386
     10374     10386     10389     10390     10374     10386     10389     10391
     10374     10386     10389     10392     10375     10374     10386     10387
     10375     10374     10386     10388     10375     10374     10386     10389
     10376     10374     10386     10387     10376     10374     10386     10388
     10376     10374     10386     10389     10377     10380     10381     10382
     10377     10380     10381     10383     10378     10377     10380     10381
     10379     10377     10380     10381     10380     10381     10383     10384
     10380     10381     10383     10385     10380     10381     10383     10433
     10381     10383     10433     10434     10381     10383     10433     10435
     10381     10383     10433     10436     10382     10381     10383     10384
     10382     10381     10383     10385     10382     10381     10383     10433
     10383     10433     10436     10437     10383     10433     10436     10438
     10383     10433     10436     10439     10384     10383     10433     10434
     10384     10383     10433     10435     10384     10383     10433     10436
     10385     10383     10433     10434     10385     10383     10433     10435
     10385     10383     10433     10436     10386     10389     10392     10393
     10386     10389     10392     10394     10386     10389     10392     10395
     10387     10386     10389     10390     10387     10386     10389     10391
     10387     10386     10389     10392     10388     10386     10389     10390
     10388     10386     10389     10391     10388     10386     10389     10392
     10389     10392     10395     10396     10389     10392     10395     10397
     10389     10392     10395     10398     10390     10389     10392     10393
     10390     10389     10392     10394     10390     10389     10392     10395
     10391     10389     10392     10393     10391     10389     10392     10394
     10391     10389     10392     10395     10392     10395     10398     10399
     10392     10395     10398     10400     10392     10395     10398     10401
     10393     10392     10395     10396     10393     10392     10395     10397
     10393     10392     10395     10398     10394     10392     10395     10396
     10394     10392     10395     10397     10394     10392     10395     10398
     10395     10398     10401     10402     10395     10398     10401     10403
     10395     10398     10401     10404     10396     10395     10398     10399
     10396     10395     10398     10400     10396     10395     10398     10401
     10397     10395     10398     10399     10397     10395     10398     10400
     10397     10395     10398     10401     10398     10401     10404     10405
     10398     10401     10404     10406     10399     10398     10401     10402
     10399     10398     10401     10403     10399     10398     10401     10404
     10400     10398     10401     10402     10400     10398     10401     10403
     10400     10398     10401     10404     10401     10404     10406     10407
     10401     10404     10406     10408     10402     10401     10404     10405
     10402     10401     10404     10406     10403     10401     10404     10405
     10403     10401     10404     10406     10404     10406     10408     10409
     10404     10406     10408     10410     10404     10406     10408     10411
     10405     10404     10406     10407     10405     10404     10406     10408
     10406     10408     10411     10412     10406     10408     10411     10413
     10406     10408     10411     10414     10407     10406     10408     10409
     10407     10406     10408     10410     10407     10406     10408     10411
     10408     10411     10414     10415     10408     10411     10414     10416
     10408     10411     10414     10417     10409     10408     10411     10412
     10409     10408     10411     10413     10409     10408     10411     10414
     10410     10408     10411     10412     10410     10408     10411     10413
     10410     10408     10411     10414     10411     10414     10417     10418
     10411     10414     10417     10419     10411     10414     10417     10420
     10412     10411     10414     10415     10412     10411     10414     10416
     10412     10411     10414     10417     10413     10411     10414     10415
     10413     10411     10414     10416     10413     10411     10414     10417
     10414     10417     10420     10421     10414     10417     10420     10422
     10414     10417     10420     10423     10415     10414     10417     10418
     10415     10414     10417     10419     10415     10414     10417     10420
     10416     10414     10417     10418     10416     10414     10417     10419
     10416     10414     10417     10420     10417     10420     10423     10424
     10417     10420     10423     10425     10417     10420     10423     10426
     10418     10417     10420     10421     10418     10417     10420     10422
     10418     10417     10420     10423     10419     10417     10420     10421
     10419     10417     10420     10422     10419     10417     10420     10423
     10420     10423     10426     10427     10420     10423     10426     10428
     10420     10423     10426     10429     10421     10420     10423     10424
     10421     10420     10423     10425     10421     10420     10423     10426
     10422     10420     10423     10424     10422     10420     10423     10425
     10422     10420     10423     10426     10423     10426     10429     10430
     10423     10426     10429     10431     10423     10426     10429     10432
     10424     10423     10426     10427     10424     10423     10426     10428
     10424     10423     10426     10429     10425     10423     10426     10427
     10425     10423     10426     10428     10425     10423     10426     10429
     10427     10426     10429     10430     10427     10426     10429     10431
     10427     10426     10429     10432     10428     10426     10429     10430
     10428     10426     10429     10431     10428     10426     10429     10432
     10433     10436     10439     10440     10433     10436     10439     10441
     10433     10436     10439     10442     10434     10433     10436     10437
     10434     10433     10436     10438     10434     10433     10436     10439
     10435     10433     10436     10437     10435     10433     10436     10438
     10435     10433     10436     10439     10436     10439     10442     10443
     10436     10439     10442     10444     10436     10439     10442     10445
     10437     10436     10439     10440     10437     10436     10439     10441
     10437     10436     10439     10442     10438     10436     10439     10440
     10438     10436     10439     10441     10438     10436     10439     10442
     10439     10442     10445     10446     10439     10442     10445     10447
     10439     10442     10445     10448     10440     10439     10442     10443
     10440     10439     10442     10444     10440     10439     10442     10445
     10441     10439     10442     10443     10441     10439     10442     10444
     10441     10439     10442     10445     10442     10445     10448     10449
     10442     10445     10448     10450     10442     10445     10448     10451
     10443     10442     10445     10446     10443     10442     10445     10447
     10443     10442     10445     10448     10444     10442     10445     10446
     10444     10442     10445     10447     10444     10442     10445     10448
     10445     10448     10451     10452     10445     10448     10451     10453
     10445     10448     10451     10454     10446     10445     10448     10449
     10446     10445     10448     10450     10446     10445     10448     10451
     10447     10445     10448     10449     10447     10445     10448     10450
     10447     10445     10448     10451     10448     10451     10454     10455
     10448     10451     10454     10456     10448     10451     10454     10457
     10449     10448     10451     10452     10449     10448     10451     10453
     10449     10448     10451     10454     10450     10448     10451     10452
     10450     10448     10451     10453     10450     10448     10451     10454
     10451     10454     10457     10458     10451     10454     10457     10459
     10451     10454     10457     10460     10452     10451     10454     10455
     10452     10451     10454     10456     10452     10451     10454     10457
     10453     10451     10454     10455     10453     10451     10454     10456
     10453     10451     10454     10457     10454     10457     10460     10461
     10454     10457     10460     10462     10454     10457     10460     10463
     10455     10454     10457     10458     10455     10454     10457     10459
     10455     10454     10457     10460     10456     10454     10457     10458
     10456     10454     10457     10459     10456     10454     10457     10460
     10457     10460     10463     10464     10457     10460     10463     10465
     10457     10460     10463     10466     10458     10457     10460     10461
     10458     10457     10460     10462     10458     10457     10460     10463
     10459     10457     10460     10461     10459     10457     10460     10462
     10459     10457     10460     10463     10460     10463     10466     10467
     10460     10463     10466     10468     10460     10463     10466     10469
     10461     10460     10463     10464     10461     10460     10463     10465
     10461     10460     10463     10466     10462     10460     10463     10464
     10462     10460     10463     10465     10462     10460     10463     10466
     10463     10466     10469     10470     10463     10466     10469     10471
     10463     10466     10469     10472     10464     10463     10466     10467
     10464     10463     10466     10468     10464     10463     10466     10469
     10465     10463     10466     10467     10465     10463     10466     10468
     10465     10463     10466     10469     10466     10469     10472     10473
     10466     10469     10472     10474     10466     10469     10472     10475
     10467     10466     10469     10470     10467     10466     10469     10471
     10467     10466     10469     10472     10468     10466     10469     10470
     10468     10466     10469     10471     10468     10466     10469     10472
     10469     10472     10475     10476     10469     10472     10475     10477
     10469     10472     10475     10478     10470     10469     10472     10473
     10470     10469     10472     10474     10470     10469     10472     10475
     10471     10469     10472     10473     10471     10469     10472     10474
     10471     10469     10472     10475     10472     10475     10478     10479
     10472     10475     10478     10480     10472     10475     10478     10481
     10473     10472     10475     10476     10473     10472     10475     10477
     10473     10472     10475     10478     10474     10472     10475     10476
     10474     10472     10475     10477     10474     10472     10475     10478
     10476     10475     10478     10479     10476     10475     10478     10480
     10476     10475     10478     10481     10477     10475     10478     10479
     10477     10475     10478     10480     10477     10475     10478     10481
      2758      2762      2764      2765      2758      2762      2764      2766
      2758      2762      2767      2768      2758      2762      2767      2769
      2758      2762      2767      2773      2759      2758      2762      2763
      2759      2758      2762      2764      2759      2758      2762      2767
      2760      2758      2762      2763      2760      2758      2762      2764
      2760      2758      2762      2767      2761      2758      2762      2763
      2761      2758      2762      2764      2761      2758      2762      2767
      2762      2767      2773      2770      2763      2762      2764      2765
      2763      2762      2764      2766      2763      2762      2767      2768
      2763      2762      2767      2769      2763      2762      2767      2773
      2764      2762      2767      2768      2764      2762      2767      2769
      2764      2762      2767      2773      2765      2764      2762      2767
      2766      2764      2762      2767      2767      2773      2770      2771
      2767      2773      2770      2772      2767      2773      2770      2774
      2768      2767      2773      2770      2769      2767      2773      2770
      2770      2774      2775      2776      2770      2774      2775      2777
      2770      2774      2775      2778      2771      2770      2774      2775
      2772      2770      2774      2775      2773      2770      2774      2775
      2774      2775      2778      2779      2774      2775      2778      2780
      2774      2775      2778      2786      2775      2778      2780      2781
      2775      2778      2786      2787      2775      2778      2786      2788
      2775      2778      2786      2789      2776      2775      2778      2779
      2776      2775      2778      2780      2776      2775      2778      2786
      2777      2775      2778      2779      2777      2775      2778      2780
      2777      2775      2778      2786      2778      2780      2781      2782
      2778      2780      2781      2783      2778      2786      2789      2790
      2779      2778      2780      2781      2779      2778      2786      2787
      2779      2778      2786      2788      2779      2778      2786      2789
      2780      2778      2786      2787      2780      2778      2786      2788
      2780      2778      2786      2789      2780      2781      2783      2784
      2780      2781      2783      2785      2780      2781      2783      2795
      2781      2780      2778      2786      2781      2783      2795      2796
      2781      2783      2795      2797      2781      2783      2795      2798
      2782      2781      2783      2784      2782      2781      2783      2785
      2782      2781      2783      2795      2783      2795      2798      2799
      2783      2795      2798      2800      2783      2795      2798      2801
      2784      2783      2795      2796      2784      2783      2795      2797
      2784      2783      2795      2798      2785      2783      2795      2796
      2785      2783      2795      2797      2785      2783      2795      2798
      2786      2789      2790      2791      2786      2789      2790      2792
      2787      2786      2789      2790      2788      2786      2789      2790
      2789      2790      2792      2793      2789      2790      2792      2794
      2789      2790      2792      2842      2790      2792      2842      2843
      2790      2792      2842      2844      2790      2792      2842      2845
      2791      2790      2792      2793      2791      2790      2792      2794
      2791      2790      2792      2842      2792      2842      2845      2846
      2792      2842      2845      2847      2792      2842      2845      2848
      2793      2792      2842      2843      2793      2792      2842      2844
      2793      2792      2842      2845      2794      2792      2842      2843
      2794      2792      2842      2844      2794      2792      2842      2845
      2795      2798      2801      2802      2795      2798      2801      2803
      2796      2795      2798      2799      2796      2795      2798      2800
      2796      2795      2798      2801      2797      2795      2798      2799
      2797      2795      2798      2800      2797      2795      2798      2801
      2798      2801      2803      2804      2798      2801      2803      2805
      2799      2798      2801      2802      2799      2798      2801      2803
      2800      2798      2801      2802      2800      2798      2801      2803
      2801      2803      2805      2806      2801      2803      2805      2807
      2801      2803      2805      2808      2802      2801      2803      2804
      2802      2801      2803      2805      2803      2805      2808      2809
      2803      2805      2808      2810      2804      2803      2805      2806
      2804      2803      2805      2807      2804      2803      2805      2808
      2805      2808      2810      2811      2805      2808      2810      2812
      2806      2805      2808      2809      2806      2805      2808      2810
      2807      2805      2808      2809      2807      2805      2808      2810
      2808      2810      2812      2813      2808      2810      2812      2814
      2808      2810      2812      2815      2809      2808      2810      2811
      2809      2808      2810      2812      2810      2812      2815      2816
      2810      2812      2815      2817      2811      2810      2812      2813
      2811      2810      2812      2814      2811      2810      2812      2815
      2812      2815      2817      2818      2812      2815      2817      2819
      2813      2812      2815      2816      2813      2812      2815      2817
      2814      2812      2815      2816      2814      2812      2815      2817
      2815      2817      2819      2820      2815      2817      2819      2821
      2815      2817      2819      2822      2816      2815      2817      2818
      2816      2815      2817      2819      2817      2819      2822      2823
      2817      2819      2822      2824      2818      2817      2819      2820
      2818      2817      2819      2821      2818      2817      2819      2822
      2819      2822      2824      2825      2819      2822      2824      2826
      2820      2819      2822      2823      2820      2819      2822      2824
      2821      2819      2822      2823      2821      2819      2822      2824
      2822      2824      2826      2827      2822      2824      2826      2828
      2822      2824      2826      2829      2823      2822      2824      2825
      2823      2822      2824      2826      2824      2826      2829      2830
      2824      2826      2829      2831      2824      2826      2829      2832
      2825      2824      2826      2827      2825      2824      2826      2828
      2825      2824      2826      2829      2826      2829      2832      2833
      2826      2829      2832      2834      2826      2829      2832      2835
      2827      2826      2829      2830      2827      2826      2829      2831
      2827      2826      2829      2832      2828      2826      2829      2830
      2828      2826      2829      2831      2828      2826      2829      2832
      2829      2832      2835      2836      2829      2832      2835      2837
      2829      2832      2835      2838      2830      2829      2832      2833
      2830      2829      2832      2834      2830      2829      2832      2835
      2831      2829      2832      2833      2831      2829      2832      2834
      2831      2829      2832      2835      2832      2835      2838      2839
      2832      2835      2838      2840      2832      2835      2838      2841
      2833      2832      2835      2836      2833      2832      2835      2837
      2833      2832      2835      2838      2834      2832      2835      2836
      2834      2832      2835      2837      2834      2832      2835      2838
      2836      2835      2838      2839      2836      2835      2838      2840
      2836      2835      2838      2841      2837      2835      2838      2839
      2837      2835      2838      2840      2837      2835      2838      2841
      2842      2845      2848      2849      2842      2845      2848      2850
      2842      2845      2848      2851      2843      2842      2845      2846
      2843      2842      2845      2847      2843      2842      2845      2848
      2844      2842      2845      2846      2844      2842      2845      2847
      2844      2842      2845      2848      2845      2848      2851      2852
      2845      2848      2851      2853      2845      2848      2851      2854
      2846      2845      2848      2849      2846      2845      2848      2850
      2846      2845      2848      2851      2847      2845      2848      2849
      2847      2845      2848      2850      2847      2845      2848      2851
      2848      2851      2854      2855      2848      2851      2854      2856
      2848      2851      2854      2857      2849      2848      2851      2852
      2849      2848      2851      2853      2849      2848      2851      2854
      2850      2848      2851      2852      2850      2848      2851      2853
      2850      2848      2851      2854      2851      2854      2857      2858
      2851      2854      2857      2859      2851      2854      2857      2860
      2852      2851      2854      2855      2852      2851      2854      2856
      2852      2851      2854      2857      2853      2851      2854      2855
      2853      2851      2854      2856      2853      2851      2854      2857
      2854      2857      2860      2861      2854      2857      2860      2862
      2854      2857      2860      2863      2855      2854      2857      2858
      2855      2854      2857      2859      2855      2854      2857      2860
      2856      2854      2857      2858      2856      2854      2857      2859
      2856      2854      2857      2860      2857      2860      2863      2864
      2857      2860      2863      2865      2857      2860      2863      2866
      2858      2857      2860      2861      2858      2857      2860      2862
      2858      2857      2860      2863      2859      2857      2860      2861
      2859      2857      2860      2862      2859      2857      2860      2863
      2860      2863      2866      2867      2860      2863      2866      2868
      2860      2863      2866      2869      2861      2860      2863      2864
      2861      2860      2863      2865      2861      2860      2863      2866
      2862      2860      2863      2864      2862      2860      2863      2865
      2862      2860      2863      2866      2863      2866      2869      2870
      2863      2866      2869      2871      2863      2866      2869      2872
      2864      2863      2866      2867      2864      2863      2866      2868
      2864      2863      2866      2869      2865      2863      2866      2867
      2865      2863      2866      2868      2865      2863      2866      2869
      2866      2869      2872      2873      2866      2869      2872      2874
      2866      2869      2872      2875      2867      2866      2869      2870
      2867      2866      2869      2871      2867      2866      2869      2872
      2868      2866      2869      2870      2868      2866      2869      2871
      2868      2866      2869      2872      2869      2872      2875      2876
      2869      2872      2875      2877      2869      2872      2875      2878
      2870      2869      2872      2873      2870      2869      2872      2874
      2870      2869      2872      2875      2871      2869      2872      2873
      2871      2869      2872      2874      2871      2869      2872      2875
      2872      2875      2878      2879      2872      2875      2878      2880
      2872      2875      2878      2881      2873      2872      2875      2876
      2873      2872      2875      2877      2873      2872      2875      2878
      2874      2872      2875      2876      2874      2872      2875      2877
      2874      2872      2875      2878      2875      2878      2881      2882
      2875      2878      2881      2883      2875      2878      2881      2884
      2876      2875      2878      2879      2876      2875      2878      2880
      2876      2875      2878      2881      2877      2875      2878      2879
      2877      2875      2878      2880      2877      2875      2878      2881
      2878      2881      2884      2885      2878      2881      2884      2886
      2878      2881      2884      2887      2879      2878      2881      2882
      2879      2878      2881      2883      2879      2878      2881      2884
      2880      2878      2881      2882      2880      2878      2881      2883
      2880      2878      2881      2884      2881      2884      2887      2888
      2881      2884      2887      2889      2881      2884      2887      2890
      2882      2881      2884      2885      2882      2881      2884      2886
      2882      2881      2884      2887      2883      2881      2884      2885
      2883      2881      2884      2886      2883      2881      2884      2887
      2885      2884      2887      2888      2885      2884      2887      2889
      2885      2884      2887      2890      2886      2884      2887      2888
      2886      2884      2887      2889      2886      2884      2887      2890
     10875     10879     10881     10882     10875     10879     10883     10884
     10875     10879     10883     10885     10875     10879     10883     10887
     10875     10895     10891     10887     10875     10895     10891     10892
     10875     10895     10891     10893     10875     10895     10900     10897
     10876     10875     10877     10878     10876     10875     10879     10880
     10876     10875     10879     10881     10876     10875     10879     10883
     10876     10875     10895     10891     10876     10875     10895     10896
     10876     10875     10895     10900     10877     10875     10879     10880
     10877     10875     10879     10881     10877     10875     10879     10883
     10877     10875     10895     10891     10877     10875     10895     10896
     10877     10875     10895     10900     10878     10877     10875     10879
     10878     10877     10875     10895     10879     10875     10895     10891
     10879     10875     10895     10896     10879     10875     10895     10900
     10879     10883     10885     10886     10879     10883     10887     10888
     10879     10883     10887     10889     10879     10883     10887     10891
     10880     10879     10875     10895     10880     10879     10881     10882
     10880     10879     10883     10884     10880     10879     10883     10885
     10880     10879     10883     10887     10881     10879     10875     10895
     10881     10879     10883     10884     10881     10879     10883     10885
     10881     10879     10883     10887     10882     10881     10879     10883
     10883     10879     10875     10895     10883     10887     10889     10890
     10883     10887     10891     10892     10883     10887     10891     10893
     10883     10887     10891     10895     10884     10883     10885     10886
     10884     10883     10887     10888     10884     10883     10887     10889
     10884     10883     10887     10891     10885     10883     10887     10888
     10885     10883     10887     10889     10885     10883     10887     10891
     10886     10885     10883     10887     10887     10891     10893     10894
     10887     10891     10895     10896     10887     10891     10895     10900
     10888     10887     10889     10890     10888     10887     10891     10892
     10888     10887     10891     10893     10888     10887     10891     10895
     10889     10887     10891     10892     10889     10887     10891     10893
     10889     10887     10891     10895     10890     10889     10887     10891
     10891     10895     10900     10897     10892     10891     10893     10894
     10892     10891     10895     10896     10892     10891     10895     10900
     10893     10891     10895     10896     10893     10891     10895     10900
     10894     10893     10891     10895     10895     10900     10897     10898
     10895     10900     10897     10899     10895     10900     10897     10901
     10896     10895     10900     10897     10897     10901     10902     10903
     10897     10901     10902     10904     10897     10901     10902     10905
     10898     10897     10901     10902     10899     10897     10901     10902
     10900     10897     10901     10902     10901     10902     10905     10906
     10901     10902     10905     10907     10901     10902     10905     10913
     10902     10905     10907     10908     10902     10905     10913     10914
     10902     10905     10913     10915     10902     10905     10913     10916
     10903     10902     10905     10906     10903     10902     10905     10907
     10903     10902     10905     10913     10904     10902     10905     10906
     10904     10902     10905     10907     10904     10902     10905     10913
     10905     10907     10908     10909     10905     10907     10908     10910
     10905     10913     10916     10917     10906     10905     10907     10908
     10906     10905     10913     10914     10906     10905     10913     10915
     10906     10905     10913     10916     10907     10905     10913     10914
     10907     10905     10913     10915     10907     10905     10913     10916
     10907     10908     10910     10911     10907     10908     10910     10912
     10907     10908     10910     10922     10908     10907     10905     10913
     10908     10910     10922     10923     10908     10910     10922     10924
     10908     10910     10922     10925     10909     10908     10910     10911
     10909     10908     10910     10912     10909     10908     10910     10922
     10910     10922     10925     10926     10910     10922     10925     10927
     10910     10922     10925     10928     10911     10910     10922     10923
     10911     10910     10922     10924     10911     10910     10922     10925
     10912     10910     10922     10923     10912     10910     10922     10924
     10912     10910     10922     10925     10913     10916     10917     10918
     10913     10916     10917     10919     10914     10913     10916     10917
     10915     10913     10916     10917     10916     10917     10919     10920
     10916     10917     10919     10921     10916     10917     10919     10969
     10917     10919     10969     10970     10917     10919     10969     10971
     10917     10919     10969     10972     10918     10917     10919     10920
     10918     10917     10919     10921     10918     10917     10919     10969
     10919     10969     10972     10973     10919     10969     10972     10974
     10919     10969     10972     10975     10920     10919     10969     10970
     10920     10919     10969     10971     10920     10919     10969     10972
     10921     10919     10969     10970     10921     10919     10969     10971
     10921     10919     10969     10972     10922     10925     10928     10929
     10922     10925     10928     10930     10923     10922     10925     10926
     10923     10922     10925     10927     10923     10922     10925     10928
     10924     10922     10925     10926     10924     10922     10925     10927
     10924     10922     10925     10928     10925     10928     10930     10931
     10925     10928     10930     10932     10926     10925     10928     10929
     10926     10925     10928     10930     10927     10925     10928     10929
     10927     10925     10928     10930     10928     10930     10932     10933
     10928     10930     10932     10934     10928     10930     10932     10935
     10929     10928     10930     10931     10929     10928     10930     10932
     10930     10932     10935     10936     10930     10932     10935     10937
     10931     10930     10932     10933     10931     10930     10932     10934
     10931     10930     10932     10935     10932     10935     10937     10938
     10932     10935     10937     10939     10933     10932     10935     10936
     10933     10932     10935     10937     10934     10932     10935     10936
     10934     10932     10935     10937     10935     10937     10939     10940
     10935     10937     10939     10941     10935     10937     10939     10942
     10936     10935     10937     10938     10936     10935     10937     10939
     10937     10939     10942     10943     10937     10939     10942     10944
     10938     10937     10939     10940     10938     10937     10939     10941
     10938     10937     10939     10942     10939     10942     10944     10945
     10939     10942     10944     10946     10940     10939     10942     10943
     10940     10939     10942     10944     10941     10939     10942     10943
     10941     10939     10942     10944     10942     10944     10946     10947
     10942     10944     10946     10948     10942     10944     10946     10949
     10943     10942     10944     10945     10943     10942     10944     10946
     10944     10946     10949     10950     10944     10946     10949     10951
     10945     10944     10946     10947     10945     10944     10946     10948
     10945     10944     10946     10949     10946     10949     10951     10952
     10946     10949     10951     10953     10947     10946     10949     10950
     10947     10946     10949     10951     10948     10946     10949     10950
     10948     10946     10949     10951     10949     10951     10953     10954
     10949     10951     10953     10955     10949     10951     10953     10956
     10950     10949     10951     10952     10950     10949     10951     10953
     10951     10953     10956     10957     10951     10953     10956     10958
     10951     10953     10956     10959     10952     10951     10953     10954
     10952     10951     10953     10955     10952     10951     10953     10956
     10953     10956     10959     10960     10953     10956     10959     10961
     10953     10956     10959     10962     10954     10953     10956     10957
     10954     10953     10956     10958     10954     10953     10956     10959
     10955     10953     10956     10957     10955     10953     10956     10958
     10955     10953     10956     10959     10956     10959     10962     10963
     10956     10959     10962     10964     10956     10959     10962     10965
     10957     10956     10959     10960     10957     10956     10959     10961
     10957     10956     10959     10962     10958     10956     10959     10960
     10958     10956     10959     10961     10958     10956     10959     10962
     10959     10962     10965     10966     10959     10962     10965     10967
     10959     10962     10965     10968     10960     10959     10962     10963
     10960     10959     10962     10964     10960     10959     10962     10965
     10961     10959     10962     10963     10961     10959     10962     10964
     10961     10959     10962     10965     10963     10962     10965     10966
     10963     10962     10965     10967     10963     10962     10965     10968
     10964     10962     10965     10966     10964     10962     10965     10967
     10964     10962     10965     10968     10969     10972     10975     10976
     10969     10972     10975     10977     10969     10972     10975     10978
     10970     10969     10972     10973     10970     10969     10972     10974
     10970     10969     10972     10975     10971     10969     10972     10973
     10971     10969     10972     10974     10971     10969     10972     10975
     10972     10975     10978     10979     10972     10975     10978     10980
     10972     10975     10978     10981     10973     10972     10975     10976
     10973     10972     10975     10977     10973     10972     10975     10978
     10974     10972     10975     10976     10974     10972     10975     10977
     10974     10972     10975     10978     10975     10978     10981     10982
     10975     10978     10981     10983     10975     10978     10981     10984
     10976     10975     10978     10979     10976     10975     10978     10980
     10976     10975     10978     10981     10977     10975     10978     10979
     10977     10975     10978     10980     10977     10975     10978     10981
     10978     10981     10984     10985     10978     10981     10984     10986
     10978     10981     10984     10987     10979     10978     10981     10982
     10979     10978     10981     10983     10979     10978     10981     10984
     10980     10978     10981     10982     10980     10978     10981     10983
     10980     10978     10981     10984     10981     10984     10987     10988
     10981     10984     10987     10989     10981     10984     10987     10990
     10982     10981     10984     10985     10982     10981     10984     10986
     10982     10981     10984     10987     10983     10981     10984     10985
     10983     10981     10984     10986     10983     10981     10984     10987
     10984     10987     10990     10991     10984     10987     10990     10992
     10984     10987     10990     10993     10985     10984     10987     10988
     10985     10984     10987     10989     10985     10984     10987     10990
     10986     10984     10987     10988     10986     10984     10987     10989
     10986     10984     10987     10990     10987     10990     10993     10994
     10987     10990     10993     10995     10987     10990     10993     10996
     10988     10987     10990     10991     10988     10987     10990     10992
     10988     10987     10990     10993     10989     10987     10990     10991
     10989     10987     10990     10992     10989     10987     10990     10993
     10990     10993     10996     10997     10990     10993     10996     10998
     10990     10993     10996     10999     10991     10990     10993     10994
     10991     10990     10993     10995     10991     10990     10993     10996
     10992     10990     10993     10994     10992     10990     10993     10995
     10992     10990     10993     10996     10993     10996     10999     11000
     10993     10996     10999     11001     10993     10996     10999     11002
     10994     10993     10996     10997     10994     10993     10996     10998
     10994     10993     10996     10999     10995     10993     10996     10997
     10995     10993     10996     10998     10995     10993     10996     10999
     10996     10999     11002     11003     10996     10999     11002     11004
     10996     10999     11002     11005     10997     10996     10999     11000
     10997     10996     10999     11001     10997     10996     10999     11002
     10998     10996     10999     11000     10998     10996     10999     11001
     10998     10996     10999     11002     10999     11002     11005     11006
     10999     11002     11005     11007     10999     11002     11005     11008
     11000     10999     11002     11003     11000     10999     11002     11004
     11000     10999     11002     11005     11001     10999     11002     11003
     11001     10999     11002     11004     11001     10999     11002     11005
     11002     11005     11008     11009     11002     11005     11008     11010
     11002     11005     11008     11011     11003     11002     11005     11006
     11003     11002     11005     11007     11003     11002     11005     11008
     11004     11002     11005     11006     11004     11002     11005     11007
     11004     11002     11005     11008     11005     11008     11011     11012
     11005     11008     11011     11013     11005     11008     11011     11014
     11006     11005     11008     11009     11006     11005     11008     11010
     11006     11005     11008     11011     11007     11005     11008     11009
     11007     11005     11008     11010     11007     11005     11008     11011
     11008     11011     11014     11015     11008     11011     11014     11016
     11008     11011     11014     11017     11009     11008     11011     11012
     11009     11008     11011     11013     11009     11008     11011     11014
     11010     11008     11011     11012     11010     11008     11011     11013
     11010     11008     11011     11014     11012     11011     11014     11015
     11012     11011     11014     11016     11012     11011     11014     11017
     11013     11011     11014     11015     11013     11011     11014     11016
     11013     11011     11014     11017      5923      5927      5930      5931
      5923      5927      5930      5961      5923      5969      5966      5961
      5923      5969      5966      5967      5923      5969      5966      5968
      5924      5923      5925      5926      5924      5923      5927      5928
      5924      5923      5927      5929      5924      5923      5927      5930
      5924      5923      5969      5966      5924      5923      5969      5970
      5924      5923      5969      5971      5925      5923      5927      5928
      5925      5923      5927      5929      5925      5923      5927      5930
      5925      5923      5969      5966      5925      5923      5969      5970
      5925      5923      5969      5971      5926      5925      5923      5927
      5926      5925      5923      5969      5927      5923      5969      5966
      5927      5923      5969      5970      5927      5923      5969      5971
      5927      5930      5931      5932      5927      5930      5931      5933
      5927      5930      5961      5959      5927      5930      5961      5962
      5927      5930      5961      5966      5928      5927      5923      5969
      5928      5927      5930      5931      5928      5927      5930      5961
      5929      5927      5923      5969      5929      5927      5930      5931
      5929      5927      5930      5961      5930      5927      5923      5969
      5930      5931      5933      5934      5930      5931      5933      5935
      5930      5931      5933      5936      5930      5961      5959      5936
      5930      5961      5959      5956      5930      5961      5959      5960
      5930      5961      5962      5963      5930      5961      5962      5964
      5930      5961      5962      5965      5930      5961      5966      5967
      5930      5961      5966      5968      5930      5961      5966      5969
      5931      5930      5961      5959      5931      5930      5961      5962
      5931      5930      5961      5966      5931      5933      5936      5937
      5931      5933      5936      5938      5931      5933      5936      5959
      5932      5931      5930      5961      5932      5931      5933      5934
      5932      5931      5933      5935      5932      5931      5933      5936
      5933      5931      5930      5961      5933      5936      5938      5939
      5933      5936      5938      5940      5933      5936      5938      5948
      5933      5936      5959      5956      5933      5936      5959      5960
      5933      5936      5959      5961      5934      5933      5936      5937
      5934      5933      5936      5938      5934      5933      5936      5959
      5935      5933      5936      5937      5935      5933      5936      5938
      5935      5933      5936      5959      5936      5938      5940      5941
      5936      5938      5940      5942      5936      5938      5940      5943
      5936      5938      5948      5946      5936      5938      5948      5949
      5936      5938      5948      5953      5936      5959      5956      5953
      5936      5959      5956      5957      5936      5959      5956      5958
      5936      5959      5961      5962      5936      5959      5961      5966
      5937      5936      5938      5939      5937      5936      5938      5940
      5937      5936      5938      5948      5937      5936      5959      5956
      5937      5936      5959      5960      5937      5936      5959      5961
      5938      5936      5959      5956      5938      5936      5959      5960
      5938      5936      5959      5961      5938      5940      5943      5944
      5938      5940      5943      5945      5938      5940      5943      5946
      5938      5948      5946      5943      5938      5948      5946      5947
      5938      5948      5946      5972      5938      5948      5949      5950
      5938      5948      5949      5951      5938      5948      5949      5952
      5938      5948      5953      5954      5938      5948      5953      5955
      5938      5948      5953      5956      5939      5938      5936      5959
      5939      5938      5940      5941      5939      5938      5940      5942
      5939      5938      5940      5943      5939      5938      5948      5946
      5939      5938      5948      5949      5939      5938      5948      5953
      5940      5938      5936      5959      5940      5938      5948      5946
      5940      5938      5948      5949      5940      5938      5948      5953
      5940      5943      5946      5947      5940      5943      5946      5948
      5940      5943      5946      5972      5941      5940      5938      5948
      5941      5940      5943      5944      5941      5940      5943      5945
      5941      5940      5943      5946      5942      5940      5938      5948
      5942      5940      5943      5944      5942      5940      5943      5945
      5942      5940      5943      5946      5943      5940      5938      5948
      5943      5946      5948      5949      5943      5946      5948      5953
      5943      5946      5972      5973      5943      5946      5972      5974
      5943      5946      5972      5978      5944      5943      5946      5947
      5944      5943      5946      5948      5944      5943      5946      5972
      5945      5943      5946      5947      5945      5943      5946      5948
      5945      5943      5946      5972      5946      5948      5949      5950
      5946      5948      5949      5951      5946      5948      5949      5952
      5946      5948      5953      5954      5946      5948      5953      5955
      5946      5948      5953      5956      5946      5972      5974      5975
      5946      5972      5974      5976      5946      5972      5974      5977
      5946      5972      5978      5979      5946      5972      5978      5980
      5946      5972      5978      5981      5947      5946      5948      5949
      5947      5946      5948      5953      5947      5946      5972      5973
      5947      5946      5972      5974      5947      5946      5972      5978
      5948      5938      5936      5959      5948      5946      5972      5973
      5948      5946      5972      5974      5948      5946      5972      5978
      5948      5953      5956      5957      5948      5953      5956      5958
      5948      5953      5956      5959      5949      5948      5946      5972
      5949      5948      5953      5954      5949      5948      5953      5955
      5949      5948      5953      5956      5950      5949      5948      5953
      5951      5949      5948      5953      5952      5949      5948      5953
      5953      5948      5946      5972      5953      5956      5959      5960
      5953      5956      5959      5961      5954      5953      5956      5957
      5954      5953      5956      5958      5954      5953      5956      5959
      5955      5953      5956      5957      5955      5953      5956      5958
      5955      5953      5956      5959      5956      5959      5961      5962
      5956      5959      5961      5966      5957      5956      5959      5960
      5957      5956      5959      5961      5958      5956      5959      5960
      5958      5956      5959      5961      5959      5961      5962      5963
      5959      5961      5962      5964      5959      5961      5962      5965
      5959      5961      5966      5967      5959      5961      5966      5968
      5959      5961      5966      5969      5960      5959      5961      5962
      5960      5959      5961      5966      5961      5966      5969      5970
      5961      5966      5969      5971      5962      5961      5966      5967
      5962      5961      5966      5968      5962      5961      5966      5969
      5963      5962      5961      5966      5964      5962      5961      5966
      5965      5962      5961      5966      5967      5966      5969      5970
      5967      5966      5969      5971      5968      5966      5969      5970
      5968      5966      5969      5971      5972      5978      5981      5982
      5972      5978      5981      5983      5972      5978      5981      5984
      5973      5972      5974      5975      5973      5972      5974      5976
      5973      5972      5974      5977      5973      5972      5978      5979
      5973      5972      5978      5980      5973      5972      5978      5981
      5974      5972      5978      5979      5974      5972      5978      5980
      5974      5972      5978      5981      5975      5974      5972      5978
      5976      5974      5972      5978      5977      5974      5972      5978
      5978      5981      5984      5985      5978      5981      5984      5986
      5978      5981      5984      5987      5979      5978      5981      5982
      5979      5978      5981      5983      5979      5978      5981      5984
      5980      5978      5981      5982      5980      5978      5981      5983
      5980      5978      5981      5984      5981      5984      5987      5988
      5981      5984      5987      5989      5981      5984      5987      5993
      5982      5981      5984      5985      5982      5981      5984      5986
      5982      5981      5984      5987      5983      5981      5984      5985
      5983      5981      5984      5986      5983      5981      5984      5987
      5984      5987      5989      5990      5984      5987      5989      5991
      5984      5987      5989      5992      5984      5987      5993      5994
      5984      5987      5993      5995      5984      5987      5993      5996
      5985      5984      5987      5988      5985      5984      5987      5989
      5985      5984      5987      5993      5986      5984      5987      5988
      5986      5984      5987      5989      5986      5984      5987      5993
      5988      5987      5989      5990      5988      5987      5989      5991
      5988      5987      5989      5992      5988      5987      5993      5994
      5988      5987      5993      5995      5988      5987      5993      5996
      5989      5987      5993      5994      5989      5987      5993      5995
      5989      5987      5993      5996      5990      5989      5987      5993
      5991      5989      5987      5993      5992      5989      5987      5993
      5997      6001      6004      6005      5997      6001      6004      6035
      5997      6043      6040      6035      5997      6043      6040      6041
      5997      6043      6040      6042      5998      5997      5999      6000
      5998      5997      6001      6002      5998      5997      6001      6003
      5998      5997      6001      6004      5998      5997      6043      6040
      5998      5997      6043      6044      5998      5997      6043      6045
      5999      5997      6001      6002      5999      5997      6001      6003
      5999      5997      6001      6004      5999      5997      6043      6040
      5999      5997      6043      6044      5999      5997      6043      6045
      6000      5999      5997      6001      6000      5999      5997      6043
      6001      5997      6043      6040      6001      5997      6043      6044
      6001      5997      6043      6045      6001      6004      6005      6006
      6001      6004      6005      6007      6001      6004      6035      6033
      6001      6004      6035      6036      6001      6004      6035      6040
      6002      6001      5997      6043      6002      6001      6004      6005
      6002      6001      6004      6035      6003      6001      5997      6043
      6003      6001      6004      6005      6003      6001      6004      6035
      6004      6001      5997      6043      6004      6005      6007      6008
      6004      6005      6007      6009      6004      6005      6007      6010
      6004      6035      6033      6010      6004      6035      6033      6030
      6004      6035      6033      6034      6004      6035      6036      6037
      6004      6035      6036      6038      6004      6035      6036      6039
      6004      6035      6040      6041      6004      6035      6040      6042
      6004      6035      6040      6043      6005      6004      6035      6033
      6005      6004      6035      6036      6005      6004      6035      6040
      6005      6007      6010      6011      6005      6007      6010      6012
      6005      6007      6010      6033      6006      6005      6004      6035
      6006      6005      6007      6008      6006      6005      6007      6009
      6006      6005      6007      6010      6007      6005      6004      6035
      6007      6010      6012      6013      6007      6010      6012      6014
      6007      6010      6012      6022      6007      6010      6033      6030
      6007      6010      6033      6034      6007      6010      6033      6035
      6008      6007      6010      6011      6008      6007      6010      6012
      6008      6007      6010      6033      6009      6007      6010      6011
      6009      6007      6010      6012      6009      6007      6010      6033
      6010      6012      6014      6015      6010      6012      6014      6016
      6010      6012      6014      6017      6010      6012      6022      6020
      6010      6012      6022      6023      6010      6012      6022      6027
      6010      6033      6030      6027      6010      6033      6030      6031
      6010      6033      6030      6032      6010      6033      6035      6036
      6010      6033      6035      6040      6011      6010      6012      6013
      6011      6010      6012      6014      6011      6010      6012      6022
      6011      6010      6033      6030      6011      6010      6033      6034
      6011      6010      6033      6035      6012      6010      6033      6030
      6012      6010      6033      6034      6012      6010      6033      6035
      6012      6014      6017      6018      6012      6014      6017      6019
      6012      6014      6017      6020      6012      6022      6020      6017
      6012      6022      6020      6021      6012      6022      6020      6046
      6012      6022      6023      6024      6012      6022      6023      6025
      6012      6022      6023      6026      6012      6022      6027      6028
      6012      6022      6027      6029      6012      6022      6027      6030
      6013      6012      6010      6033      6013      6012      6014      6015
      6013      6012      6014      6016      6013      6012      6014      6017
      6013      6012      6022      6020      6013      6012      6022      6023
      6013      6012      6022      6027      6014      6012      6010      6033
      6014      6012      6022      6020      6014      6012      6022      6023
      6014      6012      6022      6027      6014      6017      6020      6021
      6014      6017      6020      6022      6014      6017      6020      6046
      6015      6014      6012      6022      6015      6014      6017      6018
      6015      6014      6017      6019      6015      6014      6017      6020
      6016      6014      6012      6022      6016      6014      6017      6018
      6016      6014      6017      6019      6016      6014      6017      6020
      6017      6014      6012      6022      6017      6020      6022      6023
      6017      6020      6022      6027      6017      6020      6046      6047
      6017      6020      6046      6048      6017      6020      6046      6052
      6018      6017      6020      6021      6018      6017      6020      6022
      6018      6017      6020      6046      6019      6017      6020      6021
      6019      6017      6020      6022      6019      6017      6020      6046
      6020      6022      6023      6024      6020      6022      6023      6025
      6020      6022      6023      6026      6020      6022      6027      6028
      6020      6022      6027      6029      6020      6022      6027      6030
      6020      6046      6048      6049      6020      6046      6048      6050
      6020      6046      6048      6051      6020      6046      6052      6053
      6020      6046      6052      6054      6020      6046      6052      6055
      6021      6020      6022      6023      6021      6020      6022      6027
      6021      6020      6046      6047      6021      6020      6046      6048
      6021      6020      6046      6052      6022      6012      6010      6033
      6022      6020      6046      6047      6022      6020      6046      6048
      6022      6020      6046      6052      6022      6027      6030      6031
      6022      6027      6030      6032      6022      6027      6030      6033
      6023      6022      6020      6046      6023      6022      6027      6028
      6023      6022      6027      6029      6023      6022      6027      6030
      6024      6023      6022      6027      6025      6023      6022      6027
      6026      6023      6022      6027      6027      6022      6020      6046
      6027      6030      6033      6034      6027      6030      6033      6035
      6028      6027      6030      6031      6028      6027      6030      6032
      6028      6027      6030      6033      6029      6027      6030      6031
      6029      6027      6030      6032      6029      6027      6030      6033
      6030      6033      6035      6036      6030      6033      6035      6040
      6031      6030      6033      6034      6031      6030      6033      6035
      6032      6030      6033      6034      6032      6030      6033      6035
      6033      6035      6036      6037      6033      6035      6036      6038
      6033      6035      6036      6039      6033      6035      6040      6041
      6033      6035      6040      6042      6033      6035      6040      6043
      6034      6033      6035      6036      6034      6033      6035      6040
      6035      6040      6043      6044      6035      6040      6043      6045
      6036      6035      6040      6041      6036      6035      6040      6042
      6036      6035      6040      6043      6037      6036      6035      6040
      6038      6036      6035      6040      6039      6036      6035      6040
      6041      6040      6043      6044      6041      6040      6043      6045
      6042      6040      6043      6044      6042      6040      6043      6045
      6046      6052      6055      6056      6046      6052      6055      6057
      6046      6052      6055      6058      6047      6046      6048      6049
      6047      6046      6048      6050      6047      6046      6048      6051
      6047      6046      6052      6053      6047      6046      6052      6054
      6047      6046      6052      6055      6048      6046      6052      6053
      6048      6046      6052      6054      6048      6046      6052      6055
      6049      6048      6046      6052      6050      6048      6046      6052
      6051      6048      6046      6052      6052      6055      6058      6059
      6052      6055      6058      6060      6052      6055      6058      6061
      6053      6052      6055      6056      6053      6052      6055      6057
      6053      6052      6055      6058      6054      6052      6055      6056
      6054      6052      6055      6057      6054      6052      6055      6058
      6055      6058      6061      6062      6055      6058      6061      6063
      6055      6058      6061      6067      6056      6055      6058      6059
      6056      6055      6058      6060      6056      6055      6058      6061
      6057      6055      6058      6059      6057      6055      6058      6060
      6057      6055      6058      6061      6058      6061      6063      6064
      6058      6061      6063      6065      6058      6061      6063      6066
      6058      6061      6067      6068      6058      6061      6067      6069
      6058      6061      6067      6070      6059      6058      6061      6062
      6059      6058      6061      6063      6059      6058      6061      6067
      6060      6058      6061      6062      6060      6058      6061      6063
      6060      6058      6061      6067      6062      6061      6063      6064
      6062      6061      6063      6065      6062      6061      6063      6066
      6062      6061      6067      6068      6062      6061      6067      6069
      6062      6061      6067      6070      6063      6061      6067      6068
      6063      6061      6067      6069      6063      6061      6067      6070
      6064      6063      6061      6067      6065      6063      6061      6067
      6066      6063      6061      6067      8853      8854      8869      8870
      8853      8854      8869      8871      8853      8854      8869      8875
      8854      8853      8857      8858      8854      8853      8857      8859
      8854      8853      8857      8860      8854      8853      8861      8862
      8854      8853      8861      8863      8854      8853      8861      8864
      8854      8853      8865      8866      8854      8853      8865      8867
      8854      8853      8865      8868      8854      8869      8875      8872
      8855      8854      8853      8857      8855      8854      8853      8861
      8855      8854      8853      8865      8855      8854      8869      8870
      8855      8854      8869      8871      8855      8854      8869      8875
      8856      8854      8853      8857      8856      8854      8853      8861
      8856      8854      8853      8865      8856      8854      8869      8870
      8856      8854      8869      8871      8856      8854      8869      8875
      8857      8853      8854      8869      8857      8853      8861      8862
      8857      8853      8861      8863      8857      8853      8861      8864
      8857      8853      8865      8866      8857      8853      8865      8867
      8857      8853      8865      8868      8858      8857      8853      8861
      8858      8857      8853      8865      8859      8857      8853      8861
      8859      8857      8853      8865      8860      8857      8853      8861
      8860      8857      8853      8865      8861      8853      8854      8869
      8861      8853      8865      8866      8861      8853      8865      8867
      8861      8853      8865      8868      8862      8861      8853      8865
      8863      8861      8853      8865      8864      8861      8853      8865
      8865      8853      8854      8869      8869      8875      8872      8873
      8869      8875      8872      8874      8869      8875      8872      8876
      8870      8869      8875      8872      8871      8869      8875      8872
      8872      8876      8877      8878      8872      8876      8877      8879
      8872      8876      8877      8880      8873      8872      8876      8877
      8874      8872      8876      8877      8875      8872      8876      8877
      8876      8877      8880      8881      8876      8877      8880      8882
      8876      8877      8880      8888      8877      8880      8882      8883
      8877      8880      8888      8889      8877      8880      8888      8890
      8877      8880      8888      8891      8878      8877      8880      8881
      8878      8877      8880      8882      8878      8877      8880      8888
      8879      8877      8880      8881      8879      8877      8880      8882
      8879      8877      8880      8888      8880      8882      8883      8884
      8880      8882      8883      8885      8880      8888      8891      8892
      8881      8880      8882      8883      8881      8880      8888      8889
      8881      8880      8888      8890      8881      8880      8888      8891
      8882      8880      8888      8889      8882      8880      8888      8890
      8882      8880      8888      8891      8882      8883      8885      8886
      8882      8883      8885      8887      8882      8883      8885      8897
      8883      8882      8880      8888      8883      8885      8897      8898
      8883      8885      8897      8899      8883      8885      8897      8900
      8884      8883      8885      8886      8884      8883      8885      8887
      8884      8883      8885      8897      8885      8897      8900      8901
      8885      8897      8900      8902      8885      8897      8900      8903
      8886      8885      8897      8898      8886      8885      8897      8899
      8886      8885      8897      8900      8887      8885      8897      8898
      8887      8885      8897      8899      8887      8885      8897      8900
      8888      8891      8892      8893      8888      8891      8892      8894
      8889      8888      8891      8892      8890      8888      8891      8892
      8891      8892      8894      8895      8891      8892      8894      8896
      8891      8892      8894      8944      8892      8894      8944      8945
      8892      8894      8944      8946      8892      8894      8944      8947
      8893      8892      8894      8895      8893      8892      8894      8896
      8893      8892      8894      8944      8894      8944      8947      8948
      8894      8944      8947      8949      8894      8944      8947      8950
      8895      8894      8944      8945      8895      8894      8944      8946
      8895      8894      8944      8947      8896      8894      8944      8945
      8896      8894      8944      8946      8896      8894      8944      8947
      8897      8900      8903      8904      8897      8900      8903      8905
      8898      8897      8900      8901      8898      8897      8900      8902
      8898      8897      8900      8903      8899      8897      8900      8901
      8899      8897      8900      8902      8899      8897      8900      8903
      8900      8903      8905      8906      8900      8903      8905      8907
      8901      8900      8903      8904      8901      8900      8903      8905
      8902      8900      8903      8904      8902      8900      8903      8905
      8903      8905      8907      8908      8903      8905      8907      8909
      8903      8905      8907      8910      8904      8903      8905      8906
      8904      8903      8905      8907      8905      8907      8910      8911
      8905      8907      8910      8912      8906      8905      8907      8908
      8906      8905      8907      8909      8906      8905      8907      8910
      8907      8910      8912      8913      8907      8910      8912      8914
      8908      8907      8910      8911      8908      8907      8910      8912
      8909      8907      8910      8911      8909      8907      8910      8912
      8910      8912      8914      8915      8910      8912      8914      8916
      8910      8912      8914      8917      8911      8910      8912      8913
      8911      8910      8912      8914      8912      8914      8917      8918
      8912      8914      8917      8919      8913      8912      8914      8915
      8913      8912      8914      8916      8913      8912      8914      8917
      8914      8917      8919      8920      8914      8917      8919      8921
      8915      8914      8917      8918      8915      8914      8917      8919
      8916      8914      8917      8918      8916      8914      8917      8919
      8917      8919      8921      8922      8917      8919      8921      8923
      8917      8919      8921      8924      8918      8917      8919      8920
      8918      8917      8919      8921      8919      8921      8924      8925
      8919      8921      8924      8926      8920      8919      8921      8922
      8920      8919      8921      8923      8920      8919      8921      8924
      8921      8924      8926      8927      8921      8924      8926      8928
      8922      8921      8924      8925      8922      8921      8924      8926
      8923      8921      8924      8925      8923      8921      8924      8926
      8924      8926      8928      8929      8924      8926      8928      8930
      8924      8926      8928      8931      8925      8924      8926      8927
      8925      8924      8926      8928      8926      8928      8931      8932
      8926      8928      8931      8933      8926      8928      8931      8934
      8927      8926      8928      8929      8927      8926      8928      8930
      8927      8926      8928      8931      8928      8931      8934      8935
      8928      8931      8934      8936      8928      8931      8934      8937
      8929      8928      8931      8932      8929      8928      8931      8933
      8929      8928      8931      8934      8930      8928      8931      8932
      8930      8928      8931      8933      8930      8928      8931      8934
      8931      8934      8937      8938      8931      8934      8937      8939
      8931      8934      8937      8940      8932      8931      8934      8935
      8932      8931      8934      8936      8932      8931      8934      8937
      8933      8931      8934      8935      8933      8931      8934      8936
      8933      8931      8934      8937      8934      8937      8940      8941
      8934      8937      8940      8942      8934      8937      8940      8943
      8935      8934      8937      8938      8935      8934      8937      8939
      8935      8934      8937      8940      8936      8934      8937      8938
      8936      8934      8937      8939      8936      8934      8937      8940
      8938      8937      8940      8941      8938      8937      8940      8942
      8938      8937      8940      8943      8939      8937      8940      8941
      8939      8937      8940      8942      8939      8937      8940      8943
      8944      8947      8950      8951      8944      8947      8950      8952
      8944      8947      8950      8953      8945      8944      8947      8948
      8945      8944      8947      8949      8945      8944      8947      8950
      8946      8944      8947      8948      8946      8944      8947      8949
      8946      8944      8947      8950      8947      8950      8953      8954
      8947      8950      8953      8955      8947      8950      8953      8956
      8948      8947      8950      8951      8948      8947      8950      8952
      8948      8947      8950      8953      8949      8947      8950      8951
      8949      8947      8950      8952      8949      8947      8950      8953
      8950      8953      8956      8957      8950      8953      8956      8958
      8950      8953      8956      8959      8951      8950      8953      8954
      8951      8950      8953      8955      8951      8950      8953      8956
      8952      8950      8953      8954      8952      8950      8953      8955
      8952      8950      8953      8956      8953      8956      8959      8960
      8953      8956      8959      8961      8953      8956      8959      8962
      8954      8953      8956      8957      8954      8953      8956      8958
      8954      8953      8956      8959      8955      8953      8956      8957
      8955      8953      8956      8958      8955      8953      8956      8959
      8956      8959      8962      8963      8956      8959      8962      8964
      8956      8959      8962      8965      8957      8956      8959      8960
      8957      8956      8959      8961      8957      8956      8959      8962
      8958      8956      8959      8960      8958      8956      8959      8961
      8958      8956      8959      8962      8959      8962      8965      8966
      8959      8962      8965      8967      8959      8962      8965      8968
      8960      8959      8962      8963      8960      8959      8962      8964
      8960      8959      8962      8965      8961      8959      8962      8963
      8961      8959      8962      8964      8961      8959      8962      8965
      8962      8965      8968      8969      8962      8965      8968      8970
      8962      8965      8968      8971      8963      8962      8965      8966
      8963      8962      8965      8967      8963      8962      8965      8968
      8964      8962      8965      8966      8964      8962      8965      8967
      8964      8962      8965      8968      8965      8968      8971      8972
      8965      8968      8971      8973      8965      8968      8971      8974
      8966      8965      8968      8969      8966      8965      8968      8970
      8966      8965      8968      8971      8967      8965      8968      8969
      8967      8965      8968      8970      8967      8965      8968      8971
      8968      8971      8974      8975      8968      8971      8974      8976
      8968      8971      8974      8977      8969      8968      8971      8972
      8969      8968      8971      8973      8969      8968      8971      8974
      8970      8968      8971      8972      8970      8968      8971      8973
      8970      8968      8971      8974      8971      8974      8977      8978
      8971      8974      8977      8979      8971      8974      8977      8980
      8972      8971      8974      8975      8972      8971      8974      8976
      8972      8971      8974      8977      8973      8971      8974      8975
      8973      8971      8974      8976      8973      8971      8974      8977
      8974      8977      8980      8981      8974      8977      8980      8982
      8974      8977      8980      8983      8975      8974      8977      8978
      8975      8974      8977      8979      8975      8974      8977      8980
      8976      8974      8977      8978      8976      8974      8977      8979
      8976      8974      8977      8980      8977      8980      8983      8984
      8977      8980      8983      8985      8977      8980      8983      8986
      8978      8977      8980      8981      8978      8977      8980      8982
      8978      8977      8980      8983      8979      8977      8980      8981
      8979      8977      8980      8982      8979      8977      8980      8983
      8980      8983      8986      8987      8980      8983      8986      8988
      8980      8983      8986      8989      8981      8980      8983      8984
      8981      8980      8983      8985      8981      8980      8983      8986
      8982      8980      8983      8984      8982      8980      8983      8985
      8982      8980      8983      8986      8983      8986      8989      8990
      8983      8986      8989      8991      8983      8986      8989      8992
      8984      8983      8986      8987      8984      8983      8986      8988
      8984      8983      8986      8989      8985      8983      8986      8987
      8985      8983      8986      8988      8985      8983      8986      8989
      8987      8986      8989      8990      8987      8986      8989      8991
      8987      8986      8989      8992      8988      8986      8989      8990
      8988      8986      8989      8991      8988      8986      8989      8992
      6071      6075      6078      6079      6071      6075      6078      6109
      6071      6117      6114      6109      6071      6117      6114      6115
      6071      6117      6114      6116      6072      6071      6073      6074
      6072      6071      6075      6076      6072      6071      6075      6077
      6072      6071      6075      6078      6072      6071      6117      6114
      6072      6071      6117      6118      6072      6071      6117      6119
      6073      6071      6075      6076      6073      6071      6075      6077
      6073      6071      6075      6078      6073      6071      6117      6114
      6073      6071      6117      6118      6073      6071      6117      6119
      6074      6073      6071      6075      6074      6073      6071      6117
      6075      6071      6117      6114      6075      6071      6117      6118
      6075      6071      6117      6119      6075      6078      6079      6080
      6075      6078      6079      6081      6075      6078      6109      6107
      6075      6078      6109      6110      6075      6078      6109      6114
      6076      6075      6071      6117      6076      6075      6078      6079
      6076      6075      6078      6109      6077      6075      6071      6117
      6077      6075      6078      6079      6077      6075      6078      6109
      6078      6075      6071      6117      6078      6079      6081      6082
      6078      6079      6081      6083      6078      6079      6081      6084
      6078      6109      6107      6084      6078      6109      6107      6104
      6078      6109      6107      6108      6078      6109      6110      6111
      6078      6109      6110      6112      6078      6109      6110      6113
      6078      6109      6114      6115      6078      6109      6114      6116
      6078      6109      6114      6117      6079      6078      6109      6107
      6079      6078      6109      6110      6079      6078      6109      6114
      6079      6081      6084      6085      6079      6081      6084      6086
      6079      6081      6084      6107      6080      6079      6078      6109
      6080      6079      6081      6082      6080      6079      6081      6083
      6080      6079      6081      6084      6081      6079      6078      6109
      6081      6084      6086      6087      6081      6084      6086      6088
      6081      6084      6086      6096      6081      6084      6107      6104
      6081      6084      6107      6108      6081      6084      6107      6109
      6082      6081      6084      6085      6082      6081      6084      6086
      6082      6081      6084      6107      6083      6081      6084      6085
      6083      6081      6084      6086      6083      6081      6084      6107
      6084      6086      6088      6089      6084      6086      6088      6090
      6084      6086      6088      6091      6084      6086      6096      6094
      6084      6086      6096      6097      6084      6086      6096      6101
      6084      6107      6104      6101      6084      6107      6104      6105
      6084      6107      6104      6106      6084      6107      6109      6110
      6084      6107      6109      6114      6085      6084      6086      6087
      6085      6084      6086      6088      6085      6084      6086      6096
      6085      6084      6107      6104      6085      6084      6107      6108
      6085      6084      6107      6109      6086      6084      6107      6104
      6086      6084      6107      6108      6086      6084      6107      6109
      6086      6088      6091      6092      6086      6088      6091      6093
      6086      6088      6091      6094      6086      6096      6094      6091
      6086      6096      6094      6095      6086      6096      6094      6120
      6086      6096      6097      6098      6086      6096      6097      6099
      6086      6096      6097      6100      6086      6096      6101      6102
      6086      6096      6101      6103      6086      6096      6101      6104
      6087      6086      6084      6107      6087      6086      6088      6089
      6087      6086      6088      6090      6087      6086      6088      6091
      6087      6086      6096      6094      6087      6086      6096      6097
      6087      6086      6096      6101      6088      6086      6084      6107
      6088      6086      6096      6094      6088      6086      6096      6097
      6088      6086      6096      6101      6088      6091      6094      6095
      6088      6091      6094      6096      6088      6091      6094      6120
      6089      6088      6086      6096      6089      6088      6091      6092
      6089      6088      6091      6093      6089      6088      6091      6094
      6090      6088      6086      6096      6090      6088      6091      6092
      6090      6088      6091      6093      6090      6088      6091      6094
      6091      6088      6086      6096      6091      6094      6096      6097
      6091      6094      6096      6101      6091      6094      6120      6121
      6091      6094      6120      6122      6091      6094      6120      6126
      6092      6091      6094      6095      6092      6091      6094      6096
      6092      6091      6094      6120      6093      6091      6094      6095
      6093      6091      6094      6096      6093      6091      6094      6120
      6094      6096      6097      6098      6094      6096      6097      6099
      6094      6096      6097      6100      6094      6096      6101      6102
      6094      6096      6101      6103      6094      6096      6101      6104
      6094      6120      6122      6123      6094      6120      6122      6124
      6094      6120      6122      6125      6094      6120      6126      6127
      6094      6120      6126      6128      6094      6120      6126      6129
      6095      6094      6096      6097      6095      6094      6096      6101
      6095      6094      6120      6121      6095      6094      6120      6122
      6095      6094      6120      6126      6096      6086      6084      6107
      6096      6094      6120      6121      6096      6094      6120      6122
      6096      6094      6120      6126      6096      6101      6104      6105
      6096      6101      6104      6106      6096      6101      6104      6107
      6097      6096      6094      6120      6097      6096      6101      6102
      6097      6096      6101      6103      6097      6096      6101      6104
      6098      6097      6096      6101      6099      6097      6096      6101
      6100      6097      6096      6101      6101      6096      6094      6120
      6101      6104      6107      6108      6101      6104      6107      6109
      6102      6101      6104      6105      6102      6101      6104      6106
      6102      6101      6104      6107      6103      6101      6104      6105
      6103      6101      6104      6106      6103      6101      6104      6107
      6104      6107      6109      6110      6104      6107      6109      6114
      6105      6104      6107      6108      6105      6104      6107      6109
      6106      6104      6107      6108      6106      6104      6107      6109
      6107      6109      6110      6111      6107      6109      6110      6112
      6107      6109      6110      6113      6107      6109      6114      6115
      6107      6109      6114      6116      6107      6109      6114      6117
      6108      6107      6109      6110      6108      6107      6109      6114
      6109      6114      6117      6118      6109      6114      6117      6119
      6110      6109      6114      6115      6110      6109      6114      6116
      6110      6109      6114      6117      6111      6110      6109      6114
      6112      6110      6109      6114      6113      6110      6109      6114
      6115      6114      6117      6118      6115      6114      6117      6119
      6116      6114      6117      6118      6116      6114      6117      6119
      6120      6126      6129      6130      6120      6126      6129      6131
      6120      6126      6129      6132      6121      6120      6122      6123
      6121      6120      6122      6124      6121      6120      6122      6125
      6121      6120      6126      6127      6121      6120      6126      6128
      6121      6120      6126      6129      6122      6120      6126      6127
      6122      6120      6126      6128      6122      6120      6126      6129
      6123      6122      6120      6126      6124      6122      6120      6126
      6125      6122      6120      6126      6126      6129      6132      6133
      6126      6129      6132      6134      6126      6129      6132      6135
      6127      6126      6129      6130      6127      6126      6129      6131
      6127      6126      6129      6132      6128      6126      6129      6130
      6128      6126      6129      6131      6128      6126      6129      6132
      6129      6132      6135      6136      6129      6132      6135      6137
      6129      6132      6135      6141      6130      6129      6132      6133
      6130      6129      6132      6134      6130      6129      6132      6135
      6131      6129      6132      6133      6131      6129      6132      6134
      6131      6129      6132      6135      6132      6135      6137      6138
      6132      6135      6137      6139      6132      6135      6137      6140
      6132      6135      6141      6142      6132      6135      6141      6143
      6132      6135      6141      6144      6133      6132      6135      6136
      6133      6132      6135      6137      6133      6132      6135      6141
      6134      6132      6135      6136      6134      6132      6135      6137
      6134      6132      6135      6141      6136      6135      6137      6138
      6136      6135      6137      6139      6136      6135      6137      6140
      6136      6135      6141      6142      6136      6135      6141      6143
      6136      6135      6141      6144      6137      6135      6141      6142
      6137      6135      6141      6143      6137      6135      6141      6144
      6138      6137      6135      6141      6139      6137      6135      6141
      6140      6137      6135      6141      7605      7618      7621      7622
      7605      7618      7621      7623      7605      7618      7621      7627
      7606      7605      7610      7611      7606      7605      7610      7612
      7606      7605      7610      7613      7606      7605      7614      7615
      7606      7605      7614      7616      7606      7605      7614      7617
      7606      7605      7618      7619      7606      7605      7618      7620
      7606      7605      7618      7621      7607      7606      7605      7610
      7607      7606      7605      7614      7607      7606      7605      7618
      7608      7606      7605      7610      7608      7606      7605      7614
      7608      7606      7605      7618      7609      7606      7605      7610
      7609      7606      7605      7614      7609      7606      7605      7618
      7610      7605      7614      7615      7610      7605      7614      7616
      7610      7605      7614      7617      7610      7605      7618      7619
      7610      7605      7618      7620      7610      7605      7618      7621
      7611      7610      7605      7614      7611      7610      7605      7618
      7612      7610      7605      7614      7612      7610      7605      7618
      7613      7610      7605      7614      7613      7610      7605      7618
      7614      7605      7618      7619      7614      7605      7618      7620
      7614      7605      7618      7621      7615      7614      7605      7618
      7616      7614      7605      7618      7617      7614      7605      7618
      7618      7621      7627      7624      7619      7618      7621      7622
      7619      7618      7621      7623      7619      7618      7621      7627
      7620      7618      7621      7622      7620      7618      7621      7623
      7620      7618      7621      7627      7621      7627      7624      7625
      7621      7627      7624      7626      7621      7627      7624      7628
      7622      7621      7627      7624      7623      7621      7627      7624
      7624      7628      7629      7630      7624      7628      7629      7631
      7624      7628      7629      7632      7625      7624      7628      7629
      7626      7624      7628      7629      7627      7624      7628      7629
      7628      7629      7632      7633      7628      7629      7632      7634
      7628      7629      7632      7640      7629      7632      7634      7635
      7629      7632      7640      7641      7629      7632      7640      7642
      7629      7632      7640      7643      7630      7629      7632      7633
      7630      7629      7632      7634      7630      7629      7632      7640
      7631      7629      7632      7633      7631      7629      7632      7634
      7631      7629      7632      7640      7632      7634      7635      7636
      7632      7634      7635      7637      7632      7640      7643      7644
      7633      7632      7634      7635      7633      7632      7640      7641
      7633      7632      7640      7642      7633      7632      7640      7643
      7634      7632      7640      7641      7634      7632      7640      7642
      7634      7632      7640      7643      7634      7635      7637      7638
      7634      7635      7637      7639      7634      7635      7637      7649
      7635      7634      7632      7640      7635      7637      7649      7650
      7635      7637      7649      7651      7635      7637      7649      7652
      7636      7635      7637      7638      7636      7635      7637      7639
      7636      7635      7637      7649      7637      7649      7652      7653
      7637      7649      7652      7654      7637      7649      7652      7655
      7638      7637      7649      7650      7638      7637      7649      7651
      7638      7637      7649      7652      7639      7637      7649      7650
      7639      7637      7649      7651      7639      7637      7649      7652
      7640      7643      7644      7645      7640      7643      7644      7646
      7641      7640      7643      7644      7642      7640      7643      7644
      7643      7644      7646      7647      7643      7644      7646      7648
      7643      7644      7646      7694      7644      7646      7694      7695
      7644      7646      7694      7696      7644      7646      7694      7697
      7645      7644      7646      7647      7645      7644      7646      7648
      7645      7644      7646      7694      7646      7694      7697      7698
      7646      7694      7697      7699      7646      7694      7697      7700
      7647      7646      7694      7695      7647      7646      7694      7696
      7647      7646      7694      7697      7648      7646      7694      7695
      7648      7646      7694      7696      7648      7646      7694      7697
      7649      7652      7655      7656      7649      7652      7655      7657
      7649      7652      7655      7658      7650      7649      7652      7653
      7650      7649      7652      7654      7650      7649      7652      7655
      7651      7649      7652      7653      7651      7649      7652      7654
      7651      7649      7652      7655      7652      7655      7658      7659
      7652      7655      7658      7660      7652      7655      7658      7661
      7653      7652      7655      7656      7653      7652      7655      7657
      7653      7652      7655      7658      7654      7652      7655      7656
      7654      7652      7655      7657      7654      7652      7655      7658
      7655      7658      7661      7662      7655      7658      7661      7663
      7655      7658      7661      7664      7656      7655      7658      7659
      7656      7655      7658      7660      7656      7655      7658      7661
      7657      7655      7658      7659      7657      7655      7658      7660
      7657      7655      7658      7661      7658      7661      7664      7665
      7658      7661      7664      7666      7658      7661      7664      7667
      7659      7658      7661      7662      7659      7658      7661      7663
      7659      7658      7661      7664      7660      7658      7661      7662
      7660      7658      7661      7663      7660      7658      7661      7664
      7661      7664      7667      7668      7661      7664      7667      7669
      7662      7661      7664      7665      7662      7661      7664      7666
      7662      7661      7664      7667      7663      7661      7664      7665
      7663      7661      7664      7666      7663      7661      7664      7667
      7664      7667      7669      7670      7664      7667      7669      7671
      7665      7664      7667      7668      7665      7664      7667      7669
      7666      7664      7667      7668      7666      7664      7667      7669
      7667      7669      7671      7672      7667      7669      7671      7673
      7667      7669      7671      7674      7668      7667      7669      7670
      7668      7667      7669      7671      7669      7671      7674      7675
      7669      7671      7674      7676      7670      7669      7671      7672
      7670      7669      7671      7673      7670      7669      7671      7674
      7671      7674      7676      7677      7671      7674      7676      7678
      7672      7671      7674      7675      7672      7671      7674      7676
      7673      7671      7674      7675      7673      7671      7674      7676
      7674      7676      7678      7679      7674      7676      7678      7680
      7674      7676      7678      7681      7675      7674      7676      7677
      7675      7674      7676      7678      7676      7678      7681      7682
      7676      7678      7681      7683      7676      7678      7681      7684
      7677      7676      7678      7679      7677      7676      7678      7680
      7677      7676      7678      7681      7678      7681      7684      7685
      7678      7681      7684      7686      7678      7681      7684      7687
      7679      7678      7681      7682      7679      7678      7681      7683
      7679      7678      7681      7684      7680      7678      7681      7682
      7680      7678      7681      7683      7680      7678      7681      7684
      7681      7684      7687      7688      7681      7684      7687      7689
      7681      7684      7687      7690      7682      7681      7684      7685
      7682      7681      7684      7686      7682      7681      7684      7687
      7683      7681      7684      7685      7683      7681      7684      7686
      7683      7681      7684      7687      7684      7687      7690      7691
      7684      7687      7690      7692      7684      7687      7690      7693
      7685      7684      7687      7688      7685      7684      7687      7689
      7685      7684      7687      7690      7686      7684      7687      7688
      7686      7684      7687      7689      7686      7684      7687      7690
      7688      7687      7690      7691      7688      7687      7690      7692
      7688      7687      7690      7693      7689      7687      7690      7691
      7689      7687      7690      7692      7689      7687      7690      7693
      7694      7697      7700      7701      7694      7697      7700      7702
      7694      7697      7700      7703      7695      7694      7697      7698
      7695      7694      7697      7699      7695      7694      7697      7700
      7696      7694      7697      7698      7696      7694      7697      7699
      7696      7694      7697      7700      7697      7700      7703      7704
      7697      7700      7703      7705      7697      7700      7703      7706
      7698      7697      7700      7701      7698      7697      7700      7702
      7698      7697      7700      7703      7699      7697      7700      7701
      7699      7697      7700      7702      7699      7697      7700      7703
      7700      7703      7706      7707      7700      7703      7706      7708
      7700      7703      7706      7709      7701      7700      7703      7704
      7701      7700      7703      7705      7701      7700      7703      7706
      7702      7700      7703      7704      7702      7700      7703      7705
      7702      7700      7703      7706      7703      7706      7709      7710
      7703      7706      7709      7711      7703      7706      7709      7712
      7704      7703      7706      7707      7704      7703      7706      7708
      7704      7703      7706      7709      7705      7703      7706      7707
      7705      7703      7706      7708      7705      7703      7706      7709
      7706      7709      7712      7713      7706      7709      7712      7714
      7706      7709      7712      7715      7707      7706      7709      7710
      7707      7706      7709      7711      7707      7706      7709      7712
      7708      7706      7709      7710      7708      7706      7709      7711
      7708      7706      7709      7712      7709      7712      7715      7716
      7709      7712      7715      7717      7709      7712      7715      7718
      7710      7709      7712      7713      7710      7709      7712      7714
      7710      7709      7712      7715      7711      7709      7712      7713
      7711      7709      7712      7714      7711      7709      7712      7715
      7712      7715      7718      7719      7712      7715      7718      7720
      7712      7715      7718      7721      7713      7712      7715      7716
      7713      7712      7715      7717      7713      7712      7715      7718
      7714      7712      7715      7716      7714      7712      7715      7717
      7714      7712      7715      7718      7715      7718      7721      7722
      7715      7718      7721      7723      7715      7718      7721      7724
      7716      7715      7718      7719      7716      7715      7718      7720
      7716      7715      7718      7721      7717      7715      7718      7719
      7717      7715      7718      7720      7717      7715      7718      7721
      7718      7721      7724      7725      7718      7721      7724      7726
      7718      7721      7724      7727      7719      7718      7721      7722
      7719      7718      7721      7723      7719      7718      7721      7724
      7720      7718      7721      7722      7720      7718      7721      7723
      7720      7718      7721      7724      7721      7724      7727      7728
      7721      7724      7727      7729      7721      7724      7727      7730
      7722      7721      7724      7725      7722      7721      7724      7726
      7722      7721      7724      7727      7723      7721      7724      7725
      7723      7721      7724      7726      7723      7721      7724      7727
      7724      7727      7730      7731      7724      7727      7730      7732
      7724      7727      7730      7733      7725      7724      7727      7728
      7725      7724      7727      7729      7725      7724      7727      7730
      7726      7724      7727      7728      7726      7724      7727      7729
      7726      7724      7727      7730      7727      7730      7733      7734
      7727      7730      7733      7735      7727      7730      7733      7736
      7728      7727      7730      7731      7728      7727      7730      7732
      7728      7727      7730      7733      7729      7727      7730      7731
      7729      7727      7730      7732      7729      7727      7730      7733
      7730      7733      7736      7737      7730      7733      7736      7738
      7730      7733      7736      7739      7731      7730      7733      7734
      7731      7730      7733      7735      7731      7730      7733      7736
      7732      7730      7733      7734      7732      7730      7733      7735
      7732      7730      7733      7736      7733      7736      7739      7740
      7733      7736      7739      7741      7733      7736      7739      7742
      7734      7733      7736      7737      7734      7733      7736      7738
      7734      7733      7736      7739      7735      7733      7736      7737
      7735      7733      7736      7738      7735      7733      7736      7739
      7737      7736      7739      7740      7737      7736      7739      7741
      7737      7736      7739      7742      7738      7736      7739      7740
      7738      7736      7739      7741      7738      7736      7739      7742
      6145      6149      6152      6153      6145      6149      6152      6183
      6145      6191      6188      6183      6145      6191      6188      6189
      6145      6191      6188      6190      6146      6145      6147      6148
      6146      6145      6149      6150      6146      6145      6149      6151
      6146      6145      6149      6152      6146      6145      6191      6188
      6146      6145      6191      6192      6146      6145      6191      6193
      6147      6145      6149      6150      6147      6145      6149      6151
      6147      6145      6149      6152      6147      6145      6191      6188
      6147      6145      6191      6192      6147      6145      6191      6193
      6148      6147      6145      6149      6148      6147      6145      6191
      6149      6145      6191      6188      6149      6145      6191      6192
      6149      6145      6191      6193      6149      6152      6153      6154
      6149      6152      6153      6155      6149      6152      6183      6181
      6149      6152      6183      6184      6149      6152      6183      6188
      6150      6149      6145      6191      6150      6149      6152      6153
      6150      6149      6152      6183      6151      6149      6145      6191
      6151      6149      6152      6153      6151      6149      6152      6183
      6152      6149      6145      6191      6152      6153      6155      6156
      6152      6153      6155      6157      6152      6153      6155      6158
      6152      6183      6181      6158      6152      6183      6181      6178
      6152      6183      6181      6182      6152      6183      6184      6185
      6152      6183      6184      6186      6152      6183      6184      6187
      6152      6183      6188      6189      6152      6183      6188      6190
      6152      6183      6188      6191      6153      6152      6183      6181
      6153      6152      6183      6184      6153      6152      6183      6188
      6153      6155      6158      6159      6153      6155      6158      6160
      6153      6155      6158      6181      6154      6153      6152      6183
      6154      6153      6155      6156      6154      6153      6155      6157
      6154      6153      6155      6158      6155      6153      6152      6183
      6155      6158      6160      6161      6155      6158      6160      6162
      6155      6158      6160      6170      6155      6158      6181      6178
      6155      6158      6181      6182      6155      6158      6181      6183
      6156      6155      6158      6159      6156      6155      6158      6160
      6156      6155      6158      6181      6157      6155      6158      6159
      6157      6155      6158      6160      6157      6155      6158      6181
      6158      6160      6162      6163      6158      6160      6162      6164
      6158      6160      6162      6165      6158      6160      6170      6168
      6158      6160      6170      6171      6158      6160      6170      6175
      6158      6181      6178      6175      6158      6181      6178      6179
      6158      6181      6178      6180      6158      6181      6183      6184
      6158      6181      6183      6188      6159      6158      6160      6161
      6159      6158      6160      6162      6159      6158      6160      6170
      6159      6158      6181      6178      6159      6158      6181      6182
      6159      6158      6181      6183      6160      6158      6181      6178
      6160      6158      6181      6182      6160      6158      6181      6183
      6160      6162      6165      6166      6160      6162      6165      6167
      6160      6162      6165      6168      6160      6170      6168      6165
      6160      6170      6168      6169      6160      6170      6168      6194
      6160      6170      6171      6172      6160      6170      6171      6173
      6160      6170      6171      6174      6160      6170      6175      6176
      6160      6170      6175      6177      6160      6170      6175      6178
      6161      6160      6158      6181      6161      6160      6162      6163
      6161      6160      6162      6164      6161      6160      6162      6165
      6161      6160      6170      6168      6161      6160      6170      6171
      6161      6160      6170      6175      6162      6160      6158      6181
      6162      6160      6170      6168      6162      6160      6170      6171
      6162      6160      6170      6175      6162      6165      6168      6169
      6162      6165      6168      6170      6162      6165      6168      6194
      6163      6162      6160      6170      6163      6162      6165      6166
      6163      6162      6165      6167      6163      6162      6165      6168
      6164      6162      6160      6170      6164      6162      6165      6166
      6164      6162      6165      6167      6164      6162      6165      6168
      6165      6162      6160      6170      6165      6168      6170      6171
      6165      6168      6170      6175      6165      6168      6194      6195
      6165      6168      6194      6196      6165      6168      6194      6200
      6166      6165      6168      6169      6166      6165      6168      6170
      6166      6165      6168      6194      6167      6165      6168      6169
      6167      6165      6168      6170      6167      6165      6168      6194
      6168      6170      6171      6172      6168      6170      6171      6173
      6168      6170      6171      6174      6168      6170      6175      6176
      6168      6170      6175      6177      6168      6170      6175      6178
      6168      6194      6196      6197      6168      6194      6196      6198
      6168      6194      6196      6199      6168      6194      6200      6201
      6168      6194      6200      6202      6168      6194      6200      6203
      6169      6168      6170      6171      6169      6168      6170      6175
      6169      6168      6194      6195      6169      6168      6194      6196
      6169      6168      6194      6200      6170      6160      6158      6181
      6170      6168      6194      6195      6170      6168      6194      6196
      6170      6168      6194      6200      6170      6175      6178      6179
      6170      6175      6178      6180      6170      6175      6178      6181
      6171      6170      6168      6194      6171      6170      6175      6176
      6171      6170      6175      6177      6171      6170      6175      6178
      6172      6171      6170      6175      6173      6171      6170      6175
      6174      6171      6170      6175      6175      6170      6168      6194
      6175      6178      6181      6182      6175      6178      6181      6183
      6176      6175      6178      6179      6176      6175      6178      6180
      6176      6175      6178      6181      6177      6175      6178      6179
      6177      6175      6178      6180      6177      6175      6178      6181
      6178      6181      6183      6184      6178      6181      6183      6188
      6179      6178      6181      6182      6179      6178      6181      6183
      6180      6178      6181      6182      6180      6178      6181      6183
      6181      6183      6184      6185      6181      6183      6184      6186
      6181      6183      6184      6187      6181      6183      6188      6189
      6181      6183      6188      6190      6181      6183      6188      6191
      6182      6181      6183      6184      6182      6181      6183      6188
      6183      6188      6191      6192      6183      6188      6191      6193
      6184      6183      6188      6189      6184      6183      6188      6190
      6184      6183      6188      6191      6185      6184      6183      6188
      6186      6184      6183      6188      6187      6184      6183      6188
      6189      6188      6191      6192      6189      6188      6191      6193
      6190      6188      6191      6192      6190      6188      6191      6193
      6194      6200      6203      6204      6194      6200      6203      6205
      6194      6200      6203      6206      6195      6194      6196      6197
      6195      6194      6196      6198      6195      6194      6196      6199
      6195      6194      6200      6201      6195      6194      6200      6202
      6195      6194      6200      6203      6196      6194      6200      6201
      6196      6194      6200      6202      6196      6194      6200      6203
      6197      6196      6194      6200      6198      6196      6194      6200
      6199      6196      6194      6200      6200      6203      6206      6207
      6200      6203      6206      6208      6200      6203      6206      6209
      6201      6200      6203      6204      6201      6200      6203      6205
      6201      6200      6203      6206      6202      6200      6203      6204
      6202      6200      6203      6205      6202      6200      6203      6206
      6203      6206      6209      6210      6203      6206      6209      6211
      6203      6206      6209      6215      6204      6203      6206      6207
      6204      6203      6206      6208      6204      6203      6206      6209
      6205      6203      6206      6207      6205      6203      6206      6208
      6205      6203      6206      6209      6206      6209      6211      6212
      6206      6209      6211      6213      6206      6209      6211      6214
      6206      6209      6215      6216      6206      6209      6215      6217
      6206      6209      6215      6218      6207      6206      6209      6210
      6207      6206      6209      6211      6207      6206      6209      6215
      6208      6206      6209      6210      6208      6206      6209      6211
      6208      6206      6209      6215      6210      6209      6211      6212
      6210      6209      6211      6213      6210      6209      6211      6214
      6210      6209      6215      6216      6210      6209      6215      6217
      6210      6209      6215      6218      6211      6209      6215      6216
      6211      6209      6215      6217      6211      6209      6215      6218
      6212      6211      6209      6215      6213      6211      6209      6215
      6214      6211      6209      6215      7743      7756      7759      7760
      7743      7756      7759      7761      7743      7756      7759      7765
      7744      7743      7748      7749      7744      7743      7748      7750
      7744      7743      7748      7751      7744      7743      7752      7753
      7744      7743      7752      7754      7744      7743      7752      7755
      7744      7743      7756      7757      7744      7743      7756      7758
      7744      7743      7756      7759      7745      7744      7743      7748
      7745      7744      7743      7752      7745      7744      7743      7756
      7746      7744      7743      7748      7746      7744      7743      7752
      7746      7744      7743      7756      7747      7744      7743      7748
      7747      7744      7743      7752      7747      7744      7743      7756
      7748      7743      7752      7753      7748      7743      7752      7754
      7748      7743      7752      7755      7748      7743      7756      7757
      7748      7743      7756      7758      7748      7743      7756      7759
      7749      7748      7743      7752      7749      7748      7743      7756
      7750      7748      7743      7752      7750      7748      7743      7756
      7751      7748      7743      7752      7751      7748      7743      7756
      7752      7743      7756      7757      7752      7743      7756      7758
      7752      7743      7756      7759      7753      7752      7743      7756
      7754      7752      7743      7756      7755      7752      7743      7756
      7756      7759      7765      7762      7757      7756      7759      7760
      7757      7756      7759      7761      7757      7756      7759      7765
      7758      7756      7759      7760      7758      7756      7759      7761
      7758      7756      7759      7765      7759      7765      7762      7763
      7759      7765      7762      7764      7759      7765      7762      7766
      7760      7759      7765      7762      7761      7759      7765      7762
      7762      7766      7767      7768      7762      7766      7767      7769
      7762      7766      7767      7770      7763      7762      7766      7767
      7764      7762      7766      7767      7765      7762      7766      7767
      7766      7767      7770      7771      7766      7767      7770      7772
      7766      7767      7770      7778      7767      7770      7772      7773
      7767      7770      7778      7779      7767      7770      7778      7780
      7767      7770      7778      7781      7768      7767      7770      7771
      7768      7767      7770      7772      7768      7767      7770      7778
      7769      7767      7770      7771      7769      7767      7770      7772
      7769      7767      7770      7778      7770      7772      7773      7774
      7770      7772      7773      7775      7770      7778      7781      7782
      7771      7770      7772      7773      7771      7770      7778      7779
      7771      7770      7778      7780      7771      7770      7778      7781
      7772      7770      7778      7779      7772      7770      7778      7780
      7772      7770      7778      7781      7772      7773      7775      7776
      7772      7773      7775      7777      7772      7773      7775      7787
      7773      7772      7770      7778      7773      7775      7787      7788
      7773      7775      7787      7789      7773      7775      7787      7790
      7774      7773      7775      7776      7774      7773      7775      7777
      7774      7773      7775      7787      7775      7787      7790      7791
      7775      7787      7790      7792      7775      7787      7790      7793
      7776      7775      7787      7788      7776      7775      7787      7789
      7776      7775      7787      7790      7777      7775      7787      7788
      7777      7775      7787      7789      7777      7775      7787      7790
      7778      7781      7782      7783      7778      7781      7782      7784
      7779      7778      7781      7782      7780      7778      7781      7782
      7781      7782      7784      7785      7781      7782      7784      7786
      7781      7782      7784      7832      7782      7784      7832      7833
      7782      7784      7832      7834      7782      7784      7832      7835
      7783      7782      7784      7785      7783      7782      7784      7786
      7783      7782      7784      7832      7784      7832      7835      7836
      7784      7832      7835      7837      7784      7832      7835      7838
      7785      7784      7832      7833      7785      7784      7832      7834
      7785      7784      7832      7835      7786      7784      7832      7833
      7786      7784      7832      7834      7786      7784      7832      7835
      7787      7790      7793      7794      7787      7790      7793      7795
      7787      7790      7793      7796      7788      7787      7790      7791
      7788      7787      7790      7792      7788      7787      7790      7793
      7789      7787      7790      7791      7789      7787      7790      7792
      7789      7787      7790      7793      7790      7793      7796      7797
      7790      7793      7796      7798      7790      7793      7796      7799
      7791      7790      7793      7794      7791      7790      7793      7795
      7791      7790      7793      7796      7792      7790      7793      7794
      7792      7790      7793      7795      7792      7790      7793      7796
      7793      7796      7799      7800      7793      7796      7799      7801
      7793      7796      7799      7802      7794      7793      7796      7797
      7794      7793      7796      7798      7794      7793      7796      7799
      7795      7793      7796      7797      7795      7793      7796      7798
      7795      7793      7796      7799      7796      7799      7802      7803
      7796      7799      7802      7804      7796      7799      7802      7805
      7797      7796      7799      7800      7797      7796      7799      7801
      7797      7796      7799      7802      7798      7796      7799      7800
      7798      7796      7799      7801      7798      7796      7799      7802
      7799      7802      7805      7806      7799      7802      7805      7807
      7800      7799      7802      7803      7800      7799      7802      7804
      7800      7799      7802      7805      7801      7799      7802      7803
      7801      7799      7802      7804      7801      7799      7802      7805
      7802      7805      7807      7808      7802      7805      7807      7809
      7803      7802      7805      7806      7803      7802      7805      7807
      7804      7802      7805      7806      7804      7802      7805      7807
      7805      7807      7809      7810      7805      7807      7809      7811
      7805      7807      7809      7812      7806      7805      7807      7808
      7806      7805      7807      7809      7807      7809      7812      7813
      7807      7809      7812      7814      7808      7807      7809      7810
      7808      7807      7809      7811      7808      7807      7809      7812
      7809      7812      7814      7815      7809      7812      7814      7816
      7810      7809      7812      7813      7810      7809      7812      7814
      7811      7809      7812      7813      7811      7809      7812      7814
      7812      7814      7816      7817      7812      7814      7816      7818
      7812      7814      7816      7819      7813      7812      7814      7815
      7813      7812      7814      7816      7814      7816      7819      7820
      7814      7816      7819      7821      7814      7816      7819      7822
      7815      7814      7816      7817      7815      7814      7816      7818
      7815      7814      7816      7819      7816      7819      7822      7823
      7816      7819      7822      7824      7816      7819      7822      7825
      7817      7816      7819      7820      7817      7816      7819      7821
      7817      7816      7819      7822      7818      7816      7819      7820
      7818      7816      7819      7821      7818      7816      7819      7822
      7819      7822      7825      7826      7819      7822      7825      7827
      7819      7822      7825      7828      7820      7819      7822      7823
      7820      7819      7822      7824      7820      7819      7822      7825
      7821      7819      7822      7823      7821      7819      7822      7824
      7821      7819      7822      7825      7822      7825      7828      7829
      7822      7825      7828      7830      7822      7825      7828      7831
      7823      7822      7825      7826      7823      7822      7825      7827
      7823      7822      7825      7828      7824      7822      7825      7826
      7824      7822      7825      7827      7824      7822      7825      7828
      7826      7825      7828      7829      7826      7825      7828      7830
      7826      7825      7828      7831      7827      7825      7828      7829
      7827      7825      7828      7830      7827      7825      7828      7831
      7832      7835      7838      7839      7832      7835      7838      7840
      7832      7835      7838      7841      7833      7832      7835      7836
      7833      7832      7835      7837      7833      7832      7835      7838
      7834      7832      7835      7836      7834      7832      7835      7837
      7834      7832      7835      7838      7835      7838      7841      7842
      7835      7838      7841      7843      7835      7838      7841      7844
      7836      7835      7838      7839      7836      7835      7838      7840
      7836      7835      7838      7841      7837      7835      7838      7839
      7837      7835      7838      7840      7837      7835      7838      7841
      7838      7841      7844      7845      7838      7841      7844      7846
      7838      7841      7844      7847      7839      7838      7841      7842
      7839      7838      7841      7843      7839      7838      7841      7844
      7840      7838      7841      7842      7840      7838      7841      7843
      7840      7838      7841      7844      7841      7844      7847      7848
      7841      7844      7847      7849      7841      7844      7847      7850
      7842      7841      7844      7845      7842      7841      7844      7846
      7842      7841      7844      7847      7843      7841      7844      7845
      7843      7841      7844      7846      7843      7841      7844      7847
      7844      7847      7850      7851      7844      7847      7850      7852
      7844      7847      7850      7853      7845      7844      7847      7848
      7845      7844      7847      7849      7845      7844      7847      7850
      7846      7844      7847      7848      7846      7844      7847      7849
      7846      7844      7847      7850      7847      7850      7853      7854
      7847      7850      7853      7855      7847      7850      7853      7856
      7848      7847      7850      7851      7848      7847      7850      7852
      7848      7847      7850      7853      7849      7847      7850      7851
      7849      7847      7850      7852      7849      7847      7850      7853
      7850      7853      7856      7857      7850      7853      7856      7858
      7850      7853      7856      7859      7851      7850      7853      7854
      7851      7850      7853      7855      7851      7850      7853      7856
      7852      7850      7853      7854      7852      7850      7853      7855
      7852      7850      7853      7856      7853      7856      7859      7860
      7853      7856      7859      7861      7853      7856      7859      7862
      7854      7853      7856      7857      7854      7853      7856      7858
      7854      7853      7856      7859      7855      7853      7856      7857
      7855      7853      7856      7858      7855      7853      7856      7859
      7856      7859      7862      7863      7856      7859      7862      7864
      7856      7859      7862      7865      7857      7856      7859      7860
      7857      7856      7859      7861      7857      7856      7859      7862
      7858      7856      7859      7860      7858      7856      7859      7861
      7858      7856      7859      7862      7859      7862      7865      7866
      7859      7862      7865      7867      7859      7862      7865      7868
      7860      7859      7862      7863      7860      7859      7862      7864
      7860      7859      7862      7865      7861      7859      7862      7863
      7861      7859      7862      7864      7861      7859      7862      7865
      7862      7865      7868      7869      7862      7865      7868      7870
      7862      7865      7868      7871      7863      7862      7865      7866
      7863      7862      7865      7867      7863      7862      7865      7868
      7864      7862      7865      7866      7864      7862      7865      7867
      7864      7862      7865      7868      7865      7868      7871      7872
      7865      7868      7871      7873      7865      7868      7871      7874
      7866      7865      7868      7869      7866      7865      7868      7870
      7866      7865      7868      7871      7867      7865      7868      7869
      7867      7865      7868      7870      7867      7865      7868      7871
      7868      7871      7874      7875      7868      7871      7874      7876
      7868      7871      7874      7877      7869      7868      7871      7872
      7869      7868      7871      7873      7869      7868      7871      7874
      7870      7868      7871      7872      7870      7868      7871      7873
      7870      7868      7871      7874      7871      7874      7877      7878
      7871      7874      7877      7879      7871      7874      7877      7880
      7872      7871      7874      7875      7872      7871      7874      7876
      7872      7871      7874      7877      7873      7871      7874      7875
      7873      7871      7874      7876      7873      7871      7874      7877
      7875      7874      7877      7878      7875      7874      7877      7879
      7875      7874      7877      7880      7876      7874      7877      7878
      7876      7874      7877      7879      7876      7874      7877      7880
      6219      6223      6226      6227      6219      6223      6226      6257
      6219      6265      6262      6257      6219      6265      6262      6263
      6219      6265      6262      6264      6220      6219      6221      6222
      6220      6219      6223      6224      6220      6219      6223      6225
      6220      6219      6223      6226      6220      6219      6265      6262
      6220      6219      6265      6266      6220      6219      6265      6267
      6221      6219      6223      6224      6221      6219      6223      6225
      6221      6219      6223      6226      6221      6219      6265      6262
      6221      6219      6265      6266      6221      6219      6265      6267
      6222      6221      6219      6223      6222      6221      6219      6265
      6223      6219      6265      6262      6223      6219      6265      6266
      6223      6219      6265      6267      6223      6226      6227      6228
      6223      6226      6227      6229      6223      6226      6257      6255
      6223      6226      6257      6258      6223      6226      6257      6262
      6224      6223      6219      6265      6224      6223      6226      6227
      6224      6223      6226      6257      6225      6223      6219      6265
      6225      6223      6226      6227      6225      6223      6226      6257
      6226      6223      6219      6265      6226      6227      6229      6230
      6226      6227      6229      6231      6226      6227      6229      6232
      6226      6257      6255      6232      6226      6257      6255      6252
      6226      6257      6255      6256      6226      6257      6258      6259
      6226      6257      6258      6260      6226      6257      6258      6261
      6226      6257      6262      6263      6226      6257      6262      6264
      6226      6257      6262      6265      6227      6226      6257      6255
      6227      6226      6257      6258      6227      6226      6257      6262
      6227      6229      6232      6233      6227      6229      6232      6234
      6227      6229      6232      6255      6228      6227      6226      6257
      6228      6227      6229      6230      6228      6227      6229      6231
      6228      6227      6229      6232      6229      6227      6226      6257
      6229      6232      6234      6235      6229      6232      6234      6236
      6229      6232      6234      6244      6229      6232      6255      6252
      6229      6232      6255      6256      6229      6232      6255      6257
      6230      6229      6232      6233      6230      6229      6232      6234
      6230      6229      6232      6255      6231      6229      6232      6233
      6231      6229      6232      6234      6231      6229      6232      6255
      6232      6234      6236      6237      6232      6234      6236      6238
      6232      6234      6236      6239      6232      6234      6244      6242
      6232      6234      6244      6245      6232      6234      6244      6249
      6232      6255      6252      6249      6232      6255      6252      6253
      6232      6255      6252      6254      6232      6255      6257      6258
      6232      6255      6257      6262      6233      6232      6234      6235
      6233      6232      6234      6236      6233      6232      6234      6244
      6233      6232      6255      6252      6233      6232      6255      6256
      6233      6232      6255      6257      6234      6232      6255      6252
      6234      6232      6255      6256      6234      6232      6255      6257
      6234      6236      6239      6240      6234      6236      6239      6241
      6234      6236      6239      6242      6234      6244      6242      6239
      6234      6244      6242      6243      6234      6244      6242      6268
      6234      6244      6245      6246      6234      6244      6245      6247
      6234      6244      6245      6248      6234      6244      6249      6250
      6234      6244      6249      6251      6234      6244      6249      6252
      6235      6234      6232      6255      6235      6234      6236      6237
      6235      6234      6236      6238      6235      6234      6236      6239
      6235      6234      6244      6242      6235      6234      6244      6245
      6235      6234      6244      6249      6236      6234      6232      6255
      6236      6234      6244      6242      6236      6234      6244      6245
      6236      6234      6244      6249      6236      6239      6242      6243
      6236      6239      6242      6244      6236      6239      6242      6268
      6237      6236      6234      6244      6237      6236      6239      6240
      6237      6236      6239      6241      6237      6236      6239      6242
      6238      6236      6234      6244      6238      6236      6239      6240
      6238      6236      6239      6241      6238      6236      6239      6242
      6239      6236      6234      6244      6239      6242      6244      6245
      6239      6242      6244      6249      6239      6242      6268      6269
      6239      6242      6268      6270      6239      6242      6268      6274
      6240      6239      6242      6243      6240      6239      6242      6244
      6240      6239      6242      6268      6241      6239      6242      6243
      6241      6239      6242      6244      6241      6239      6242      6268
      6242      6244      6245      6246      6242      6244      6245      6247
      6242      6244      6245      6248      6242      6244      6249      6250
      6242      6244      6249      6251      6242      6244      6249      6252
      6242      6268      6270      6271      6242      6268      6270      6272
      6242      6268      6270      6273      6242      6268      6274      6275
      6242      6268      6274      6276      6242      6268      6274      6277
      6243      6242      6244      6245      6243      6242      6244      6249
      6243      6242      6268      6269      6243      6242      6268      6270
      6243      6242      6268      6274      6244      6234      6232      6255
      6244      6242      6268      6269      6244      6242      6268      6270
      6244      6242      6268      6274      6244      6249      6252      6253
      6244      6249      6252      6254      6244      6249      6252      6255
      6245      6244      6242      6268      6245      6244      6249      6250
      6245      6244      6249      6251      6245      6244      6249      6252
      6246      6245      6244      6249      6247      6245      6244      6249
      6248      6245      6244      6249      6249      6244      6242      6268
      6249      6252      6255      6256      6249      6252      6255      6257
      6250      6249      6252      6253      6250      6249      6252      6254
      6250      6249      6252      6255      6251      6249      6252      6253
      6251      6249      6252      6254      6251      6249      6252      6255
      6252      6255      6257      6258      6252      6255      6257      6262
      6253      6252      6255      6256      6253      6252      6255      6257
      6254      6252      6255      6256      6254      6252      6255      6257
      6255      6257      6258      6259      6255      6257      6258      6260
      6255      6257      6258      6261      6255      6257      6262      6263
      6255      6257      6262      6264      6255      6257      6262      6265
      6256      6255      6257      6258      6256      6255      6257      6262
      6257      6262      6265      6266      6257      6262      6265      6267
      6258      6257      6262      6263      6258      6257      6262      6264
      6258      6257      6262      6265      6259      6258      6257      6262
      6260      6258      6257      6262      6261      6258      6257      6262
      6263      6262      6265      6266      6263      6262      6265      6267
      6264      6262      6265      6266      6264      6262      6265      6267
      6268      6274      6277      6278      6268      6274      6277      6279
      6268      6274      6277      6280      6269      6268      6270      6271
      6269      6268      6270      6272      6269      6268      6270      6273
      6269      6268      6274      6275      6269      6268      6274      6276
      6269      6268      6274      6277      6270      6268      6274      6275
      6270      6268      6274      6276      6270      6268      6274      6277
      6271      6270      6268      6274      6272      6270      6268      6274
      6273      6270      6268      6274      6274      6277      6280      6281
      6274      6277      6280      6282      6274      6277      6280      6283
      6275      6274      6277      6278      6275      6274      6277      6279
      6275      6274      6277      6280      6276      6274      6277      6278
      6276      6274      6277      6279      6276      6274      6277      6280
      6277      6280      6283      6284      6277      6280      6283      6285
      6277      6280      6283      6289      6278      6277      6280      6281
      6278      6277      6280      6282      6278      6277      6280      6283
      6279      6277      6280      6281      6279      6277      6280      6282
      6279      6277      6280      6283      6280      6283      6285      6286
      6280      6283      6285      6287      6280      6283      6285      6288
      6280      6283      6289      6290      6280      6283      6289      6291
      6280      6283      6289      6292      6281      6280      6283      6284
      6281      6280      6283      6285      6281      6280      6283      6289
      6282      6280      6283      6284      6282      6280      6283      6285
      6282      6280      6283      6289      6284      6283      6285      6286
      6284      6283      6285      6287      6284      6283      6285      6288
      6284      6283      6289      6290      6284      6283      6289      6291
      6284      6283      6289      6292      6285      6283      6289      6290
      6285      6283      6289      6291      6285      6283      6289      6292
      6286      6285      6283      6289      6287      6285      6283      6289
      6288      6285      6283      6289      1180      1193      1196      1197
      1180      1193      1196      1198      1180      1193      1196      1203
      1181      1180      1185      1186      1181      1180      1185      1187
      1181      1180      1185      1188      1181      1180      1189      1190
      1181      1180      1189      1191      1181      1180      1189      1192
      1181      1180      1193      1194      1181      1180      1193      1195
      1181      1180      1193      1196      1182      1181      1180      1185
      1182      1181      1180      1189      1182      1181      1180      1193
      1183      1181      1180      1185      1183      1181      1180      1189
      1183      1181      1180      1193      1184      1181      1180      1185
      1184      1181      1180      1189      1184      1181      1180      1193
      1185      1180      1189      1190      1185      1180      1189      1191
      1185      1180      1189      1192      1185      1180      1193      1194
      1185      1180      1193      1195      1185      1180      1193      1196
      1186      1185      1180      1189      1186      1185      1180      1193
      1187      1185      1180      1189      1187      1185      1180      1193
      1188      1185      1180      1189      1188      1185      1180      1193
      1189      1180      1193      1194      1189      1180      1193      1195
      1189      1180      1193      1196      1190      1189      1180      1193
      1191      1189      1180      1193      1192      1189      1180      1193
      1193      1196      1203      1199      1194      1193      1196      1197
      1194      1193      1196      1198      1194      1193      1196      1203
      1195      1193      1196      1197      1195      1193      1196      1198
      1195      1193      1196      1203      1196      1203      1199      1200
      1196      1203      1199      1201      1196      1203      1199      1202
      1197      1196      1203      1199      1198      1196      1203      1199
      1199      1202      1204      1205      1199      1202      1204      1206
      1199      1202      1204      1209      1200      1199      1202      1204
      1201      1199      1202      1204      1202      1204      1209      1207
      1202      1204      1209      1210      1202      1204      1209      1211
      1203      1199      1202      1204      1204      1209      1207      1208
      1204      1209      1207      1259      1204      1209      1211      1212
      1204      1209      1211      1213      1204      1209      1211      1215
      1205      1204      1209      1207      1205      1204      1209      1210
      1205      1204      1209      1211      1206      1204      1209      1207
      1206      1204      1209      1210      1206      1204      1209      1211
      1207      1209      1211      1212      1207      1209      1211      1213
      1207      1209      1211      1215      1207      1259      1261      1262
      1207      1259      1261      1263      1207      1259      1261      1264
      1208      1207      1209      1210      1208      1207      1209      1211
      1208      1207      1259      1260      1208      1207      1259      1261
      1209      1207      1259      1260      1209      1207      1259      1261
      1209      1211      1213      1214      1209      1211      1215      1216
      1209      1211      1215      1217      1210      1209      1207      1259
      1210      1209      1211      1212      1210      1209      1211      1213
      1210      1209      1211      1215      1211      1209      1207      1259
      1211      1215      1217      1218      1211      1215      1217      1219
      1212      1211      1213      1214      1212      1211      1215      1216
      1212      1211      1215      1217      1213      1211      1215      1216
      1213      1211      1215      1217      1214      1213      1211      1215
      1215      1217      1219      1220      1215      1217      1219      1221
      1215      1217      1219      1222      1216      1215      1217      1218
      1216      1215      1217      1219      1217      1219      1222      1223
      1217      1219      1222      1224      1217      1219      1222      1225
      1218      1217      1219      1220      1218      1217      1219      1221
      1218      1217      1219      1222      1219      1222      1225      1226
      1219      1222      1225      1227      1219      1222      1225      1228
      1220      1219      1222      1223      1220      1219      1222      1224
      1220      1219      1222      1225      1221      1219      1222      1223
      1221      1219      1222      1224      1221      1219      1222      1225
      1222      1225      1228      1229      1222      1225      1228      1230
      1222      1225      1228      1231      1223      1222      1225      1226
      1223      1222      1225      1227      1223      1222      1225      1228
      1224      1222      1225      1226      1224      1222      1225      1227
      1224      1222      1225      1228      1225      1228      1231      1232
      1225      1228      1231      1233      1225      1228      1231      1234
      1226      1225      1228      1229      1226      1225      1228      1230
      1226      1225      1228      1231      1227      1225      1228      1229
      1227      1225      1228      1230      1227      1225      1228      1231
      1228      1231      1234      1235      1228      1231      1234      1236
      1228      1231      1234      1237      1229      1228      1231      1232
      1229      1228      1231      1233      1229      1228      1231      1234
      1230      1228      1231      1232      1230      1228      1231      1233
      1230      1228      1231      1234      1231      1234      1237      1238
      1231      1234      1237      1239      1231      1234      1237      1240
      1232      1231      1234      1235      1232      1231      1234      1236
      1232      1231      1234      1237      1233      1231      1234      1235
      1233      1231      1234      1236      1233      1231      1234      1237
      1234      1237      1240      1241      1234      1237      1240      1242
      1234      1237      1240      1243      1235      1234      1237      1238
      1235      1234      1237      1239      1235      1234      1237      1240
      1236      1234      1237      1238      1236      1234      1237      1239
      1236      1234      1237      1240      1237      1240      1243      1244
      1237      1240      1243      1245      1237      1240      1243      1246
      1238      1237      1240      1241      1238      1237      1240      1242
      1238      1237      1240      1243      1239      1237      1240      1241
      1239      1237      1240      1242      1239      1237      1240      1243
      1240      1243      1246      1247      1240      1243      1246      1248
      1240      1243      1246      1249      1241      1240      1243      1244
      1241      1240      1243      1245      1241      1240      1243      1246
      1242      1240      1243      1244      1242      1240      1243      1245
      1242      1240      1243      1246      1243      1246      1249      1250
      1243      1246      1249      1251      1243      1246      1249      1252
      1244      1243      1246      1247      1244      1243      1246      1248
      1244      1243      1246      1249      1245      1243      1246      1247
      1245      1243      1246      1248      1245      1243      1246      1249
      1246      1249      1252      1253      1246      1249      1252      1254
      1246      1249      1252      1255      1247      1246      1249      1250
      1247      1246      1249      1251      1247      1246      1249      1252
      1248      1246      1249      1250      1248      1246      1249      1251
      1248      1246      1249      1252      1249      1252      1255      1256
      1249      1252      1255      1257      1249      1252      1255      1258
      1250      1249      1252      1253      1250      1249      1252      1254
      1250      1249      1252      1255      1251      1249      1252      1253
      1251      1249      1252      1254      1251      1249      1252      1255
      1253      1252      1255      1256      1253      1252      1255      1257
      1253      1252      1255      1258      1254      1252      1255      1256
      1254      1252      1255      1257      1254      1252      1255      1258
      1259      1261      1264      1265      1259      1261      1264      1266
      1259      1261      1264      1267      1260      1259      1261      1262
      1260      1259      1261      1263      1260      1259      1261      1264
      1261      1264      1267      1268      1261      1264      1267      1269
      1261      1264      1267      1270      1262      1261      1264      1265
      1262      1261      1264      1266      1262      1261      1264      1267
      1263      1261      1264      1265      1263      1261      1264      1266
      1263      1261      1264      1267      1264      1267      1270      1271
      1264      1267      1270      1272      1264      1267      1270      1273
      1265      1264      1267      1268      1265      1264      1267      1269
      1265      1264      1267      1270      1266      1264      1267      1268
      1266      1264      1267      1269      1266      1264      1267      1270
      1267      1270      1273      1274      1267      1270      1273      1275
      1267      1270      1273      1276      1268      1267      1270      1271
      1268      1267      1270      1272      1268      1267      1270      1273
      1269      1267      1270      1271      1269      1267      1270      1272
      1269      1267      1270      1273      1270      1273      1276      1277
      1270      1273      1276      1278      1270      1273      1276      1279
      1271      1270      1273      1274      1271      1270      1273      1275
      1271      1270      1273      1276      1272      1270      1273      1274
      1272      1270      1273      1275      1272      1270      1273      1276
      1273      1276      1279      1280      1273      1276      1279      1281
      1273      1276      1279      1282      1274      1273      1276      1277
      1274      1273      1276      1278      1274      1273      1276      1279
      1275      1273      1276      1277      1275      1273      1276      1278
      1275      1273      1276      1279      1276      1279      1282      1283
      1276      1279      1282      1284      1277      1276      1279      1280
      1277      1276      1279      1281      1277      1276      1279      1282
      1278      1276      1279      1280      1278      1276      1279      1281
      1278      1276      1279      1282      1279      1282      1284      1285
      1279      1282      1284      1286      1280      1279      1282      1283
      1280      1279      1282      1284      1281      1279      1282      1283
      1281      1279      1282      1284      1282      1284      1286      1287
      1282      1284      1286      1288      1282      1284      1286      1289
      1283      1282      1284      1285      1283      1282      1284      1286
      1284      1286      1289      1290      1284      1286      1289      1291
      1284      1286      1289      1292      1285      1284      1286      1287
      1285      1284      1286      1288      1285      1284      1286      1289
      1286      1289      1292      1293      1286      1289      1292      1294
      1286      1289      1292      1295      1287      1286      1289      1290
      1287      1286      1289      1291      1287      1286      1289      1292
      1288      1286      1289      1290      1288      1286      1289      1291
      1288      1286      1289      1292      1289      1292      1295      1296
      1289      1292      1295      1297      1289      1292      1295      1298
      1290      1289      1292      1293      1290      1289      1292      1294
      1290      1289      1292      1295      1291      1289      1292      1293
      1291      1289      1292      1294      1291      1289      1292      1295
      1292      1295      1298      1299      1292      1295      1298      1300
      1292      1295      1298      1301      1293      1292      1295      1296
      1293      1292      1295      1297      1293      1292      1295      1298
      1294      1292      1295      1296      1294      1292      1295      1297
      1294      1292      1295      1298      1295      1298      1301      1302
      1295      1298      1301      1303      1295      1298      1301      1304
      1296      1295      1298      1299      1296      1295      1298      1300
      1296      1295      1298      1301      1297      1295      1298      1299
      1297      1295      1298      1300      1297      1295      1298      1301
      1298      1301      1304      1305      1298      1301      1304      1306
      1298      1301      1304      1307      1299      1298      1301      1302
      1299      1298      1301      1303      1299      1298      1301      1304
      1300      1298      1301      1302      1300      1298      1301      1303
      1300      1298      1301      1304      1301      1304      1307      1308
      1301      1304      1307      1309      1301      1304      1307      1310
      1302      1301      1304      1305      1302      1301      1304      1306
      1302      1301      1304      1307      1303      1301      1304      1305
      1303      1301      1304      1306      1303      1301      1304      1307
      1305      1304      1307      1308      1305      1304      1307      1309
      1305      1304      1307      1310      1306      1304      1307      1308
      1306      1304      1307      1309      1306      1304      1307      1310
      6293      6297      6300      6301      6293      6297      6300      6331
      6293      6339      6336      6331      6293      6339      6336      6337
      6293      6339      6336      6338      6294      6293      6295      6296
      6294      6293      6297      6298      6294      6293      6297      6299
      6294      6293      6297      6300      6294      6293      6339      6336
      6294      6293      6339      6340      6294      6293      6339      6341
      6295      6293      6297      6298      6295      6293      6297      6299
      6295      6293      6297      6300      6295      6293      6339      6336
      6295      6293      6339      6340      6295      6293      6339      6341
      6296      6295      6293      6297      6296      6295      6293      6339
      6297      6293      6339      6336      6297      6293      6339      6340
      6297      6293      6339      6341      6297      6300      6301      6302
      6297      6300      6301      6303      6297      6300      6331      6329
      6297      6300      6331      6332      6297      6300      6331      6336
      6298      6297      6293      6339      6298      6297      6300      6301
      6298      6297      6300      6331      6299      6297      6293      6339
      6299      6297      6300      6301      6299      6297      6300      6331
      6300      6297      6293      6339      6300      6301      6303      6304
      6300      6301      6303      6305      6300      6301      6303      6306
      6300      6331      6329      6306      6300      6331      6329      6326
      6300      6331      6329      6330      6300      6331      6332      6333
      6300      6331      6332      6334      6300      6331      6332      6335
      6300      6331      6336      6337      6300      6331      6336      6338
      6300      6331      6336      6339      6301      6300      6331      6329
      6301      6300      6331      6332      6301      6300      6331      6336
      6301      6303      6306      6307      6301      6303      6306      6308
      6301      6303      6306      6329      6302      6301      6300      6331
      6302      6301      6303      6304      6302      6301      6303      6305
      6302      6301      6303      6306      6303      6301      6300      6331
      6303      6306      6308      6309      6303      6306      6308      6310
      6303      6306      6308      6318      6303      6306      6329      6326
      6303      6306      6329      6330      6303      6306      6329      6331
      6304      6303      6306      6307      6304      6303      6306      6308
      6304      6303      6306      6329      6305      6303      6306      6307
      6305      6303      6306      6308      6305      6303      6306      6329
      6306      6308      6310      6311      6306      6308      6310      6312
      6306      6308      6310      6313      6306      6308      6318      6316
      6306      6308      6318      6319      6306      6308      6318      6323
      6306      6329      6326      6323      6306      6329      6326      6327
      6306      6329      6326      6328      6306      6329      6331      6332
      6306      6329      6331      6336      6307      6306      6308      6309
      6307      6306      6308      6310      6307      6306      6308      6318
      6307      6306      6329      6326      6307      6306      6329      6330
      6307      6306      6329      6331      6308      6306      6329      6326
      6308      6306      6329      6330      6308      6306      6329      6331
      6308      6310      6313      6314      6308      6310      6313      6315
      6308      6310      6313      6316      6308      6318      6316      6313
      6308      6318      6316      6317      6308      6318      6316      6342
      6308      6318      6319      6320      6308      6318      6319      6321
      6308      6318      6319      6322      6308      6318      6323      6324
      6308      6318      6323      6325      6308      6318      6323      6326
      6309      6308      6306      6329      6309      6308      6310      6311
      6309      6308      6310      6312      6309      6308      6310      6313
      6309      6308      6318      6316      6309      6308      6318      6319
      6309      6308      6318      6323      6310      6308      6306      6329
      6310      6308      6318      6316      6310      6308      6318      6319
      6310      6308      6318      6323      6310      6313      6316      6317
      6310      6313      6316      6318      6310      6313      6316      6342
      6311      6310      6308      6318      6311      6310      6313      6314
      6311      6310      6313      6315      6311      6310      6313      6316
      6312      6310      6308      6318      6312      6310      6313      6314
      6312      6310      6313      6315      6312      6310      6313      6316
      6313      6310      6308      6318      6313      6316      6318      6319
      6313      6316      6318      6323      6313      6316      6342      6343
      6313      6316      6342      6344      6313      6316      6342      6348
      6314      6313      6316      6317      6314      6313      6316      6318
      6314      6313      6316      6342      6315      6313      6316      6317
      6315      6313      6316      6318      6315      6313      6316      6342
      6316      6318      6319      6320      6316      6318      6319      6321
      6316      6318      6319      6322      6316      6318      6323      6324
      6316      6318      6323      6325      6316      6318      6323      6326
      6316      6342      6344      6345      6316      6342      6344      6346
      6316      6342      6344      6347      6316      6342      6348      6349
      6316      6342      6348      6350      6316      6342      6348      6351
      6317      6316      6318      6319      6317      6316      6318      6323
      6317      6316      6342      6343      6317      6316      6342      6344
      6317      6316      6342      6348      6318      6308      6306      6329
      6318      6316      6342      6343      6318      6316      6342      6344
      6318      6316      6342      6348      6318      6323      6326      6327
      6318      6323      6326      6328      6318      6323      6326      6329
      6319      6318      6316      6342      6319      6318      6323      6324
      6319      6318      6323      6325      6319      6318      6323      6326
      6320      6319      6318      6323      6321      6319      6318      6323
      6322      6319      6318      6323      6323      6318      6316      6342
      6323      6326      6329      6330      6323      6326      6329      6331
      6324      6323      6326      6327      6324      6323      6326      6328
      6324      6323      6326      6329      6325      6323      6326      6327
      6325      6323      6326      6328      6325      6323      6326      6329
      6326      6329      6331      6332      6326      6329      6331      6336
      6327      6326      6329      6330      6327      6326      6329      6331
      6328      6326      6329      6330      6328      6326      6329      6331
      6329      6331      6332      6333      6329      6331      6332      6334
      6329      6331      6332      6335      6329      6331      6336      6337
      6329      6331      6336      6338      6329      6331      6336      6339
      6330      6329      6331      6332      6330      6329      6331      6336
      6331      6336      6339      6340      6331      6336      6339      6341
      6332      6331      6336      6337      6332      6331      6336      6338
      6332      6331      6336      6339      6333      6332      6331      6336
      6334      6332      6331      6336      6335      6332      6331      6336
      6337      6336      6339      6340      6337      6336      6339      6341
      6338      6336      6339      6340      6338      6336      6339      6341
      6342      6348      6351      6352      6342      6348      6351      6353
      6342      6348      6351      6354      6343      6342      6344      6345
      6343      6342      6344      6346      6343      6342      6344      6347
      6343      6342      6348      6349      6343      6342      6348      6350
      6343      6342      6348      6351      6344      6342      6348      6349
      6344      6342      6348      6350      6344      6342      6348      6351
      6345      6344      6342      6348      6346      6344      6342      6348
      6347      6344      6342      6348      6348      6351      6354      6355
      6348      6351      6354      6356      6348      6351      6354      6357
      6349      6348      6351      6352      6349      6348      6351      6353
      6349      6348      6351      6354      6350      6348      6351      6352
      6350      6348      6351      6353      6350      6348      6351      6354
      6351      6354      6357      6358      6351      6354      6357      6359
      6351      6354      6357      6363      6352      6351      6354      6355
      6352      6351      6354      6356      6352      6351      6354      6357
      6353      6351      6354      6355      6353      6351      6354      6356
      6353      6351      6354      6357      6354      6357      6359      6360
      6354      6357      6359      6361      6354      6357      6359      6362
      6354      6357      6363      6364      6354      6357      6363      6365
      6354      6357      6363      6366      6355      6354      6357      6358
      6355      6354      6357      6359      6355      6354      6357      6363
      6356      6354      6357      6358      6356      6354      6357      6359
      6356      6354      6357      6363      6358      6357      6359      6360
      6358      6357      6359      6361      6358      6357      6359      6362
      6358      6357      6363      6364      6358      6357      6363      6365
      6358      6357      6363      6366      6359      6357      6363      6364
      6359      6357      6363      6365      6359      6357      6363      6366
      6360      6359      6357      6363      6361      6359      6357      6363
      6362      6359      6357      6363      1311      1324      1327      1328
      1311      1324      1327      1329      1311      1324      1327      1334
      1312      1311      1316      1317      1312      1311      1316      1318
      1312      1311      1316      1319      1312      1311      1320      1321
      1312      1311      1320      1322      1312      1311      1320      1323
      1312      1311      1324      1325      1312      1311      1324      1326
      1312      1311      1324      1327      1313      1312      1311      1316
      1313      1312      1311      1320      1313      1312      1311      1324
      1314      1312      1311      1316      1314      1312      1311      1320
      1314      1312      1311      1324      1315      1312      1311      1316
      1315      1312      1311      1320      1315      1312      1311      1324
      1316      1311      1320      1321      1316      1311      1320      1322
      1316      1311      1320      1323      1316      1311      1324      1325
      1316      1311      1324      1326      1316      1311      1324      1327
      1317      1316      1311      1320      1317      1316      1311      1324
      1318      1316      1311      1320      1318      1316      1311      1324
      1319      1316      1311      1320      1319      1316      1311      1324
      1320      1311      1324      1325      1320      1311      1324      1326
      1320      1311      1324      1327      1321      1320      1311      1324
      1322      1320      1311      1324      1323      1320      1311      1324
      1324      1327      1334      1330      1325      1324      1327      1328
      1325      1324      1327      1329      1325      1324      1327      1334
      1326      1324      1327      1328      1326      1324      1327      1329
      1326      1324      1327      1334      1327      1334      1330      1331
      1327      1334      1330      1332      1327      1334      1330      1333
      1328      1327      1334      1330      1329      1327      1334      1330
      1330      1333      1335      1336      1330      1333      1335      1337
      1330      1333      1335      1340      1331      1330      1333      1335
      1332      1330      1333      1335      1333      1335      1340      1338
      1333      1335      1340      1341      1333      1335      1340      1342
      1334      1330      1333      1335      1335      1340      1338      1339
      1335      1340      1338      1390      1335      1340      1342      1343
      1335      1340      1342      1344      1335      1340      1342      1346
      1336      1335      1340      1338      1336      1335      1340      1341
      1336      1335      1340      1342      1337      1335      1340      1338
      1337      1335      1340      1341      1337      1335      1340      1342
      1338      1340      1342      1343      1338      1340      1342      1344
      1338      1340      1342      1346      1338      1390      1392      1393
      1338      1390      1392      1394      1338      1390      1392      1395
      1339      1338      1340      1341      1339      1338      1340      1342
      1339      1338      1390      1391      1339      1338      1390      1392
      1340      1338      1390      1391      1340      1338      1390      1392
      1340      1342      1344      1345      1340      1342      1346      1347
      1340      1342      1346      1348      1341      1340      1338      1390
      1341      1340      1342      1343      1341      1340      1342      1344
      1341      1340      1342      1346      1342      1340      1338      1390
      1342      1346      1348      1349      1342      1346      1348      1350
      1343      1342      1344      1345      1343      1342      1346      1347
      1343      1342      1346      1348      1344      1342      1346      1347
      1344      1342      1346      1348      1345      1344      1342      1346
      1346      1348      1350      1351      1346      1348      1350      1352
      1346      1348      1350      1353      1347      1346      1348      1349
      1347      1346      1348      1350      1348      1350      1353      1354
      1348      1350      1353      1355      1348      1350      1353      1356
      1349      1348      1350      1351      1349      1348      1350      1352
      1349      1348      1350      1353      1350      1353      1356      1357
      1350      1353      1356      1358      1350      1353      1356      1359
      1351      1350      1353      1354      1351      1350      1353      1355
      1351      1350      1353      1356      1352      1350      1353      1354
      1352      1350      1353      1355      1352      1350      1353      1356
      1353      1356      1359      1360      1353      1356      1359      1361
      1353      1356      1359      1362      1354      1353      1356      1357
      1354      1353      1356      1358      1354      1353      1356      1359
      1355      1353      1356      1357      1355      1353      1356      1358
      1355      1353      1356      1359      1356      1359      1362      1363
      1356      1359      1362      1364      1356      1359      1362      1365
      1357      1356      1359      1360      1357      1356      1359      1361
      1357      1356      1359      1362      1358      1356      1359      1360
      1358      1356      1359      1361      1358      1356      1359      1362
      1359      1362      1365      1366      1359      1362      1365      1367
      1359      1362      1365      1368      1360      1359      1362      1363
      1360      1359      1362      1364      1360      1359      1362      1365
      1361      1359      1362      1363      1361      1359      1362      1364
      1361      1359      1362      1365      1362      1365      1368      1369
      1362      1365      1368      1370      1362      1365      1368      1371
      1363      1362      1365      1366      1363      1362      1365      1367
      1363      1362      1365      1368      1364      1362      1365      1366
      1364      1362      1365      1367      1364      1362      1365      1368
      1365      1368      1371      1372      1365      1368      1371      1373
      1365      1368      1371      1374      1366      1365      1368      1369
      1366      1365      1368      1370      1366      1365      1368      1371
      1367      1365      1368      1369      1367      1365      1368      1370
      1367      1365      1368      1371      1368      1371      1374      1375
      1368      1371      1374      1376      1368      1371      1374      1377
      1369      1368      1371      1372      1369      1368      1371      1373
      1369      1368      1371      1374      1370      1368      1371      1372
      1370      1368      1371      1373      1370      1368      1371      1374
      1371      1374      1377      1378      1371      1374      1377      1379
      1371      1374      1377      1380      1372      1371      1374      1375
      1372      1371      1374      1376      1372      1371      1374      1377
      1373      1371      1374      1375      1373      1371      1374      1376
      1373      1371      1374      1377      1374      1377      1380      1381
      1374      1377      1380      1382      1374      1377      1380      1383
      1375      1374      1377      1378      1375      1374      1377      1379
      1375      1374      1377      1380      1376      1374      1377      1378
      1376      1374      1377      1379      1376      1374      1377      1380
      1377      1380      1383      1384      1377      1380      1383      1385
      1377      1380      1383      1386      1378      1377      1380      1381
      1378      1377      1380      1382      1378      1377      1380      1383
      1379      1377      1380      1381      1379      1377      1380      1382
      1379      1377      1380      1383      1380      1383      1386      1387
      1380      1383      1386      1388      1380      1383      1386      1389
      1381      1380      1383      1384      1381      1380      1383      1385
      1381      1380      1383      1386      1382      1380      1383      1384
      1382      1380      1383      1385      1382      1380      1383      1386
      1384      1383      1386      1387      1384      1383      1386      1388
      1384      1383      1386      1389      1385      1383      1386      1387
      1385      1383      1386      1388      1385      1383      1386      1389
      1390      1392      1395      1396      1390      1392      1395      1397
      1390      1392      1395      1398      1391      1390      1392      1393
      1391      1390      1392      1394      1391      1390      1392      1395
      1392      1395      1398      1399      1392      1395      1398      1400
      1392      1395      1398      1401      1393      1392      1395      1396
      1393      1392      1395      1397      1393      1392      1395      1398
      1394      1392      1395      1396      1394      1392      1395      1397
      1394      1392      1395      1398      1395      1398      1401      1402
      1395      1398      1401      1403      1395      1398      1401      1404
      1396      1395      1398      1399      1396      1395      1398      1400
      1396      1395      1398      1401      1397      1395      1398      1399
      1397      1395      1398      1400      1397      1395      1398      1401
      1398      1401      1404      1405      1398      1401      1404      1406
      1398      1401      1404      1407      1399      1398      1401      1402
      1399      1398      1401      1403      1399      1398      1401      1404
      1400      1398      1401      1402      1400      1398      1401      1403
      1400      1398      1401      1404      1401      1404      1407      1408
      1401      1404      1407      1409      1401      1404      1407      1410
      1402      1401      1404      1405      1402      1401      1404      1406
      1402      1401      1404      1407      1403      1401      1404      1405
      1403      1401      1404      1406      1403      1401      1404      1407
      1404      1407      1410      1411      1404      1407      1410      1412
      1404      1407      1410      1413      1405      1404      1407      1408
      1405      1404      1407      1409      1405      1404      1407      1410
      1406      1404      1407      1408      1406      1404      1407      1409
      1406      1404      1407      1410      1407      1410      1413      1414
      1407      1410      1413      1415      1408      1407      1410      1411
      1408      1407      1410      1412      1408      1407      1410      1413
      1409      1407      1410      1411      1409      1407      1410      1412
      1409      1407      1410      1413      1410      1413      1415      1416
      1410      1413      1415      1417      1411      1410      1413      1414
      1411      1410      1413      1415      1412      1410      1413      1414
      1412      1410      1413      1415      1413      1415      1417      1418
      1413      1415      1417      1419      1413      1415      1417      1420
      1414      1413      1415      1416      1414      1413      1415      1417
      1415      1417      1420      1421      1415      1417      1420      1422
      1415      1417      1420      1423      1416      1415      1417      1418
      1416      1415      1417      1419      1416      1415      1417      1420
      1417      1420      1423      1424      1417      1420      1423      1425
      1417      1420      1423      1426      1418      1417      1420      1421
      1418      1417      1420      1422      1418      1417      1420      1423
      1419      1417      1420      1421      1419      1417      1420      1422
      1419      1417      1420      1423      1420      1423      1426      1427
      1420      1423      1426      1428      1420      1423      1426      1429
      1421      1420      1423      1424      1421      1420      1423      1425
      1421      1420      1423      1426      1422      1420      1423      1424
      1422      1420      1423      1425      1422      1420      1423      1426
      1423      1426      1429      1430      1423      1426      1429      1431
      1423      1426      1429      1432      1424      1423      1426      1427
      1424      1423      1426      1428      1424      1423      1426      1429
      1425      1423      1426      1427      1425      1423      1426      1428
      1425      1423      1426      1429      1426      1429      1432      1433
      1426      1429      1432      1434      1426      1429      1432      1435
      1427      1426      1429      1430      1427      1426      1429      1431
      1427      1426      1429      1432      1428      1426      1429      1430
      1428      1426      1429      1431      1428      1426      1429      1432
      1429      1432      1435      1436      1429      1432      1435      1437
      1429      1432      1435      1438      1430      1429      1432      1433
      1430      1429      1432      1434      1430      1429      1432      1435
      1431      1429      1432      1433      1431      1429      1432      1434
      1431      1429      1432      1435      1432      1435      1438      1439
      1432      1435      1438      1440      1432      1435      1438      1441
      1433      1432      1435      1436      1433      1432      1435      1437
      1433      1432      1435      1438      1434      1432      1435      1436
      1434      1432      1435      1437      1434      1432      1435      1438
      1436      1435      1438      1439      1436      1435      1438      1440
      1436      1435      1438      1441      1437      1435      1438      1439
      1437      1435      1438      1440      1437      1435      1438      1441
      6367      6371      6374      6375      6367      6371      6374      6405
      6367      6413      6410      6405      6367      6413      6410      6411
      6367      6413      6410      6412      6368      6367      6369      6370
      6368      6367      6371      6372      6368      6367      6371      6373
      6368      6367      6371      6374      6368      6367      6413      6410
      6368      6367      6413      6414      6368      6367      6413      6415
      6369      6367      6371      6372      6369      6367      6371      6373
      6369      6367      6371      6374      6369      6367      6413      6410
      6369      6367      6413      6414      6369      6367      6413      6415
      6370      6369      6367      6371      6370      6369      6367      6413
      6371      6367      6413      6410      6371      6367      6413      6414
      6371      6367      6413      6415      6371      6374      6375      6376
      6371      6374      6375      6377      6371      6374      6405      6403
      6371      6374      6405      6406      6371      6374      6405      6410
      6372      6371      6367      6413      6372      6371      6374      6375
      6372      6371      6374      6405      6373      6371      6367      6413
      6373      6371      6374      6375      6373      6371      6374      6405
      6374      6371      6367      6413      6374      6375      6377      6378
      6374      6375      6377      6379      6374      6375      6377      6380
      6374      6405      6403      6380      6374      6405      6403      6400
      6374      6405      6403      6404      6374      6405      6406      6407
      6374      6405      6406      6408      6374      6405      6406      6409
      6374      6405      6410      6411      6374      6405      6410      6412
      6374      6405      6410      6413      6375      6374      6405      6403
      6375      6374      6405      6406      6375      6374      6405      6410
      6375      6377      6380      6381      6375      6377      6380      6382
      6375      6377      6380      6403      6376      6375      6374      6405
      6376      6375      6377      6378      6376      6375      6377      6379
      6376      6375      6377      6380      6377      6375      6374      6405
      6377      6380      6382      6383      6377      6380      6382      6384
      6377      6380      6382      6392      6377      6380      6403      6400
      6377      6380      6403      6404      6377      6380      6403      6405
      6378      6377      6380      6381      6378      6377      6380      6382
      6378      6377      6380      6403      6379      6377      6380      6381
      6379      6377      6380      6382      6379      6377      6380      6403
      6380      6382      6384      6385      6380      6382      6384      6386
      6380      6382      6384      6387      6380      6382      6392      6390
      6380      6382      6392      6393      6380      6382      6392      6397
      6380      6403      6400      6397      6380      6403      6400      6401
      6380      6403      6400      6402      6380      6403      6405      6406
      6380      6403      6405      6410      6381      6380      6382      6383
      6381      6380      6382      6384      6381      6380      6382      6392
      6381      6380      6403      6400      6381      6380      6403      6404
      6381      6380      6403      6405      6382      6380      6403      6400
      6382      6380      6403      6404      6382      6380      6403      6405
      6382      6384      6387      6388      6382      6384      6387      6389
      6382      6384      6387      6390      6382      6392      6390      6387
      6382      6392      6390      6391      6382      6392      6390      6416
      6382      6392      6393      6394      6382      6392      6393      6395
      6382      6392      6393      6396      6382      6392      6397      6398
      6382      6392      6397      6399      6382      6392      6397      6400
      6383      6382      6380      6403      6383      6382      6384      6385
      6383      6382      6384      6386      6383      6382      6384      6387
      6383      6382      6392      6390      6383      6382      6392      6393
      6383      6382      6392      6397      6384      6382      6380      6403
      6384      6382      6392      6390      6384      6382      6392      6393
      6384      6382      6392      6397      6384      6387      6390      6391
      6384      6387      6390      6392      6384      6387      6390      6416
      6385      6384      6382      6392      6385      6384      6387      6388
      6385      6384      6387      6389      6385      6384      6387      6390
      6386      6384      6382      6392      6386      6384      6387      6388
      6386      6384      6387      6389      6386      6384      6387      6390
      6387      6384      6382      6392      6387      6390      6392      6393
      6387      6390      6392      6397      6387      6390      6416      6417
      6387      6390      6416      6418      6387      6390      6416      6422
      6388      6387      6390      6391      6388      6387      6390      6392
      6388      6387      6390      6416      6389      6387      6390      6391
      6389      6387      6390      6392      6389      6387      6390      6416
      6390      6392      6393      6394      6390      6392      6393      6395
      6390      6392      6393      6396      6390      6392      6397      6398
      6390      6392      6397      6399      6390      6392      6397      6400
      6390      6416      6418      6419      6390      6416      6418      6420
      6390      6416      6418      6421      6390      6416      6422      6423
      6390      6416      6422      6424      6390      6416      6422      6425
      6391      6390      6392      6393      6391      6390      6392      6397
      6391      6390      6416      6417      6391      6390      6416      6418
      6391      6390      6416      6422      6392      6382      6380      6403
      6392      6390      6416      6417      6392      6390      6416      6418
      6392      6390      6416      6422      6392      6397      6400      6401
      6392      6397      6400      6402      6392      6397      6400      6403
      6393      6392      6390      6416      6393      6392      6397      6398
      6393      6392      6397      6399      6393      6392      6397      6400
      6394      6393      6392      6397      6395      6393      6392      6397
      6396      6393      6392      6397      6397      6392      6390      6416
      6397      6400      6403      6404      6397      6400      6403      6405
      6398      6397      6400      6401      6398      6397      6400      6402
      6398      6397      6400      6403      6399      6397      6400      6401
      6399      6397      6400      6402      6399      6397      6400      6403
      6400      6403      6405      6406      6400      6403      6405      6410
      6401      6400      6403      6404      6401      6400      6403      6405
      6402      6400      6403      6404      6402      6400      6403      6405
      6403      6405      6406      6407      6403      6405      6406      6408
      6403      6405      6406      6409      6403      6405      6410      6411
      6403      6405      6410      6412      6403      6405      6410      6413
      6404      6403      6405      6406      6404      6403      6405      6410
      6405      6410      6413      6414      6405      6410      6413      6415
      6406      6405      6410      6411      6406      6405      6410      6412
      6406      6405      6410      6413      6407      6406      6405      6410
      6408      6406      6405      6410      6409      6406      6405      6410
      6411      6410      6413      6414      6411      6410      6413      6415
      6412      6410      6413      6414      6412      6410      6413      6415
      6416      6422      6425      6426      6416      6422      6425      6427
      6416      6422      6425      6428      6417      6416      6418      6419
      6417      6416      6418      6420      6417      6416      6418      6421
      6417      6416      6422      6423      6417      6416      6422      6424
      6417      6416      6422      6425      6418      6416      6422      6423
      6418      6416      6422      6424      6418      6416      6422      6425
      6419      6418      6416      6422      6420      6418      6416      6422
      6421      6418      6416      6422      6422      6425      6428      6429
      6422      6425      6428      6430      6422      6425      6428      6431
      6423      6422      6425      6426      6423      6422      6425      6427
      6423      6422      6425      6428      6424      6422      6425      6426
      6424      6422      6425      6427      6424      6422      6425      6428
      6425      6428      6431      6432      6425      6428      6431      6433
      6425      6428      6431      6437      6426      6425      6428      6429
      6426      6425      6428      6430      6426      6425      6428      6431
      6427      6425      6428      6429      6427      6425      6428      6430
      6427      6425      6428      6431      6428      6431      6433      6434
      6428      6431      6433      6435      6428      6431      6433      6436
      6428      6431      6437      6438      6428      6431      6437      6439
      6428      6431      6437      6440      6429      6428      6431      6432
      6429      6428      6431      6433      6429      6428      6431      6437
      6430      6428      6431      6432      6430      6428      6431      6433
      6430      6428      6431      6437      6432      6431      6433      6434
      6432      6431      6433      6435      6432      6431      6433      6436
      6432      6431      6437      6438      6432      6431      6437      6439
      6432      6431      6437      6440      6433      6431      6437      6438
      6433      6431      6437      6439      6433      6431      6437      6440
      6434      6433      6431      6437      6435      6433      6431      6437
      6436      6433      6431      6437      6441      6445      6448      6449
      6441      6445      6448      6479      6441      6487      6484      6479
      6441      6487      6484      6485      6441      6487      6484      6486
      6442      6441      6443      6444      6442      6441      6445      6446
      6442      6441      6445      6447      6442      6441      6445      6448
      6442      6441      6487      6484      6442      6441      6487      6488
      6442      6441      6487      6489      6443      6441      6445      6446
      6443      6441      6445      6447      6443      6441      6445      6448
      6443      6441      6487      6484      6443      6441      6487      6488
      6443      6441      6487      6489      6444      6443      6441      6445
      6444      6443      6441      6487      6445      6441      6487      6484
      6445      6441      6487      6488      6445      6441      6487      6489
      6445      6448      6449      6450      6445      6448      6449      6451
      6445      6448      6479      6477      6445      6448      6479      6480
      6445      6448      6479      6484      6446      6445      6441      6487
      6446      6445      6448      6449      6446      6445      6448      6479
      6447      6445      6441      6487      6447      6445      6448      6449
      6447      6445      6448      6479      6448      6445      6441      6487
      6448      6449      6451      6452      6448      6449      6451      6453
      6448      6449      6451      6454      6448      6479      6477      6454
      6448      6479      6477      6474      6448      6479      6477      6478
      6448      6479      6480      6481      6448      6479      6480      6482
      6448      6479      6480      6483      6448      6479      6484      6485
      6448      6479      6484      6486      6448      6479      6484      6487
      6449      6448      6479      6477      6449      6448      6479      6480
      6449      6448      6479      6484      6449      6451      6454      6455
      6449      6451      6454      6456      6449      6451      6454      6477
      6450      6449      6448      6479      6450      6449      6451      6452
      6450      6449      6451      6453      6450      6449      6451      6454
      6451      6449      6448      6479      6451      6454      6456      6457
      6451      6454      6456      6458      6451      6454      6456      6466
      6451      6454      6477      6474      6451      6454      6477      6478
      6451      6454      6477      6479      6452      6451      6454      6455
      6452      6451      6454      6456      6452      6451      6454      6477
      6453      6451      6454      6455      6453      6451      6454      6456
      6453      6451      6454      6477      6454      6456      6458      6459
      6454      6456      6458      6460      6454      6456      6458      6461
      6454      6456      6466      6464      6454      6456      6466      6467
      6454      6456      6466      6471      6454      6477      6474      6471
      6454      6477      6474      6475      6454      6477      6474      6476
      6454      6477      6479      6480      6454      6477      6479      6484
      6455      6454      6456      6457      6455      6454      6456      6458
      6455      6454      6456      6466      6455      6454      6477      6474
      6455      6454      6477      6478      6455      6454      6477      6479
      6456      6454      6477      6474      6456      6454      6477      6478
      6456      6454      6477      6479      6456      6458      6461      6462
      6456      6458      6461      6463      6456      6458      6461      6464
      6456      6466      6464      6461      6456      6466      6464      6465
      6456      6466      6464      6490      6456      6466      6467      6468
      6456      6466      6467      6469      6456      6466      6467      6470
      6456      6466      6471      6472      6456      6466      6471      6473
      6456      6466      6471      6474      6457      6456      6454      6477
      6457      6456      6458      6459      6457      6456      6458      6460
      6457      6456      6458      6461      6457      6456      6466      6464
      6457      6456      6466      6467      6457      6456      6466      6471
      6458      6456      6454      6477      6458      6456      6466      6464
      6458      6456      6466      6467      6458      6456      6466      6471
      6458      6461      6464      6465      6458      6461      6464      6466
      6458      6461      6464      6490      6459      6458      6456      6466
      6459      6458      6461      6462      6459      6458      6461      6463
      6459      6458      6461      6464      6460      6458      6456      6466
      6460      6458      6461      6462      6460      6458      6461      6463
      6460      6458      6461      6464      6461      6458      6456      6466
      6461      6464      6466      6467      6461      6464      6466      6471
      6461      6464      6490      6491      6461      6464      6490      6492
      6461      6464      6490      6496      6462      6461      6464      6465
      6462      6461      6464      6466      6462      6461      6464      6490
      6463      6461      6464      6465      6463      6461      6464      6466
      6463      6461      6464      6490      6464      6466      6467      6468
      6464      6466      6467      6469      6464      6466      6467      6470
      6464      6466      6471      6472      6464      6466      6471      6473
      6464      6466      6471      6474      6464      6490      6492      6493
      6464      6490      6492      6494      6464      6490      6492      6495
      6464      6490      6496      6497      6464      6490      6496      6498
      6464      6490      6496      6499      6465      6464      6466      6467
      6465      6464      6466      6471      6465      6464      6490      6491
      6465      6464      6490      6492      6465      6464      6490      6496
      6466      6456      6454      6477      6466      6464      6490      6491
      6466      6464      6490      6492      6466      6464      6490      6496
      6466      6471      6474      6475      6466      6471      6474      6476
      6466      6471      6474      6477      6467      6466      6464      6490
      6467      6466      6471      6472      6467      6466      6471      6473
      6467      6466      6471      6474      6468      6467      6466      6471
      6469      6467      6466      6471      6470      6467      6466      6471
      6471      6466      6464      6490      6471      6474      6477      6478
      6471      6474      6477      6479      6472      6471      6474      6475
      6472      6471      6474      6476      6472      6471      6474      6477
      6473      6471      6474      6475      6473      6471      6474      6476
      6473      6471      6474      6477      6474      6477      6479      6480
      6474      6477      6479      6484      6475      6474      6477      6478
      6475      6474      6477      6479      6476      6474      6477      6478
      6476      6474      6477      6479      6477      6479      6480      6481
      6477      6479      6480      6482      6477      6479      6480      6483
      6477      6479      6484      6485      6477      6479      6484      6486
      6477      6479      6484      6487      6478      6477      6479      6480
      6478      6477      6479      6484      6479      6484      6487      6488
      6479      6484      6487      6489      6480      6479      6484      6485
      6480      6479      6484      6486      6480      6479      6484      6487
      6481      6480      6479      6484      6482      6480      6479      6484
      6483      6480      6479      6484      6485      6484      6487      6488
      6485      6484      6487      6489      6486      6484      6487      6488
      6486      6484      6487      6489      6490      6496      6499      6500
      6490      6496      6499      6501      6490      6496      6499      6502
      6491      6490      6492      6493      6491      6490      6492      6494
      6491      6490      6492      6495      6491      6490      6496      6497
      6491      6490      6496      6498      6491      6490      6496      6499
      6492      6490      6496      6497      6492      6490      6496      6498
      6492      6490      6496      6499      6493      6492      6490      6496
      6494      6492      6490      6496      6495      6492      6490      6496
      6496      6499      6502      6503      6496      6499      6502      6504
      6496      6499      6502      6505      6497      6496      6499      6500
      6497      6496      6499      6501      6497      6496      6499      6502
      6498      6496      6499      6500      6498      6496      6499      6501
      6498      6496      6499      6502      6499      6502      6505      6506
      6499      6502      6505      6507      6499      6502      6505      6511
      6500      6499      6502      6503      6500      6499      6502      6504
      6500      6499      6502      6505      6501      6499      6502      6503
      6501      6499      6502      6504      6501      6499      6502      6505
      6502      6505      6507      6508      6502      6505      6507      6509
      6502      6505      6507      6510      6502      6505      6511      6512
      6502      6505      6511      6513      6502      6505      6511      6514
      6503      6502      6505      6506      6503      6502      6505      6507
      6503      6502      6505      6511      6504      6502      6505      6506
      6504      6502      6505      6507      6504      6502      6505      6511
      6506      6505      6507      6508      6506      6505      6507      6509
      6506      6505      6507      6510      6506      6505      6511      6512
      6506      6505      6511      6513      6506      6505      6511      6514
      6507      6505      6511      6512      6507      6505      6511      6513
      6507      6505      6511      6514      6508      6507      6505      6511
      6509      6507      6505      6511      6510      6507      6505      6511
      1442      1455      1458      1459      1442      1455      1458      1460
      1442      1455      1458      1465      1443      1442      1447      1448
      1443      1442      1447      1449      1443      1442      1447      1450
      1443      1442      1451      1452      1443      1442      1451      1453
      1443      1442      1451      1454      1443      1442      1455      1456
      1443      1442      1455      1457      1443      1442      1455      1458
      1444      1443      1442      1447      1444      1443      1442      1451
      1444      1443      1442      1455      1445      1443      1442      1447
      1445      1443      1442      1451      1445      1443      1442      1455
      1446      1443      1442      1447      1446      1443      1442      1451
      1446      1443      1442      1455      1447      1442      1451      1452
      1447      1442      1451      1453      1447      1442      1451      1454
      1447      1442      1455      1456      1447      1442      1455      1457
      1447      1442      1455      1458      1448      1447      1442      1451
      1448      1447      1442      1455      1449      1447      1442      1451
      1449      1447      1442      1455      1450      1447      1442      1451
      1450      1447      1442      1455      1451      1442      1455      1456
      1451      1442      1455      1457      1451      1442      1455      1458
      1452      1451      1442      1455      1453      1451      1442      1455
      1454      1451      1442      1455      1455      1458      1465      1461
      1456      1455      1458      1459      1456      1455      1458      1460
      1456      1455      1458      1465      1457      1455      1458      1459
      1457      1455      1458      1460      1457      1455      1458      1465
      1458      1465      1461      1462      1458      1465      1461      1463
      1458      1465      1461      1464      1459      1458      1465      1461
      1460      1458      1465      1461      1461      1464      1466      1467
      1461      1464      1466      1468      1461      1464      1466      1471
      1462      1461      1464      1466      1463      1461      1464      1466
      1464      1466      1471      1469      1464      1466      1471      1472
      1464      1466      1471      1473      1465      1461      1464      1466
      1466      1471      1469      1470      1466      1471      1469      1521
      1466      1471      1473      1474      1466      1471      1473      1475
      1466      1471      1473      1477      1467      1466      1471      1469
      1467      1466      1471      1472      1467      1466      1471      1473
      1468      1466      1471      1469      1468      1466      1471      1472
      1468      1466      1471      1473      1469      1471      1473      1474
      1469      1471      1473      1475      1469      1471      1473      1477
      1469      1521      1523      1524      1469      1521      1523      1525
      1469      1521      1523      1526      1470      1469      1471      1472
      1470      1469      1471      1473      1470      1469      1521      1522
      1470      1469      1521      1523      1471      1469      1521      1522
      1471      1469      1521      1523      1471      1473      1475      1476
      1471      1473      1477      1478      1471      1473      1477      1479
      1472      1471      1469      1521      1472      1471      1473      1474
      1472      1471      1473      1475      1472      1471      1473      1477
      1473      1471      1469      1521      1473      1477      1479      1480
      1473      1477      1479      1481      1474      1473      1475      1476
      1474      1473      1477      1478      1474      1473      1477      1479
      1475      1473      1477      1478      1475      1473      1477      1479
      1476      1475      1473      1477      1477      1479      1481      1482
      1477      1479      1481      1483      1477      1479      1481      1484
      1478      1477      1479      1480      1478      1477      1479      1481
      1479      1481      1484      1485      1479      1481      1484      1486
      1479      1481      1484      1487      1480      1479      1481      1482
      1480      1479      1481      1483      1480      1479      1481      1484
      1481      1484      1487      1488      1481      1484      1487      1489
      1481      1484      1487      1490      1482      1481      1484      1485
      1482      1481      1484      1486      1482      1481      1484      1487
      1483      1481      1484      1485      1483      1481      1484      1486
      1483      1481      1484      1487      1484      1487      1490      1491
      1484      1487      1490      1492      1484      1487      1490      1493
      1485      1484      1487      1488      1485      1484      1487      1489
      1485      1484      1487      1490      1486      1484      1487      1488
      1486      1484      1487      1489      1486      1484      1487      1490
      1487      1490      1493      1494      1487      1490      1493      1495
      1487      1490      1493      1496      1488      1487      1490      1491
      1488      1487      1490      1492      1488      1487      1490      1493
      1489      1487      1490      1491      1489      1487      1490      1492
      1489      1487      1490      1493      1490      1493      1496      1497
      1490      1493      1496      1498      1490      1493      1496      1499
      1491      1490      1493      1494      1491      1490      1493      1495
      1491      1490      1493      1496      1492      1490      1493      1494
      1492      1490      1493      1495      1492      1490      1493      1496
      1493      1496      1499      1500      1493      1496      1499      1501
      1493      1496      1499      1502      1494      1493      1496      1497
      1494      1493      1496      1498      1494      1493      1496      1499
      1495      1493      1496      1497      1495      1493      1496      1498
      1495      1493      1496      1499      1496      1499      1502      1503
      1496      1499      1502      1504      1496      1499      1502      1505
      1497      1496      1499      1500      1497      1496      1499      1501
      1497      1496      1499      1502      1498      1496      1499      1500
      1498      1496      1499      1501      1498      1496      1499      1502
      1499      1502      1505      1506      1499      1502      1505      1507
      1499      1502      1505      1508      1500      1499      1502      1503
      1500      1499      1502      1504      1500      1499      1502      1505
      1501      1499      1502      1503      1501      1499      1502      1504
      1501      1499      1502      1505      1502      1505      1508      1509
      1502      1505      1508      1510      1502      1505      1508      1511
      1503      1502      1505      1506      1503      1502      1505      1507
      1503      1502      1505      1508      1504      1502      1505      1506
      1504      1502      1505      1507      1504      1502      1505      1508
      1505      1508      1511      1512      1505      1508      1511      1513
      1505      1508      1511      1514      1506      1505      1508      1509
      1506      1505      1508      1510      1506      1505      1508      1511
      1507      1505      1508      1509      1507      1505      1508      1510
      1507      1505      1508      1511      1508      1511      1514      1515
      1508      1511      1514      1516      1508      1511      1514      1517
      1509      1508      1511      1512      1509      1508      1511      1513
      1509      1508      1511      1514      1510      1508      1511      1512
      1510      1508      1511      1513      1510      1508      1511      1514
      1511      1514      1517      1518      1511      1514      1517      1519
      1511      1514      1517      1520      1512      1511      1514      1515
      1512      1511      1514      1516      1512      1511      1514      1517
      1513      1511      1514      1515      1513      1511      1514      1516
      1513      1511      1514      1517      1515      1514      1517      1518
      1515      1514      1517      1519      1515      1514      1517      1520
      1516      1514      1517      1518      1516      1514      1517      1519
      1516      1514      1517      1520      1521      1523      1526      1527
      1521      1523      1526      1528      1521      1523      1526      1529
      1522      1521      1523      1524      1522      1521      1523      1525
      1522      1521      1523      1526      1523      1526      1529      1530
      1523      1526      1529      1531      1523      1526      1529      1532
      1524      1523      1526      1527      1524      1523      1526      1528
      1524      1523      1526      1529      1525      1523      1526      1527
      1525      1523      1526      1528      1525      1523      1526      1529
      1526      1529      1532      1533      1526      1529      1532      1534
      1526      1529      1532      1535      1527      1526      1529      1530
      1527      1526      1529      1531      1527      1526      1529      1532
      1528      1526      1529      1530      1528      1526      1529      1531
      1528      1526      1529      1532      1529      1532      1535      1536
      1529      1532      1535      1537      1529      1532      1535      1538
      1530      1529      1532      1533      1530      1529      1532      1534
      1530      1529      1532      1535      1531      1529      1532      1533
      1531      1529      1532      1534      1531      1529      1532      1535
      1532      1535      1538      1539      1532      1535      1538      1540
      1532      1535      1538      1541      1533      1532      1535      1536
      1533      1532      1535      1537      1533      1532      1535      1538
      1534      1532      1535      1536      1534      1532      1535      1537
      1534      1532      1535      1538      1535      1538      1541      1542
      1535      1538      1541      1543      1535      1538      1541      1544
      1536      1535      1538      1539      1536      1535      1538      1540
      1536      1535      1538      1541      1537      1535      1538      1539
      1537      1535      1538      1540      1537      1535      1538      1541
      1538      1541      1544      1545      1538      1541      1544      1546
      1539      1538      1541      1542      1539      1538      1541      1543
      1539      1538      1541      1544      1540      1538      1541      1542
      1540      1538      1541      1543      1540      1538      1541      1544
      1541      1544      1546      1547      1541      1544      1546      1548
      1542      1541      1544      1545      1542      1541      1544      1546
      1543      1541      1544      1545      1543      1541      1544      1546
      1544      1546      1548      1549      1544      1546      1548      1550
      1544      1546      1548      1551      1545      1544      1546      1547
      1545      1544      1546      1548      1546      1548      1551      1552
      1546      1548      1551      1553      1546      1548      1551      1554
      1547      1546      1548      1549      1547      1546      1548      1550
      1547      1546      1548      1551      1548      1551      1554      1555
      1548      1551      1554      1556      1548      1551      1554      1557
      1549      1548      1551      1552      1549      1548      1551      1553
      1549      1548      1551      1554      1550      1548      1551      1552
      1550      1548      1551      1553      1550      1548      1551      1554
      1551      1554      1557      1558      1551      1554      1557      1559
      1551      1554      1557      1560      1552      1551      1554      1555
      1552      1551      1554      1556      1552      1551      1554      1557
      1553      1551      1554      1555      1553      1551      1554      1556
      1553      1551      1554      1557      1554      1557      1560      1561
      1554      1557      1560      1562      1554      1557      1560      1563
      1555      1554      1557      1558      1555      1554      1557      1559
      1555      1554      1557      1560      1556      1554      1557      1558
      1556      1554      1557      1559      1556      1554      1557      1560
      1557      1560      1563      1564      1557      1560      1563      1565
      1557      1560      1563      1566      1558      1557      1560      1561
      1558      1557      1560      1562      1558      1557      1560      1563
      1559      1557      1560      1561      1559      1557      1560      1562
      1559      1557      1560      1563      1560      1563      1566      1567
      1560      1563      1566      1568      1560      1563      1566      1569
      1561      1560      1563      1564      1561      1560      1563      1565
      1561      1560      1563      1566      1562      1560      1563      1564
      1562      1560      1563      1565      1562      1560      1563      1566
      1563      1566      1569      1570      1563      1566      1569      1571
      1563      1566      1569      1572      1564      1563      1566      1567
      1564      1563      1566      1568      1564      1563      1566      1569
      1565      1563      1566      1567      1565      1563      1566      1568
      1565      1563      1566      1569      1567      1566      1569      1570
      1567      1566      1569      1571      1567      1566      1569      1572
      1568      1566      1569      1570      1568      1566      1569      1571
      1568      1566      1569      1572      8993      8994      9009      9010
      8993      8994      9009      9011      8993      8994      9009      9015
      8994      8993      8997      8998      8994      8993      8997      8999
      8994      8993      8997      9000      8994      8993      9001      9002
      8994      8993      9001      9003      8994      8993      9001      9004
      8994      8993      9005      9006      8994      8993      9005      9007
      8994      8993      9005      9008      8994      9009      9015      9012
      8995      8994      8993      8997      8995      8994      8993      9001
      8995      8994      8993      9005      8995      8994      9009      9010
      8995      8994      9009      9011      8995      8994      9009      9015
      8996      8994      8993      8997      8996      8994      8993      9001
      8996      8994      8993      9005      8996      8994      9009      9010
      8996      8994      9009      9011      8996      8994      9009      9015
      8997      8993      8994      9009      8997      8993      9001      9002
      8997      8993      9001      9003      8997      8993      9001      9004
      8997      8993      9005      9006      8997      8993      9005      9007
      8997      8993      9005      9008      8998      8997      8993      9001
      8998      8997      8993      9005      8999      8997      8993      9001
      8999      8997      8993      9005      9000      8997      8993      9001
      9000      8997      8993      9005      9001      8993      8994      9009
      9001      8993      9005      9006      9001      8993      9005      9007
      9001      8993      9005      9008      9002      9001      8993      9005
      9003      9001      8993      9005      9004      9001      8993      9005
      9005      8993      8994      9009      9009      9015      9012      9013
      9009      9015      9012      9014      9009      9015      9012      9016
      9010      9009      9015      9012      9011      9009      9015      9012
      9012      9016      9017      9018      9012      9016      9017      9019
      9012      9016      9017      9020      9013      9012      9016      9017
      9014      9012      9016      9017      9015      9012      9016      9017
      9016      9017      9020      9021      9016      9017      9020      9022
      9016      9017      9020      9028      9017      9020      9022      9023
      9017      9020      9028      9029      9017      9020      9028      9030
      9017      9020      9028      9031      9018      9017      9020      9021
      9018      9017      9020      9022      9018      9017      9020      9028
      9019      9017      9020      9021      9019      9017      9020      9022
      9019      9017      9020      9028      9020      9022      9023      9024
      9020      9022      9023      9025      9020      9028      9031      9032
      9021      9020      9022      9023      9021      9020      9028      9029
      9021      9020      9028      9030      9021      9020      9028      9031
      9022      9020      9028      9029      9022      9020      9028      9030
      9022      9020      9028      9031      9022      9023      9025      9026
      9022      9023      9025      9027      9022      9023      9025      9037
      9023      9022      9020      9028      9023      9025      9037      9038
      9023      9025      9037      9039      9023      9025      9037      9040
      9024      9023      9025      9026      9024      9023      9025      9027
      9024      9023      9025      9037      9025      9037      9040      9041
      9025      9037      9040      9042      9025      9037      9040      9043
      9026      9025      9037      9038      9026      9025      9037      9039
      9026      9025      9037      9040      9027      9025      9037      9038
      9027      9025      9037      9039      9027      9025      9037      9040
      9028      9031      9032      9033      9028      9031      9032      9034
      9029      9028      9031      9032      9030      9028      9031      9032
      9031      9032      9034      9035      9031      9032      9034      9036
      9031      9032      9034      9084      9032      9034      9084      9085
      9032      9034      9084      9086      9032      9034      9084      9087
      9033      9032      9034      9035      9033      9032      9034      9036
      9033      9032      9034      9084      9034      9084      9087      9088
      9034      9084      9087      9089      9034      9084      9087      9090
      9035      9034      9084      9085      9035      9034      9084      9086
      9035      9034      9084      9087      9036      9034      9084      9085
      9036      9034      9084      9086      9036      9034      9084      9087
      9037      9040      9043      9044      9037      9040      9043      9045
      9038      9037      9040      9041      9038      9037      9040      9042
      9038      9037      9040      9043      9039      9037      9040      9041
      9039      9037      9040      9042      9039      9037      9040      9043
      9040      9043      9045      9046      9040      9043      9045      9047
      9041      9040      9043      9044      9041      9040      9043      9045
      9042      9040      9043      9044      9042      9040      9043      9045
      9043      9045      9047      9048      9043      9045      9047      9049
      9043      9045      9047      9050      9044      9043      9045      9046
      9044      9043      9045      9047      9045      9047      9050      9051
      9045      9047      9050      9052      9046      9045      9047      9048
      9046      9045      9047      9049      9046      9045      9047      9050
      9047      9050      9052      9053      9047      9050      9052      9054
      9048      9047      9050      9051      9048      9047      9050      9052
      9049      9047      9050      9051      9049      9047      9050      9052
      9050      9052      9054      9055      9050      9052      9054      9056
      9050      9052      9054      9057      9051      9050      9052      9053
      9051      9050      9052      9054      9052      9054      9057      9058
      9052      9054      9057      9059      9053      9052      9054      9055
      9053      9052      9054      9056      9053      9052      9054      9057
      9054      9057      9059      9060      9054      9057      9059      9061
      9055      9054      9057      9058      9055      9054      9057      9059
      9056      9054      9057      9058      9056      9054      9057      9059
      9057      9059      9061      9062      9057      9059      9061      9063
      9057      9059      9061      9064      9058      9057      9059      9060
      9058      9057      9059      9061      9059      9061      9064      9065
      9059      9061      9064      9066      9060      9059      9061      9062
      9060      9059      9061      9063      9060      9059      9061      9064
      9061      9064      9066      9067      9061      9064      9066      9068
      9062      9061      9064      9065      9062      9061      9064      9066
      9063      9061      9064      9065      9063      9061      9064      9066
      9064      9066      9068      9069      9064      9066      9068      9070
      9064      9066      9068      9071      9065      9064      9066      9067
      9065      9064      9066      9068      9066      9068      9071      9072
      9066      9068      9071      9073      9066      9068      9071      9074
      9067      9066      9068      9069      9067      9066      9068      9070
      9067      9066      9068      9071      9068      9071      9074      9075
      9068      9071      9074      9076      9068      9071      9074      9077
      9069      9068      9071      9072      9069      9068      9071      9073
      9069      9068      9071      9074      9070      9068      9071      9072
      9070      9068      9071      9073      9070      9068      9071      9074
      9071      9074      9077      9078      9071      9074      9077      9079
      9071      9074      9077      9080      9072      9071      9074      9075
      9072      9071      9074      9076      9072      9071      9074      9077
      9073      9071      9074      9075      9073      9071      9074      9076
      9073      9071      9074      9077      9074      9077      9080      9081
      9074      9077      9080      9082      9074      9077      9080      9083
      9075      9074      9077      9078      9075      9074      9077      9079
      9075      9074      9077      9080      9076      9074      9077      9078
      9076      9074      9077      9079      9076      9074      9077      9080
      9078      9077      9080      9081      9078      9077      9080      9082
      9078      9077      9080      9083      9079      9077      9080      9081
      9079      9077      9080      9082      9079      9077      9080      9083
      9084      9087      9090      9091      9084      9087      9090      9092
      9084      9087      9090      9093      9085      9084      9087      9088
      9085      9084      9087      9089      9085      9084      9087      9090
      9086      9084      9087      9088      9086      9084      9087      9089
      9086      9084      9087      9090      9087      9090      9093      9094
      9087      9090      9093      9095      9087      9090      9093      9096
      9088      9087      9090      9091      9088      9087      9090      9092
      9088      9087      9090      9093      9089      9087      9090      9091
      9089      9087      9090      9092      9089      9087      9090      9093
      9090      9093      9096      9097      9090      9093      9096      9098
      9090      9093      9096      9099      9091      9090      9093      9094
      9091      9090      9093      9095      9091      9090      9093      9096
      9092      9090      9093      9094      9092      9090      9093      9095
      9092      9090      9093      9096      9093      9096      9099      9100
      9093      9096      9099      9101      9093      9096      9099      9102
      9094      9093      9096      9097      9094      9093      9096      9098
      9094      9093      9096      9099      9095      9093      9096      9097
      9095      9093      9096      9098      9095      9093      9096      9099
      9096      9099      9102      9103      9096      9099      9102      9104
      9096      9099      9102      9105      9097      9096      9099      9100
      9097      9096      9099      9101      9097      9096      9099      9102
      9098      9096      9099      9100      9098      9096      9099      9101
      9098      9096      9099      9102      9099      9102      9105      9106
      9099      9102      9105      9107      9099      9102      9105      9108
      9100      9099      9102      9103      9100      9099      9102      9104
      9100      9099      9102      9105      9101      9099      9102      9103
      9101      9099      9102      9104      9101      9099      9102      9105
      9102      9105      9108      9109      9102      9105      9108      9110
      9102      9105      9108      9111      9103      9102      9105      9106
      9103      9102      9105      9107      9103      9102      9105      9108
      9104      9102      9105      9106      9104      9102      9105      9107
      9104      9102      9105      9108      9105      9108      9111      9112
      9105      9108      9111      9113      9105      9108      9111      9114
      9106      9105      9108      9109      9106      9105      9108      9110
      9106      9105      9108      9111      9107      9105      9108      9109
      9107      9105      9108      9110      9107      9105      9108      9111
      9108      9111      9114      9115      9108      9111      9114      9116
      9108      9111      9114      9117      9109      9108      9111      9112
      9109      9108      9111      9113      9109      9108      9111      9114
      9110      9108      9111      9112      9110      9108      9111      9113
      9110      9108      9111      9114      9111      9114      9117      9118
      9111      9114      9117      9119      9111      9114      9117      9120
      9112      9111      9114      9115      9112      9111      9114      9116
      9112      9111      9114      9117      9113      9111      9114      9115
      9113      9111      9114      9116      9113      9111      9114      9117
      9114      9117      9120      9121      9114      9117      9120      9122
      9114      9117      9120      9123      9115      9114      9117      9118
      9115      9114      9117      9119      9115      9114      9117      9120
      9116      9114      9117      9118      9116      9114      9117      9119
      9116      9114      9117      9120      9117      9120      9123      9124
      9117      9120      9123      9125      9117      9120      9123      9126
      9118      9117      9120      9121      9118      9117      9120      9122
      9118      9117      9120      9123      9119      9117      9120      9121
      9119      9117      9120      9122      9119      9117      9120      9123
      9120      9123      9126      9127      9120      9123      9126      9128
      9120      9123      9126      9129      9121      9120      9123      9124
      9121      9120      9123      9125      9121      9120      9123      9126
      9122      9120      9123      9124      9122      9120      9123      9125
      9122      9120      9123      9126      9123      9126      9129      9130
      9123      9126      9129      9131      9123      9126      9129      9132
      9124      9123      9126      9127      9124      9123      9126      9128
      9124      9123      9126      9129      9125      9123      9126      9127
      9125      9123      9126      9128      9125      9123      9126      9129
      9127      9126      9129      9130      9127      9126      9129      9131
      9127      9126      9129      9132      9128      9126      9129      9130
      9128      9126      9129      9131      9128      9126      9129      9132
      1573      1586      1589      1590      1573      1586      1589      1591
      1573      1586      1589      1596      1574      1573      1578      1579
      1574      1573      1578      1580      1574      1573      1578      1581
      1574      1573      1582      1583      1574      1573      1582      1584
      1574      1573      1582      1585      1574      1573      1586      1587
      1574      1573      1586      1588      1574      1573      1586      1589
      1575      1574      1573      1578      1575      1574      1573      1582
      1575      1574      1573      1586      1576      1574      1573      1578
      1576      1574      1573      1582      1576      1574      1573      1586
      1577      1574      1573      1578      1577      1574      1573      1582
      1577      1574      1573      1586      1578      1573      1582      1583
      1578      1573      1582      1584      1578      1573      1582      1585
      1578      1573      1586      1587      1578      1573      1586      1588
      1578      1573      1586      1589      1579      1578      1573      1582
      1579      1578      1573      1586      1580      1578      1573      1582
      1580      1578      1573      1586      1581      1578      1573      1582
      1581      1578      1573      1586      1582      1573      1586      1587
      1582      1573      1586      1588      1582      1573      1586      1589
      1583      1582      1573      1586      1584      1582      1573      1586
      1585      1582      1573      1586      1586      1589      1596      1592
      1587      1586      1589      1590      1587      1586      1589      1591
      1587      1586      1589      1596      1588      1586      1589      1590
      1588      1586      1589      1591      1588      1586      1589      1596
      1589      1596      1592      1593      1589      1596      1592      1594
      1589      1596      1592      1595      1590      1589      1596      1592
      1591      1589      1596      1592      1592      1595      1597      1598
      1592      1595      1597      1599      1592      1595      1597      1602
      1593      1592      1595      1597      1594      1592      1595      1597
      1595      1597      1602      1600      1595      1597      1602      1603
      1595      1597      1602      1604      1596      1592      1595      1597
      1597      1602      1600      1601      1597      1602      1600      1652
      1597      1602      1604      1605      1597      1602      1604      1606
      1597      1602      1604      1608      1598      1597      1602      1600
      1598      1597      1602      1603      1598      1597      1602      1604
      1599      1597      1602      1600      1599      1597      1602      1603
      1599      1597      1602      1604      1600      1602      1604      1605
      1600      1602      1604      1606      1600      1602      1604      1608
      1600      1652      1654      1655      1600      1652      1654      1656
      1600      1652      1654      1657      1601      1600      1602      1603
      1601      1600      1602      1604      1601      1600      1652      1653
      1601      1600      1652      1654      1602      1600      1652      1653
      1602      1600      1652      1654      1602      1604      1606      1607
      1602      1604      1608      1609      1602      1604      1608      1610
      1603      1602      1600      1652      1603      1602      1604      1605
      1603      1602      1604      1606      1603      1602      1604      1608
      1604      1602      1600      1652      1604      1608      1610      1611
      1604      1608      1610      1612      1605      1604      1606      1607
      1605      1604      1608      1609      1605      1604      1608      1610
      1606      1604      1608      1609      1606      1604      1608      1610
      1607      1606      1604      1608      1608      1610      1612      1613
      1608      1610      1612      1614      1608      1610      1612      1615
      1609      1608      1610      1611      1609      1608      1610      1612
      1610      1612      1615      1616      1610      1612      1615      1617
      1610      1612      1615      1618      1611      1610      1612      1613
      1611      1610      1612      1614      1611      1610      1612      1615
      1612      1615      1618      1619      1612      1615      1618      1620
      1612      1615      1618      1621      1613      1612      1615      1616
      1613      1612      1615      1617      1613      1612      1615      1618
      1614      1612      1615      1616      1614      1612      1615      1617
      1614      1612      1615      1618      1615      1618      1621      1622
      1615      1618      1621      1623      1615      1618      1621      1624
      1616      1615      1618      1619      1616      1615      1618      1620
      1616      1615      1618      1621      1617      1615      1618      1619
      1617      1615      1618      1620      1617      1615      1618      1621
      1618      1621      1624      1625      1618      1621      1624      1626
      1618      1621      1624      1627      1619      1618      1621      1622
      1619      1618      1621      1623      1619      1618      1621      1624
      1620      1618      1621      1622      1620      1618      1621      1623
      1620      1618      1621      1624      1621      1624      1627      1628
      1621      1624      1627      1629      1621      1624      1627      1630
      1622      1621      1624      1625      1622      1621      1624      1626
      1622      1621      1624      1627      1623      1621      1624      1625
      1623      1621      1624      1626      1623      1621      1624      1627
      1624      1627      1630      1631      1624      1627      1630      1632
      1624      1627      1630      1633      1625      1624      1627      1628
      1625      1624      1627      1629      1625      1624      1627      1630
      1626      1624      1627      1628      1626      1624      1627      1629
      1626      1624      1627      1630      1627      1630      1633      1634
      1627      1630      1633      1635      1627      1630      1633      1636
      1628      1627      1630      1631      1628      1627      1630      1632
      1628      1627      1630      1633      1629      1627      1630      1631
      1629      1627      1630      1632      1629      1627      1630      1633
      1630      1633      1636      1637      1630      1633      1636      1638
      1630      1633      1636      1639      1631      1630      1633      1634
      1631      1630      1633      1635      1631      1630      1633      1636
      1632      1630      1633      1634      1632      1630      1633      1635
      1632      1630      1633      1636      1633      1636      1639      1640
      1633      1636      1639      1641      1633      1636      1639      1642
      1634      1633      1636      1637      1634      1633      1636      1638
      1634      1633      1636      1639      1635      1633      1636      1637
      1635      1633      1636      1638      1635      1633      1636      1639
      1636      1639      1642      1643      1636      1639      1642      1644
      1636      1639      1642      1645      1637      1636      1639      1640
      1637      1636      1639      1641      1637      1636      1639      1642
      1638      1636      1639      1640      1638      1636      1639      1641
      1638      1636      1639      1642      1639      1642      1645      1646
      1639      1642      1645      1647      1639      1642      1645      1648
      1640      1639      1642      1643      1640      1639      1642      1644
      1640      1639      1642      1645      1641      1639      1642      1643
      1641      1639      1642      1644      1641      1639      1642      1645
      1642      1645      1648      1649      1642      1645      1648      1650
      1642      1645      1648      1651      1643      1642      1645      1646
      1643      1642      1645      1647      1643      1642      1645      1648
      1644      1642      1645      1646      1644      1642      1645      1647
      1644      1642      1645      1648      1646      1645      1648      1649
      1646      1645      1648      1650      1646      1645      1648      1651
      1647      1645      1648      1649      1647      1645      1648      1650
      1647      1645      1648      1651      1652      1654      1657      1658
      1652      1654      1657      1659      1652      1654      1657      1660
      1653      1652      1654      1655      1653      1652      1654      1656
      1653      1652      1654      1657      1654      1657      1660      1661
      1654      1657      1660      1662      1654      1657      1660      1663
      1655      1654      1657      1658      1655      1654      1657      1659
      1655      1654      1657      1660      1656      1654      1657      1658
      1656      1654      1657      1659      1656      1654      1657      1660
      1657      1660      1663      1664      1657      1660      1663      1665
      1657      1660      1663      1666      1658      1657      1660      1661
      1658      1657      1660      1662      1658      1657      1660      1663
      1659      1657      1660      1661      1659      1657      1660      1662
      1659      1657      1660      1663      1660      1663      1666      1667
      1660      1663      1666      1668      1660      1663      1666      1669
      1661      1660      1663      1664      1661      1660      1663      1665
      1661      1660      1663      1666      1662      1660      1663      1664
      1662      1660      1663      1665      1662      1660      1663      1666
      1663      1666      1669      1670      1663      1666      1669      1671
      1663      1666      1669      1672      1664      1663      1666      1667
      1664      1663      1666      1668      1664      1663      1666      1669
      1665      1663      1666      1667      1665      1663      1666      1668
      1665      1663      1666      1669      1666      1669      1672      1673
      1666      1669      1672      1674      1666      1669      1672      1675
      1667      1666      1669      1670      1667      1666      1669      1671
      1667      1666      1669      1672      1668      1666      1669      1670
      1668      1666      1669      1671      1668      1666      1669      1672
      1669      1672      1675      1676      1669      1672      1675      1677
      1670      1669      1672      1673      1670      1669      1672      1674
      1670      1669      1672      1675      1671      1669      1672      1673
      1671      1669      1672      1674      1671      1669      1672      1675
      1672      1675      1677      1678      1672      1675      1677      1679
      1673      1672      1675      1676      1673      1672      1675      1677
      1674      1672      1675      1676      1674      1672      1675      1677
      1675      1677      1679      1680      1675      1677      1679      1681
      1675      1677      1679      1682      1676      1675      1677      1678
      1676      1675      1677      1679      1677      1679      1682      1683
      1677      1679      1682      1684      1677      1679      1682      1685
      1678      1677      1679      1680      1678      1677      1679      1681
      1678      1677      1679      1682      1679      1682      1685      1686
      1679      1682      1685      1687      1679      1682      1685      1688
      1680      1679      1682      1683      1680      1679      1682      1684
      1680      1679      1682      1685      1681      1679      1682      1683
      1681      1679      1682      1684      1681      1679      1682      1685
      1682      1685      1688      1689      1682      1685      1688      1690
      1682      1685      1688      1691      1683      1682      1685      1686
      1683      1682      1685      1687      1683      1682      1685      1688
      1684      1682      1685      1686      1684      1682      1685      1687
      1684      1682      1685      1688      1685      1688      1691      1692
      1685      1688      1691      1693      1685      1688      1691      1694
      1686      1685      1688      1689      1686      1685      1688      1690
      1686      1685      1688      1691      1687      1685      1688      1689
      1687      1685      1688      1690      1687      1685      1688      1691
      1688      1691      1694      1695      1688      1691      1694      1696
      1688      1691      1694      1697      1689      1688      1691      1692
      1689      1688      1691      1693      1689      1688      1691      1694
      1690      1688      1691      1692      1690      1688      1691      1693
      1690      1688      1691      1694      1691      1694      1697      1698
      1691      1694      1697      1699      1691      1694      1697      1700
      1692      1691      1694      1695      1692      1691      1694      1696
      1692      1691      1694      1697      1693      1691      1694      1695
      1693      1691      1694      1696      1693      1691      1694      1697
      1694      1697      1700      1701      1694      1697      1700      1702
      1694      1697      1700      1703      1695      1694      1697      1698
      1695      1694      1697      1699      1695      1694      1697      1700
      1696      1694      1697      1698      1696      1694      1697      1699
      1696      1694      1697      1700      1698      1697      1700      1701
      1698      1697      1700      1702      1698      1697      1700      1703
      1699      1697      1700      1701      1699      1697      1700      1702
      1699      1697      1700      1703      7881      7894      7897      7898
      7881      7894      7897      7899      7881      7894      7897      7903
      7882      7881      7886      7887      7882      7881      7886      7888
      7882      7881      7886      7889      7882      7881      7890      7891
      7882      7881      7890      7892      7882      7881      7890      7893
      7882      7881      7894      7895      7882      7881      7894      7896
      7882      7881      7894      7897      7883      7882      7881      7886
      7883      7882      7881      7890      7883      7882      7881      7894
      7884      7882      7881      7886      7884      7882      7881      7890
      7884      7882      7881      7894      7885      7882      7881      7886
      7885      7882      7881      7890      7885      7882      7881      7894
      7886      7881      7890      7891      7886      7881      7890      7892
      7886      7881      7890      7893      7886      7881      7894      7895
      7886      7881      7894      7896      7886      7881      7894      7897
      7887      7886      7881      7890      7887      7886      7881      7894
      7888      7886      7881      7890      7888      7886      7881      7894
      7889      7886      7881      7890      7889      7886      7881      7894
      7890      7881      7894      7895      7890      7881      7894      7896
      7890      7881      7894      7897      7891      7890      7881      7894
      7892      7890      7881      7894      7893      7890      7881      7894
      7894      7897      7903      7900      7895      7894      7897      7898
      7895      7894      7897      7899      7895      7894      7897      7903
      7896      7894      7897      7898      7896      7894      7897      7899
      7896      7894      7897      7903      7897      7903      7900      7901
      7897      7903      7900      7902      7897      7903      7900      7904
      7898      7897      7903      7900      7899      7897      7903      7900
      7900      7904      7905      7906      7900      7904      7905      7907
      7900      7904      7905      7908      7901      7900      7904      7905
      7902      7900      7904      7905      7903      7900      7904      7905
      7904      7905      7908      7909      7904      7905      7908      7910
      7904      7905      7908      7916      7905      7908      7910      7911
      7905      7908      7916      7917      7905      7908      7916      7918
      7905      7908      7916      7919      7906      7905      7908      7909
      7906      7905      7908      7910      7906      7905      7908      7916
      7907      7905      7908      7909      7907      7905      7908      7910
      7907      7905      7908      7916      7908      7910      7911      7912
      7908      7910      7911      7913      7908      7916      7919      7920
      7909      7908      7910      7911      7909      7908      7916      7917
      7909      7908      7916      7918      7909      7908      7916      7919
      7910      7908      7916      7917      7910      7908      7916      7918
      7910      7908      7916      7919      7910      7911      7913      7914
      7910      7911      7913      7915      7910      7911      7913      7925
      7911      7910      7908      7916      7911      7913      7925      7926
      7911      7913      7925      7927      7911      7913      7925      7928
      7912      7911      7913      7914      7912      7911      7913      7915
      7912      7911      7913      7925      7913      7925      7928      7929
      7913      7925      7928      7930      7913      7925      7928      7931
      7914      7913      7925      7926      7914      7913      7925      7927
      7914      7913      7925      7928      7915      7913      7925      7926
      7915      7913      7925      7927      7915      7913      7925      7928
      7916      7919      7920      7921      7916      7919      7920      7922
      7917      7916      7919      7920      7918      7916      7919      7920
      7919      7920      7922      7923      7919      7920      7922      7924
      7919      7920      7922      7970      7920      7922      7970      7971
      7920      7922      7970      7972      7920      7922      7970      7973
      7921      7920      7922      7923      7921      7920      7922      7924
      7921      7920      7922      7970      7922      7970      7973      7974
      7922      7970      7973      7975      7922      7970      7973      7976
      7923      7922      7970      7971      7923      7922      7970      7972
      7923      7922      7970      7973      7924      7922      7970      7971
      7924      7922      7970      7972      7924      7922      7970      7973
      7925      7928      7931      7932      7925      7928      7931      7933
      7925      7928      7931      7934      7926      7925      7928      7929
      7926      7925      7928      7930      7926      7925      7928      7931
      7927      7925      7928      7929      7927      7925      7928      7930
      7927      7925      7928      7931      7928      7931      7934      7935
      7928      7931      7934      7936      7928      7931      7934      7937
      7929      7928      7931      7932      7929      7928      7931      7933
      7929      7928      7931      7934      7930      7928      7931      7932
      7930      7928      7931      7933      7930      7928      7931      7934
      7931      7934      7937      7938      7931      7934      7937      7939
      7931      7934      7937      7940      7932      7931      7934      7935
      7932      7931      7934      7936      7932      7931      7934      7937
      7933      7931      7934      7935      7933      7931      7934      7936
      7933      7931      7934      7937      7934      7937      7940      7941
      7934      7937      7940      7942      7934      7937      7940      7943
      7935      7934      7937      7938      7935      7934      7937      7939
      7935      7934      7937      7940      7936      7934      7937      7938
      7936      7934      7937      7939      7936      7934      7937      7940
      7937      7940      7943      7944      7937      7940      7943      7945
      7938      7937      7940      7941      7938      7937      7940      7942
      7938      7937      7940      7943      7939      7937      7940      7941
      7939      7937      7940      7942      7939      7937      7940      7943
      7940      7943      7945      7946      7940      7943      7945      7947
      7941      7940      7943      7944      7941      7940      7943      7945
      7942      7940      7943      7944      7942      7940      7943      7945
      7943      7945      7947      7948      7943      7945      7947      7949
      7943      7945      7947      7950      7944      7943      7945      7946
      7944      7943      7945      7947      7945      7947      7950      7951
      7945      7947      7950      7952      7946      7945      7947      7948
      7946      7945      7947      7949      7946      7945      7947      7950
      7947      7950      7952      7953      7947      7950      7952      7954
      7948      7947      7950      7951      7948      7947      7950      7952
      7949      7947      7950      7951      7949      7947      7950      7952
      7950      7952      7954      7955      7950      7952      7954      7956
      7950      7952      7954      7957      7951      7950      7952      7953
      7951      7950      7952      7954      7952      7954      7957      7958
      7952      7954      7957      7959      7952      7954      7957      7960
      7953      7952      7954      7955      7953      7952      7954      7956
      7953      7952      7954      7957      7954      7957      7960      7961
      7954      7957      7960      7962      7954      7957      7960      7963
      7955      7954      7957      7958      7955      7954      7957      7959
      7955      7954      7957      7960      7956      7954      7957      7958
      7956      7954      7957      7959      7956      7954      7957      7960
      7957      7960      7963      7964      7957      7960      7963      7965
      7957      7960      7963      7966      7958      7957      7960      7961
      7958      7957      7960      7962      7958      7957      7960      7963
      7959      7957      7960      7961      7959      7957      7960      7962
      7959      7957      7960      7963      7960      7963      7966      7967
      7960      7963      7966      7968      7960      7963      7966      7969
      7961      7960      7963      7964      7961      7960      7963      7965
      7961      7960      7963      7966      7962      7960      7963      7964
      7962      7960      7963      7965      7962      7960      7963      7966
      7964      7963      7966      7967      7964      7963      7966      7968
      7964      7963      7966      7969      7965      7963      7966      7967
      7965      7963      7966      7968      7965      7963      7966      7969
      7970      7973      7976      7977      7970      7973      7976      7978
      7970      7973      7976      7979      7971      7970      7973      7974
      7971      7970      7973      7975      7971      7970      7973      7976
      7972      7970      7973      7974      7972      7970      7973      7975
      7972      7970      7973      7976      7973      7976      7979      7980
      7973      7976      7979      7981      7973      7976      7979      7982
      7974      7973      7976      7977      7974      7973      7976      7978
      7974      7973      7976      7979      7975      7973      7976      7977
      7975      7973      7976      7978      7975      7973      7976      7979
      7976      7979      7982      7983      7976      7979      7982      7984
      7976      7979      7982      7985      7977      7976      7979      7980
      7977      7976      7979      7981      7977      7976      7979      7982
      7978      7976      7979      7980      7978      7976      7979      7981
      7978      7976      7979      7982      7979      7982      7985      7986
      7979      7982      7985      7987      7979      7982      7985      7988
      7980      7979      7982      7983      7980      7979      7982      7984
      7980      7979      7982      7985      7981      7979      7982      7983
      7981      7979      7982      7984      7981      7979      7982      7985
      7982      7985      7988      7989      7982      7985      7988      7990
      7982      7985      7988      7991      7983      7982      7985      7986
      7983      7982      7985      7987      7983      7982      7985      7988
      7984      7982      7985      7986      7984      7982      7985      7987
      7984      7982      7985      7988      7985      7988      7991      7992
      7985      7988      7991      7993      7985      7988      7991      7994
      7986      7985      7988      7989      7986      7985      7988      7990
      7986      7985      7988      7991      7987      7985      7988      7989
      7987      7985      7988      7990      7987      7985      7988      7991
      7988      7991      7994      7995      7988      7991      7994      7996
      7988      7991      7994      7997      7989      7988      7991      7992
      7989      7988      7991      7993      7989      7988      7991      7994
      7990      7988      7991      7992      7990      7988      7991      7993
      7990      7988      7991      7994      7991      7994      7997      7998
      7991      7994      7997      7999      7991      7994      7997      8000
      7992      7991      7994      7995      7992      7991      7994      7996
      7992      7991      7994      7997      7993      7991      7994      7995
      7993      7991      7994      7996      7993      7991      7994      7997
      7994      7997      8000      8001      7994      7997      8000      8002
      7994      7997      8000      8003      7995      7994      7997      7998
      7995      7994      7997      7999      7995      7994      7997      8000
      7996      7994      7997      7998      7996      7994      7997      7999
      7996      7994      7997      8000      7997      8000      8003      8004
      7997      8000      8003      8005      7997      8000      8003      8006
      7998      7997      8000      8001      7998      7997      8000      8002
      7998      7997      8000      8003      7999      7997      8000      8001
      7999      7997      8000      8002      7999      7997      8000      8003
      8000      8003      8006      8007      8000      8003      8006      8008
      8000      8003      8006      8009      8001      8000      8003      8004
      8001      8000      8003      8005      8001      8000      8003      8006
      8002      8000      8003      8004      8002      8000      8003      8005
      8002      8000      8003      8006      8003      8006      8009      8010
      8003      8006      8009      8011      8003      8006      8009      8012
      8004      8003      8006      8007      8004      8003      8006      8008
      8004      8003      8006      8009      8005      8003      8006      8007
      8005      8003      8006      8008      8005      8003      8006      8009
      8006      8009      8012      8013      8006      8009      8012      8014
      8006      8009      8012      8015      8007      8006      8009      8010
      8007      8006      8009      8011      8007      8006      8009      8012
      8008      8006      8009      8010      8008      8006      8009      8011
      8008      8006      8009      8012      8009      8012      8015      8016
      8009      8012      8015      8017      8009      8012      8015      8018
      8010      8009      8012      8013      8010      8009      8012      8014
      8010      8009      8012      8015      8011      8009      8012      8013
      8011      8009      8012      8014      8011      8009      8012      8015
      8013      8012      8015      8016      8013      8012      8015      8017
      8013      8012      8015      8018      8014      8012      8015      8016
      8014      8012      8015      8017      8014      8012      8015      8018
      4340      4344      4347      4348      4340      4344      4347      4349
      4340      4344      4347      4353      4341      4340      4344      4345
      4341      4340      4344      4346      4341      4340      4344      4347
      4342      4340      4344      4345      4342      4340      4344      4346
      4342      4340      4344      4347      4343      4340      4344      4345
      4343      4340      4344      4346      4343      4340      4344      4347
      4344      4347      4353      4350      4345      4344      4347      4348
      4345      4344      4347      4349      4345      4344      4347      4353
      4346      4344      4347      4348      4346      4344      4347      4349
      4346      4344      4347      4353      4347      4353      4350      4351
      4347      4353      4350      4352      4347      4353      4350      4354
      4348      4347      4353      4350      4349      4347      4353      4350
      4350      4354      4355      4356      4350      4354      4355      4357
      4350      4354      4355      4358      4351      4350      4354      4355
      4352      4350      4354      4355      4353      4350      4354      4355
      4354      4355      4358      4359      4354      4355      4358      4360
      4354      4355      4358      4366      4355      4358      4360      4361
      4355      4358      4366      4367      4355      4358      4366      4368
      4355      4358      4366      4369      4356      4355      4358      4359
      4356      4355      4358      4360      4356      4355      4358      4366
      4357      4355      4358      4359      4357      4355      4358      4360
      4357      4355      4358      4366      4358      4360      4361      4362
      4358      4360      4361      4363      4358      4366      4369      4370
      4359      4358      4360      4361      4359      4358      4366      4367
      4359      4358      4366      4368      4359      4358      4366      4369
      4360      4358      4366      4367      4360      4358      4366      4368
      4360      4358      4366      4369      4360      4361      4363      4364
      4360      4361      4363      4365      4360      4361      4363      4375
      4361      4360      4358      4366      4361      4363      4375      4376
      4361      4363      4375      4377      4361      4363      4375      4378
      4362      4361      4363      4364      4362      4361      4363      4365
      4362      4361      4363      4375      4363      4375      4378      4379
      4363      4375      4378      4380      4363      4375      4378      4381
      4364      4363      4375      4376      4364      4363      4375      4377
      4364      4363      4375      4378      4365      4363      4375      4376
      4365      4363      4375      4377      4365      4363      4375      4378
      4366      4369      4370      4371      4366      4369      4370      4372
      4367      4366      4369      4370      4368      4366      4369      4370
      4369      4370      4372      4373      4369      4370      4372      4374
      4369      4370      4372      4422      4370      4372      4422      4423
      4370      4372      4422      4424      4370      4372      4422      4425
      4371      4370      4372      4373      4371      4370      4372      4374
      4371      4370      4372      4422      4372      4422      4425      4426
      4372      4422      4425      4427      4372      4422      4425      4428
      4373      4372      4422      4423      4373      4372      4422      4424
      4373      4372      4422      4425      4374      4372      4422      4423
      4374      4372      4422      4424      4374      4372      4422      4425
      4375      4378      4381      4382      4375      4378      4381      4383
      4376      4375      4378      4379      4376      4375      4378      4380
      4376      4375      4378      4381      4377      4375      4378      4379
      4377      4375      4378      4380      4377      4375      4378      4381
      4378      4381      4383      4384      4378      4381      4383      4385
      4379      4378      4381      4382      4379      4378      4381      4383
      4380      4378      4381      4382      4380      4378      4381      4383
      4381      4383      4385      4386      4381      4383      4385      4387
      4381      4383      4385      4388      4382      4381      4383      4384
      4382      4381      4383      4385      4383      4385      4388      4389
      4383      4385      4388      4390      4384      4383      4385      4386
      4384      4383      4385      4387      4384      4383      4385      4388
      4385      4388      4390      4391      4385      4388      4390      4392
      4386      4385      4388      4389      4386      4385      4388      4390
      4387      4385      4388      4389      4387      4385      4388      4390
      4388      4390      4392      4393      4388      4390      4392      4394
      4388      4390      4392      4395      4389      4388      4390      4391
      4389      4388      4390      4392      4390      4392      4395      4396
      4390      4392      4395      4397      4391      4390      4392      4393
      4391      4390      4392      4394      4391      4390      4392      4395
      4392      4395      4397      4398      4392      4395      4397      4399
      4393      4392      4395      4396      4393      4392      4395      4397
      4394      4392      4395      4396      4394      4392      4395      4397
      4395      4397      4399      4400      4395      4397      4399      4401
      4395      4397      4399      4402      4396      4395      4397      4398
      4396      4395      4397      4399      4397      4399      4402      4403
      4397      4399      4402      4404      4398      4397      4399      4400
      4398      4397      4399      4401      4398      4397      4399      4402
      4399      4402      4404      4405      4399      4402      4404      4406
      4400      4399      4402      4403      4400      4399      4402      4404
      4401      4399      4402      4403      4401      4399      4402      4404
      4402      4404      4406      4407      4402      4404      4406      4408
      4402      4404      4406      4409      4403      4402      4404      4405
      4403      4402      4404      4406      4404      4406      4409      4410
      4404      4406      4409      4411      4404      4406      4409      4412
      4405      4404      4406      4407      4405      4404      4406      4408
      4405      4404      4406      4409      4406      4409      4412      4413
      4406      4409      4412      4414      4406      4409      4412      4415
      4407      4406      4409      4410      4407      4406      4409      4411
      4407      4406      4409      4412      4408      4406      4409      4410
      4408      4406      4409      4411      4408      4406      4409      4412
      4409      4412      4415      4416      4409      4412      4415      4417
      4409      4412      4415      4418      4410      4409      4412      4413
      4410      4409      4412      4414      4410      4409      4412      4415
      4411      4409      4412      4413      4411      4409      4412      4414
      4411      4409      4412      4415      4412      4415      4418      4419
      4412      4415      4418      4420      4412      4415      4418      4421
      4413      4412      4415      4416      4413      4412      4415      4417
      4413      4412      4415      4418      4414      4412      4415      4416
      4414      4412      4415      4417      4414      4412      4415      4418
      4416      4415      4418      4419      4416      4415      4418      4420
      4416      4415      4418      4421      4417      4415      4418      4419
      4417      4415      4418      4420      4417      4415      4418      4421
      4422      4425      4428      4429      4422      4425      4428      4430
      4422      4425      4428      4431      4423      4422      4425      4426
      4423      4422      4425      4427      4423      4422      4425      4428
      4424      4422      4425      4426      4424      4422      4425      4427
      4424      4422      4425      4428      4425      4428      4431      4432
      4425      4428      4431      4433      4425      4428      4431      4434
      4426      4425      4428      4429      4426      4425      4428      4430
      4426      4425      4428      4431      4427      4425      4428      4429
      4427      4425      4428      4430      4427      4425      4428      4431
      4428      4431      4434      4435      4428      4431      4434      4436
      4428      4431      4434      4437      4429      4428      4431      4432
      4429      4428      4431      4433      4429      4428      4431      4434
      4430      4428      4431      4432      4430      4428      4431      4433
      4430      4428      4431      4434      4431      4434      4437      4438
      4431      4434      4437      4439      4431      4434      4437      4440
      4432      4431      4434      4435      4432      4431      4434      4436
      4432      4431      4434      4437      4433      4431      4434      4435
      4433      4431      4434      4436      4433      4431      4434      4437
      4434      4437      4440      4441      4434      4437      4440      4442
      4434      4437      4440      4443      4435      4434      4437      4438
      4435      4434      4437      4439      4435      4434      4437      4440
      4436      4434      4437      4438      4436      4434      4437      4439
      4436      4434      4437      4440      4437      4440      4443      4444
      4437      4440      4443      4445      4437      4440      4443      4446
      4438      4437      4440      4441      4438      4437      4440      4442
      4438      4437      4440      4443      4439      4437      4440      4441
      4439      4437      4440      4442      4439      4437      4440      4443
      4440      4443      4446      4447      4440      4443      4446      4448
      4440      4443      4446      4449      4441      4440      4443      4444
      4441      4440      4443      4445      4441      4440      4443      4446
      4442      4440      4443      4444      4442      4440      4443      4445
      4442      4440      4443      4446      4443      4446      4449      4450
      4443      4446      4449      4451      4443      4446      4449      4452
      4444      4443      4446      4447      4444      4443      4446      4448
      4444      4443      4446      4449      4445      4443      4446      4447
      4445      4443      4446      4448      4445      4443      4446      4449
      4446      4449      4452      4453      4446      4449      4452      4454
      4446      4449      4452      4455      4447      4446      4449      4450
      4447      4446      4449      4451      4447      4446      4449      4452
      4448      4446      4449      4450      4448      4446      4449      4451
      4448      4446      4449      4452      4449      4452      4455      4456
      4449      4452      4455      4457      4449      4452      4455      4458
      4450      4449      4452      4453      4450      4449      4452      4454
      4450      4449      4452      4455      4451      4449      4452      4453
      4451      4449      4452      4454      4451      4449      4452      4455
      4452      4455      4458      4459      4452      4455      4458      4460
      4452      4455      4458      4461      4453      4452      4455      4456
      4453      4452      4455      4457      4453      4452      4455      4458
      4454      4452      4455      4456      4454      4452      4455      4457
      4454      4452      4455      4458      4455      4458      4461      4462
      4455      4458      4461      4463      4455      4458      4461      4464
      4456      4455      4458      4459      4456      4455      4458      4460
      4456      4455      4458      4461      4457      4455      4458      4459
      4457      4455      4458      4460      4457      4455      4458      4461
      4458      4461      4464      4465      4458      4461      4464      4466
      4458      4461      4464      4467      4459      4458      4461      4462
      4459      4458      4461      4463      4459      4458      4461      4464
      4460      4458      4461      4462      4460      4458      4461      4463
      4460      4458      4461      4464      4461      4464      4467      4468
      4461      4464      4467      4469      4461      4464      4467      4470
      4462      4461      4464      4465      4462      4461      4464      4466
      4462      4461      4464      4467      4463      4461      4464      4465
      4463      4461      4464      4466      4463      4461      4464      4467
      4465      4464      4467      4468      4465      4464      4467      4469
      4465      4464      4467      4470      4466      4464      4467      4468
      4466      4464      4467      4469      4466      4464      4467      4470
      4471      4475      4478      4479      4471      4475      4478      4480
      4471      4475      4478      4484      4472      4471      4475      4476
      4472      4471      4475      4477      4472      4471      4475      4478
      4473      4471      4475      4476      4473      4471      4475      4477
      4473      4471      4475      4478      4474      4471      4475      4476
      4474      4471      4475      4477      4474      4471      4475      4478
      4475      4478      4484      4481      4476      4475      4478      4479
      4476      4475      4478      4480      4476      4475      4478      4484
      4477      4475      4478      4479      4477      4475      4478      4480
      4477      4475      4478      4484      4478      4484      4481      4482
      4478      4484      4481      4483      4478      4484      4481      4485
      4479      4478      4484      4481      4480      4478      4484      4481
      4481      4485      4486      4487      4481      4485      4486      4488
      4481      4485      4486      4489      4482      4481      4485      4486
      4483      4481      4485      4486      4484      4481      4485      4486
      4485      4486      4489      4490      4485      4486      4489      4491
      4485      4486      4489      4497      4486      4489      4491      4492
      4486      4489      4497      4498      4486      4489      4497      4499
      4486      4489      4497      4500      4487      4486      4489      4490
      4487      4486      4489      4491      4487      4486      4489      4497
      4488      4486      4489      4490      4488      4486      4489      4491
      4488      4486      4489      4497      4489      4491      4492      4493
      4489      4491      4492      4494      4489      4497      4500      4501
      4490      4489      4491      4492      4490      4489      4497      4498
      4490      4489      4497      4499      4490      4489      4497      4500
      4491      4489      4497      4498      4491      4489      4497      4499
      4491      4489      4497      4500      4491      4492      4494      4495
      4491      4492      4494      4496      4491      4492      4494      4506
      4492      4491      4489      4497      4492      4494      4506      4507
      4492      4494      4506      4508      4492      4494      4506      4509
      4493      4492      4494      4495      4493      4492      4494      4496
      4493      4492      4494      4506      4494      4506      4509      4510
      4494      4506      4509      4511      4494      4506      4509      4512
      4495      4494      4506      4507      4495      4494      4506      4508
      4495      4494      4506      4509      4496      4494      4506      4507
      4496      4494      4506      4508      4496      4494      4506      4509
      4497      4500      4501      4502      4497      4500      4501      4503
      4498      4497      4500      4501      4499      4497      4500      4501
      4500      4501      4503      4504      4500      4501      4503      4505
      4500      4501      4503      4553      4501      4503      4553      4554
      4501      4503      4553      4555      4501      4503      4553      4556
      4502      4501      4503      4504      4502      4501      4503      4505
      4502      4501      4503      4553      4503      4553      4556      4557
      4503      4553      4556      4558      4503      4553      4556      4559
      4504      4503      4553      4554      4504      4503      4553      4555
      4504      4503      4553      4556      4505      4503      4553      4554
      4505      4503      4553      4555      4505      4503      4553      4556
      4506      4509      4512      4513      4506      4509      4512      4514
      4507      4506      4509      4510      4507      4506      4509      4511
      4507      4506      4509      4512      4508      4506      4509      4510
      4508      4506      4509      4511      4508      4506      4509      4512
      4509      4512      4514      4515      4509      4512      4514      4516
      4510      4509      4512      4513      4510      4509      4512      4514
      4511      4509      4512      4513      4511      4509      4512      4514
      4512      4514      4516      4517      4512      4514      4516      4518
      4512      4514      4516      4519      4513      4512      4514      4515
      4513      4512      4514      4516      4514      4516      4519      4520
      4514      4516      4519      4521      4515      4514      4516      4517
      4515      4514      4516      4518      4515      4514      4516      4519
      4516      4519      4521      4522      4516      4519      4521      4523
      4517      4516      4519      4520      4517      4516      4519      4521
      4518      4516      4519      4520      4518      4516      4519      4521
      4519      4521      4523      4524      4519      4521      4523      4525
      4519      4521      4523      4526      4520      4519      4521      4522
      4520      4519      4521      4523      4521      4523      4526      4527
      4521      4523      4526      4528      4522      4521      4523      4524
      4522      4521      4523      4525      4522      4521      4523      4526
      4523      4526      4528      4529      4523      4526      4528      4530
      4524      4523      4526      4527      4524      4523      4526      4528
      4525      4523      4526      4527      4525      4523      4526      4528
      4526      4528      4530      4531      4526      4528      4530      4532
      4526      4528      4530      4533      4527      4526      4528      4529
      4527      4526      4528      4530      4528      4530      4533      4534
      4528      4530      4533      4535      4529      4528      4530      4531
      4529      4528      4530      4532      4529      4528      4530      4533
      4530      4533      4535      4536      4530      4533      4535      4537
      4531      4530      4533      4534      4531      4530      4533      4535
      4532      4530      4533      4534      4532      4530      4533      4535
      4533      4535      4537      4538      4533      4535      4537      4539
      4533      4535      4537      4540      4534      4533      4535      4536
      4534      4533      4535      4537      4535      4537      4540      4541
      4535      4537      4540      4542      4535      4537      4540      4543
      4536      4535      4537      4538      4536      4535      4537      4539
      4536      4535      4537      4540      4537      4540      4543      4544
      4537      4540      4543      4545      4537      4540      4543      4546
      4538      4537      4540      4541      4538      4537      4540      4542
      4538      4537      4540      4543      4539      4537      4540      4541
      4539      4537      4540      4542      4539      4537      4540      4543
      4540      4543      4546      4547      4540      4543      4546      4548
      4540      4543      4546      4549      4541      4540      4543      4544
      4541      4540      4543      4545      4541      4540      4543      4546
      4542      4540      4543      4544      4542      4540      4543      4545
      4542      4540      4543      4546      4543      4546      4549      4550
      4543      4546      4549      4551      4543      4546      4549      4552
      4544      4543      4546      4547      4544      4543      4546      4548
      4544      4543      4546      4549      4545      4543      4546      4547
      4545      4543      4546      4548      4545      4543      4546      4549
      4547      4546      4549      4550      4547      4546      4549      4551
      4547      4546      4549      4552      4548      4546      4549      4550
      4548      4546      4549      4551      4548      4546      4549      4552
      4553      4556      4559      4560      4553      4556      4559      4561
      4553      4556      4559      4562      4554      4553      4556      4557
      4554      4553      4556      4558      4554      4553      4556      4559
      4555      4553      4556      4557      4555      4553      4556      4558
      4555      4553      4556      4559      4556      4559      4562      4563
      4556      4559      4562      4564      4556      4559      4562      4565
      4557      4556      4559      4560      4557      4556      4559      4561
      4557      4556      4559      4562      4558      4556      4559      4560
      4558      4556      4559      4561      4558      4556      4559      4562
      4559      4562      4565      4566      4559      4562      4565      4567
      4559      4562      4565      4568      4560      4559      4562      4563
      4560      4559      4562      4564      4560      4559      4562      4565
      4561      4559      4562      4563      4561      4559      4562      4564
      4561      4559      4562      4565      4562      4565      4568      4569
      4562      4565      4568      4570      4562      4565      4568      4571
      4563      4562      4565      4566      4563      4562      4565      4567
      4563      4562      4565      4568      4564      4562      4565      4566
      4564      4562      4565      4567      4564      4562      4565      4568
      4565      4568      4571      4572      4565      4568      4571      4573
      4565      4568      4571      4574      4566      4565      4568      4569
      4566      4565      4568      4570      4566      4565      4568      4571
      4567      4565      4568      4569      4567      4565      4568      4570
      4567      4565      4568      4571      4568      4571      4574      4575
      4568      4571      4574      4576      4568      4571      4574      4577
      4569      4568      4571      4572      4569      4568      4571      4573
      4569      4568      4571      4574      4570      4568      4571      4572
      4570      4568      4571      4573      4570      4568      4571      4574
      4571      4574      4577      4578      4571      4574      4577      4579
      4571      4574      4577      4580      4572      4571      4574      4575
      4572      4571      4574      4576      4572      4571      4574      4577
      4573      4571      4574      4575      4573      4571      4574      4576
      4573      4571      4574      4577      4574      4577      4580      4581
      4574      4577      4580      4582      4574      4577      4580      4583
      4575      4574      4577      4578      4575      4574      4577      4579
      4575      4574      4577      4580      4576      4574      4577      4578
      4576      4574      4577      4579      4576      4574      4577      4580
      4577      4580      4583      4584      4577      4580      4583      4585
      4577      4580      4583      4586      4578      4577      4580      4581
      4578      4577      4580      4582      4578      4577      4580      4583
      4579      4577      4580      4581      4579      4577      4580      4582
      4579      4577      4580      4583      4580      4583      4586      4587
      4580      4583      4586      4588      4580      4583      4586      4589
      4581      4580      4583      4584      4581      4580      4583      4585
      4581      4580      4583      4586      4582      4580      4583      4584
      4582      4580      4583      4585      4582      4580      4583      4586
      4583      4586      4589      4590      4583      4586      4589      4591
      4583      4586      4589      4592      4584      4583      4586      4587
      4584      4583      4586      4588      4584      4583      4586      4589
      4585      4583      4586      4587      4585      4583      4586      4588
      4585      4583      4586      4589      4586      4589      4592      4593
      4586      4589      4592      4594      4586      4589      4592      4595
      4587      4586      4589      4590      4587      4586      4589      4591
      4587      4586      4589      4592      4588      4586      4589      4590
      4588      4586      4589      4591      4588      4586      4589      4592
      4589      4592      4595      4596      4589      4592      4595      4597
      4589      4592      4595      4598      4590      4589      4592      4593
      4590      4589      4592      4594      4590      4589      4592      4595
      4591      4589      4592      4593      4591      4589      4592      4594
      4591      4589      4592      4595      4592      4595      4598      4599
      4592      4595      4598      4600      4592      4595      4598      4601
      4593      4592      4595      4596      4593      4592      4595      4597
      4593      4592      4595      4598      4594      4592      4595      4596
      4594      4592      4595      4597      4594      4592      4595      4598
      4596      4595      4598      4599      4596      4595      4598      4600
      4596      4595      4598      4601      4597      4595      4598      4599
      4597      4595      4598      4600      4597      4595      4598      4601
     10482     10486     10489     10490     10482     10486     10489     10491
     10482     10486     10489     10495     10483     10482     10486     10487
     10483     10482     10486     10488     10483     10482     10486     10489
     10484     10482     10486     10487     10484     10482     10486     10488
     10484     10482     10486     10489     10485     10482     10486     10487
     10485     10482     10486     10488     10485     10482     10486     10489
     10486     10489     10495     10492     10487     10486     10489     10490
     10487     10486     10489     10491     10487     10486     10489     10495
     10488     10486     10489     10490     10488     10486     10489     10491
     10488     10486     10489     10495     10489     10495     10492     10493
     10489     10495     10492     10494     10489     10495     10492     10496
     10490     10489     10495     10492     10491     10489     10495     10492
     10492     10496     10497     10498     10492     10496     10497     10499
     10492     10496     10497     10500     10493     10492     10496     10497
     10494     10492     10496     10497     10495     10492     10496     10497
     10496     10497     10500     10501     10496     10497     10500     10502
     10496     10497     10500     10508     10497     10500     10502     10503
     10497     10500     10508     10509     10497     10500     10508     10510
     10497     10500     10508     10511     10498     10497     10500     10501
     10498     10497     10500     10502     10498     10497     10500     10508
     10499     10497     10500     10501     10499     10497     10500     10502
     10499     10497     10500     10508     10500     10502     10503     10504
     10500     10502     10503     10505     10500     10508     10511     10512
     10501     10500     10502     10503     10501     10500     10508     10509
     10501     10500     10508     10510     10501     10500     10508     10511
     10502     10500     10508     10509     10502     10500     10508     10510
     10502     10500     10508     10511     10502     10503     10505     10506
     10502     10503     10505     10507     10502     10503     10505     10517
     10503     10502     10500     10508     10503     10505     10517     10518
     10503     10505     10517     10519     10503     10505     10517     10520
     10504     10503     10505     10506     10504     10503     10505     10507
     10504     10503     10505     10517     10505     10517     10520     10521
     10505     10517     10520     10522     10505     10517     10520     10523
     10506     10505     10517     10518     10506     10505     10517     10519
     10506     10505     10517     10520     10507     10505     10517     10518
     10507     10505     10517     10519     10507     10505     10517     10520
     10508     10511     10512     10513     10508     10511     10512     10514
     10509     10508     10511     10512     10510     10508     10511     10512
     10511     10512     10514     10515     10511     10512     10514     10516
     10511     10512     10514     10564     10512     10514     10564     10565
     10512     10514     10564     10566     10512     10514     10564     10567
     10513     10512     10514     10515     10513     10512     10514     10516
     10513     10512     10514     10564     10514     10564     10567     10568
     10514     10564     10567     10569     10514     10564     10567     10570
     10515     10514     10564     10565     10515     10514     10564     10566
     10515     10514     10564     10567     10516     10514     10564     10565
     10516     10514     10564     10566     10516     10514     10564     10567
     10517     10520     10523     10524     10517     10520     10523     10525
     10517     10520     10523     10526     10518     10517     10520     10521
     10518     10517     10520     10522     10518     10517     10520     10523
     10519     10517     10520     10521     10519     10517     10520     10522
     10519     10517     10520     10523     10520     10523     10526     10527
     10520     10523     10526     10528     10520     10523     10526     10529
     10521     10520     10523     10524     10521     10520     10523     10525
     10521     10520     10523     10526     10522     10520     10523     10524
     10522     10520     10523     10525     10522     10520     10523     10526
     10523     10526     10529     10530     10523     10526     10529     10531
     10523     10526     10529     10532     10524     10523     10526     10527
     10524     10523     10526     10528     10524     10523     10526     10529
     10525     10523     10526     10527     10525     10523     10526     10528
     10525     10523     10526     10529     10526     10529     10532     10533
     10526     10529     10532     10534     10526     10529     10532     10535
     10527     10526     10529     10530     10527     10526     10529     10531
     10527     10526     10529     10532     10528     10526     10529     10530
     10528     10526     10529     10531     10528     10526     10529     10532
     10529     10532     10535     10536     10529     10532     10535     10537
     10530     10529     10532     10533     10530     10529     10532     10534
     10530     10529     10532     10535     10531     10529     10532     10533
     10531     10529     10532     10534     10531     10529     10532     10535
     10532     10535     10537     10538     10532     10535     10537     10539
     10533     10532     10535     10536     10533     10532     10535     10537
     10534     10532     10535     10536     10534     10532     10535     10537
     10535     10537     10539     10540     10535     10537     10539     10541
     10535     10537     10539     10542     10536     10535     10537     10538
     10536     10535     10537     10539     10537     10539     10542     10543
     10537     10539     10542     10544     10537     10539     10542     10545
     10538     10537     10539     10540     10538     10537     10539     10541
     10538     10537     10539     10542     10539     10542     10545     10546
     10539     10542     10545     10547     10539     10542     10545     10548
     10540     10539     10542     10543     10540     10539     10542     10544
     10540     10539     10542     10545     10541     10539     10542     10543
     10541     10539     10542     10544     10541     10539     10542     10545
     10542     10545     10548     10549     10542     10545     10548     10550
     10542     10545     10548     10551     10543     10542     10545     10546
     10543     10542     10545     10547     10543     10542     10545     10548
     10544     10542     10545     10546     10544     10542     10545     10547
     10544     10542     10545     10548     10545     10548     10551     10552
     10545     10548     10551     10553     10545     10548     10551     10554
     10546     10545     10548     10549     10546     10545     10548     10550
     10546     10545     10548     10551     10547     10545     10548     10549
     10547     10545     10548     10550     10547     10545     10548     10551
     10548     10551     10554     10555     10548     10551     10554     10556
     10548     10551     10554     10557     10549     10548     10551     10552
     10549     10548     10551     10553     10549     10548     10551     10554
     10550     10548     10551     10552     10550     10548     10551     10553
     10550     10548     10551     10554     10551     10554     10557     10558
     10551     10554     10557     10559     10551     10554     10557     10560
     10552     10551     10554     10555     10552     10551     10554     10556
     10552     10551     10554     10557     10553     10551     10554     10555
     10553     10551     10554     10556     10553     10551     10554     10557
     10554     10557     10560     10561     10554     10557     10560     10562
     10554     10557     10560     10563     10555     10554     10557     10558
     10555     10554     10557     10559     10555     10554     10557     10560
     10556     10554     10557     10558     10556     10554     10557     10559
     10556     10554     10557     10560     10558     10557     10560     10561
     10558     10557     10560     10562     10558     10557     10560     10563
     10559     10557     10560     10561     10559     10557     10560     10562
     10559     10557     10560     10563     10564     10567     10570     10571
     10564     10567     10570     10572     10564     10567     10570     10573
     10565     10564     10567     10568     10565     10564     10567     10569
     10565     10564     10567     10570     10566     10564     10567     10568
     10566     10564     10567     10569     10566     10564     10567     10570
     10567     10570     10573     10574     10567     10570     10573     10575
     10567     10570     10573     10576     10568     10567     10570     10571
     10568     10567     10570     10572     10568     10567     10570     10573
     10569     10567     10570     10571     10569     10567     10570     10572
     10569     10567     10570     10573     10570     10573     10576     10577
     10570     10573     10576     10578     10570     10573     10576     10579
     10571     10570     10573     10574     10571     10570     10573     10575
     10571     10570     10573     10576     10572     10570     10573     10574
     10572     10570     10573     10575     10572     10570     10573     10576
     10573     10576     10579     10580     10573     10576     10579     10581
     10573     10576     10579     10582     10574     10573     10576     10577
     10574     10573     10576     10578     10574     10573     10576     10579
     10575     10573     10576     10577     10575     10573     10576     10578
     10575     10573     10576     10579     10576     10579     10582     10583
     10576     10579     10582     10584     10576     10579     10582     10585
     10577     10576     10579     10580     10577     10576     10579     10581
     10577     10576     10579     10582     10578     10576     10579     10580
     10578     10576     10579     10581     10578     10576     10579     10582
     10579     10582     10585     10586     10579     10582     10585     10587
     10579     10582     10585     10588     10580     10579     10582     10583
     10580     10579     10582     10584     10580     10579     10582     10585
     10581     10579     10582     10583     10581     10579     10582     10584
     10581     10579     10582     10585     10582     10585     10588     10589
     10582     10585     10588     10590     10582     10585     10588     10591
     10583     10582     10585     10586     10583     10582     10585     10587
     10583     10582     10585     10588     10584     10582     10585     10586
     10584     10582     10585     10587     10584     10582     10585     10588
     10585     10588     10591     10592     10585     10588     10591     10593
     10585     10588     10591     10594     10586     10585     10588     10589
     10586     10585     10588     10590     10586     10585     10588     10591
     10587     10585     10588     10589     10587     10585     10588     10590
     10587     10585     10588     10591     10588     10591     10594     10595
     10588     10591     10594     10596     10588     10591     10594     10597
     10589     10588     10591     10592     10589     10588     10591     10593
     10589     10588     10591     10594     10590     10588     10591     10592
     10590     10588     10591     10593     10590     10588     10591     10594
     10591     10594     10597     10598     10591     10594     10597     10599
     10591     10594     10597     10600     10592     10591     10594     10595
     10592     10591     10594     10596     10592     10591     10594     10597
     10593     10591     10594     10595     10593     10591     10594     10596
     10593     10591     10594     10597     10594     10597     10600     10601
     10594     10597     10600     10602     10594     10597     10600     10603
     10595     10594     10597     10598     10595     10594     10597     10599
     10595     10594     10597     10600     10596     10594     10597     10598
     10596     10594     10597     10599     10596     10594     10597     10600
     10597     10600     10603     10604     10597     10600     10603     10605
     10597     10600     10603     10606     10598     10597     10600     10601
     10598     10597     10600     10602     10598     10597     10600     10603
     10599     10597     10600     10601     10599     10597     10600     10602
     10599     10597     10600     10603     10600     10603     10606     10607
     10600     10603     10606     10608     10600     10603     10606     10609
     10601     10600     10603     10604     10601     10600     10603     10605
     10601     10600     10603     10606     10602     10600     10603     10604
     10602     10600     10603     10605     10602     10600     10603     10606
     10603     10606     10609     10610     10603     10606     10609     10611
     10603     10606     10609     10612     10604     10603     10606     10607
     10604     10603     10606     10608     10604     10603     10606     10609
     10605     10603     10606     10607     10605     10603     10606     10608
     10605     10603     10606     10609     10607     10606     10609     10610
     10607     10606     10609     10611     10607     10606     10609     10612
     10608     10606     10609     10610     10608     10606     10609     10611
     10608     10606     10609     10612      4602      4606      4609      4610
      4602      4606      4609      4611      4602      4606      4609      4615
      4603      4602      4606      4607      4603      4602      4606      4608
      4603      4602      4606      4609      4604      4602      4606      4607
      4604      4602      4606      4608      4604      4602      4606      4609
      4605      4602      4606      4607      4605      4602      4606      4608
      4605      4602      4606      4609      4606      4609      4615      4612
      4607      4606      4609      4610      4607      4606      4609      4611
      4607      4606      4609      4615      4608      4606      4609      4610
      4608      4606      4609      4611      4608      4606      4609      4615
      4609      4615      4612      4613      4609      4615      4612      4614
      4609      4615      4612      4616      4610      4609      4615      4612
      4611      4609      4615      4612      4612      4616      4617      4618
      4612      4616      4617      4619      4612      4616      4617      4620
      4613      4612      4616      4617      4614      4612      4616      4617
      4615      4612      4616      4617      4616      4617      4620      4621
      4616      4617      4620      4622      4616      4617      4620      4628
      4617      4620      4622      4623      4617      4620      4628      4629
      4617      4620      4628      4630      4617      4620      4628      4631
      4618      4617      4620      4621      4618      4617      4620      4622
      4618      4617      4620      4628      4619      4617      4620      4621
      4619      4617      4620      4622      4619      4617      4620      4628
      4620      4622      4623      4624      4620      4622      4623      4625
      4620      4628      4631      4632      4621      4620      4622      4623
      4621      4620      4628      4629      4621      4620      4628      4630
      4621      4620      4628      4631      4622      4620      4628      4629
      4622      4620      4628      4630      4622      4620      4628      4631
      4622      4623      4625      4626      4622      4623      4625      4627
      4622      4623      4625      4637      4623      4622      4620      4628
      4623      4625      4637      4638      4623      4625      4637      4639
      4623      4625      4637      4640      4624      4623      4625      4626
      4624      4623      4625      4627      4624      4623      4625      4637
      4625      4637      4640      4641      4625      4637      4640      4642
      4625      4637      4640      4643      4626      4625      4637      4638
      4626      4625      4637      4639      4626      4625      4637      4640
      4627      4625      4637      4638      4627      4625      4637      4639
      4627      4625      4637      4640      4628      4631      4632      4633
      4628      4631      4632      4634      4629      4628      4631      4632
      4630      4628      4631      4632      4631      4632      4634      4635
      4631      4632      4634      4636      4631      4632      4634      4684
      4632      4634      4684      4685      4632      4634      4684      4686
      4632      4634      4684      4687      4633      4632      4634      4635
      4633      4632      4634      4636      4633      4632      4634      4684
      4634      4684      4687      4688      4634      4684      4687      4689
      4634      4684      4687      4690      4635      4634      4684      4685
      4635      4634      4684      4686      4635      4634      4684      4687
      4636      4634      4684      4685      4636      4634      4684      4686
      4636      4634      4684      4687      4637      4640      4643      4644
      4637      4640      4643      4645      4638      4637      4640      4641
      4638      4637      4640      4642      4638      4637      4640      4643
      4639      4637      4640      4641      4639      4637      4640      4642
      4639      4637      4640      4643      4640      4643      4645      4646
      4640      4643      4645      4647      4641      4640      4643      4644
      4641      4640      4643      4645      4642      4640      4643      4644
      4642      4640      4643      4645      4643      4645      4647      4648
      4643      4645      4647      4649      4643      4645      4647      4650
      4644      4643      4645      4646      4644      4643      4645      4647
      4645      4647      4650      4651      4645      4647      4650      4652
      4646      4645      4647      4648      4646      4645      4647      4649
      4646      4645      4647      4650      4647      4650      4652      4653
      4647      4650      4652      4654      4648      4647      4650      4651
      4648      4647      4650      4652      4649      4647      4650      4651
      4649      4647      4650      4652      4650      4652      4654      4655
      4650      4652      4654      4656      4650      4652      4654      4657
      4651      4650      4652      4653      4651      4650      4652      4654
      4652      4654      4657      4658      4652      4654      4657      4659
      4653      4652      4654      4655      4653      4652      4654      4656
      4653      4652      4654      4657      4654      4657      4659      4660
      4654      4657      4659      4661      4655      4654      4657      4658
      4655      4654      4657      4659      4656      4654      4657      4658
      4656      4654      4657      4659      4657      4659      4661      4662
      4657      4659      4661      4663      4657      4659      4661      4664
      4658      4657      4659      4660      4658      4657      4659      4661
      4659      4661      4664      4665      4659      4661      4664      4666
      4660      4659      4661      4662      4660      4659      4661      4663
      4660      4659      4661      4664      4661      4664      4666      4667
      4661      4664      4666      4668      4662      4661      4664      4665
      4662      4661      4664      4666      4663      4661      4664      4665
      4663      4661      4664      4666      4664      4666      4668      4669
      4664      4666      4668      4670      4664      4666      4668      4671
      4665      4664      4666      4667      4665      4664      4666      4668
      4666      4668      4671      4672      4666      4668      4671      4673
      4666      4668      4671      4674      4667      4666      4668      4669
      4667      4666      4668      4670      4667      4666      4668      4671
      4668      4671      4674      4675      4668      4671      4674      4676
      4668      4671      4674      4677      4669      4668      4671      4672
      4669      4668      4671      4673      4669      4668      4671      4674
      4670      4668      4671      4672      4670      4668      4671      4673
      4670      4668      4671      4674      4671      4674      4677      4678
      4671      4674      4677      4679      4671      4674      4677      4680
      4672      4671      4674      4675      4672      4671      4674      4676
      4672      4671      4674      4677      4673      4671      4674      4675
      4673      4671      4674      4676      4673      4671      4674      4677
      4674      4677      4680      4681      4674      4677      4680      4682
      4674      4677      4680      4683      4675      4674      4677      4678
      4675      4674      4677      4679      4675      4674      4677      4680
      4676      4674      4677      4678      4676      4674      4677      4679
      4676      4674      4677      4680      4678      4677      4680      4681
      4678      4677      4680      4682      4678      4677      4680      4683
      4679      4677      4680      4681      4679      4677      4680      4682
      4679      4677      4680      4683      4684      4687      4690      4691
      4684      4687      4690      4692      4684      4687      4690      4693
      4685      4684      4687      4688      4685      4684      4687      4689
      4685      4684      4687      4690      4686      4684      4687      4688
      4686      4684      4687      4689      4686      4684      4687      4690
      4687      4690      4693      4694      4687      4690      4693      4695
      4687      4690      4693      4696      4688      4687      4690      4691
      4688      4687      4690      4692      4688      4687      4690      4693
      4689      4687      4690      4691      4689      4687      4690      4692
      4689      4687      4690      4693      4690      4693      4696      4697
      4690      4693      4696      4698      4690      4693      4696      4699
      4691      4690      4693      4694      4691      4690      4693      4695
      4691      4690      4693      4696      4692      4690      4693      4694
      4692      4690      4693      4695      4692      4690      4693      4696
      4693      4696      4699      4700      4693      4696      4699      4701
      4693      4696      4699      4702      4694      4693      4696      4697
      4694      4693      4696      4698      4694      4693      4696      4699
      4695      4693      4696      4697      4695      4693      4696      4698
      4695      4693      4696      4699      4696      4699      4702      4703
      4696      4699      4702      4704      4696      4699      4702      4705
      4697      4696      4699      4700      4697      4696      4699      4701
      4697      4696      4699      4702      4698      4696      4699      4700
      4698      4696      4699      4701      4698      4696      4699      4702
      4699      4702      4705      4706      4699      4702      4705      4707
      4699      4702      4705      4708      4700      4699      4702      4703
      4700      4699      4702      4704      4700      4699      4702      4705
      4701      4699      4702      4703      4701      4699      4702      4704
      4701      4699      4702      4705      4702      4705      4708      4709
      4702      4705      4708      4710      4702      4705      4708      4711
      4703      4702      4705      4706      4703      4702      4705      4707
      4703      4702      4705      4708      4704      4702      4705      4706
      4704      4702      4705      4707      4704      4702      4705      4708
      4705      4708      4711      4712      4705      4708      4711      4713
      4705      4708      4711      4714      4706      4705      4708      4709
      4706      4705      4708      4710      4706      4705      4708      4711
      4707      4705      4708      4709      4707      4705      4708      4710
      4707      4705      4708      4711      4708      4711      4714      4715
      4708      4711      4714      4716      4708      4711      4714      4717
      4709      4708      4711      4712      4709      4708      4711      4713
      4709      4708      4711      4714      4710      4708      4711      4712
      4710      4708      4711      4713      4710      4708      4711      4714
      4711      4714      4717      4718      4711      4714      4717      4719
      4711      4714      4717      4720      4712      4711      4714      4715
      4712      4711      4714      4716      4712      4711      4714      4717
      4713      4711      4714      4715      4713      4711      4714      4716
      4713      4711      4714      4717      4714      4717      4720      4721
      4714      4717      4720      4722      4714      4717      4720      4723
      4715      4714      4717      4718      4715      4714      4717      4719
      4715      4714      4717      4720      4716      4714      4717      4718
      4716      4714      4717      4719      4716      4714      4717      4720
      4717      4720      4723      4724      4717      4720      4723      4725
      4717      4720      4723      4726      4718      4717      4720      4721
      4718      4717      4720      4722      4718      4717      4720      4723
      4719      4717      4720      4721      4719      4717      4720      4722
      4719      4717      4720      4723      4720      4723      4726      4727
      4720      4723      4726      4728      4720      4723      4726      4729
      4721      4720      4723      4724      4721      4720      4723      4725
      4721      4720      4723      4726      4722      4720      4723      4724
      4722      4720      4723      4725      4722      4720      4723      4726
      4723      4726      4729      4730      4723      4726      4729      4731
      4723      4726      4729      4732      4724      4723      4726      4727
      4724      4723      4726      4728      4724      4723      4726      4729
      4725      4723      4726      4727      4725      4723      4726      4728
      4725      4723      4726      4729      4727      4726      4729      4730
      4727      4726      4729      4731      4727      4726      4729      4732
      4728      4726      4729      4730      4728      4726      4729      4731
      4728      4726      4729      4732      9133      9134      9149      9150
      9133      9134      9149      9151      9133      9134      9149      9155
      9134      9133      9137      9138      9134      9133      9137      9139
      9134      9133      9137      9140      9134      9133      9141      9142
      9134      9133      9141      9143      9134      9133      9141      9144
      9134      9133      9145      9146      9134      9133      9145      9147
      9134      9133      9145      9148      9134      9149      9155      9152
      9135      9134      9133      9137      9135      9134      9133      9141
      9135      9134      9133      9145      9135      9134      9149      9150
      9135      9134      9149      9151      9135      9134      9149      9155
      9136      9134      9133      9137      9136      9134      9133      9141
      9136      9134      9133      9145      9136      9134      9149      9150
      9136      9134      9149      9151      9136      9134      9149      9155
      9137      9133      9134      9149      9137      9133      9141      9142
      9137      9133      9141      9143      9137      9133      9141      9144
      9137      9133      9145      9146      9137      9133      9145      9147
      9137      9133      9145      9148      9138      9137      9133      9141
      9138      9137      9133      9145      9139      9137      9133      9141
      9139      9137      9133      9145      9140      9137      9133      9141
      9140      9137      9133      9145      9141      9133      9134      9149
      9141      9133      9145      9146      9141      9133      9145      9147
      9141      9133      9145      9148      9142      9141      9133      9145
      9143      9141      9133      9145      9144      9141      9133      9145
      9145      9133      9134      9149      9149      9155      9152      9153
      9149      9155      9152      9154      9149      9155      9152      9156
      9150      9149      9155      9152      9151      9149      9155      9152
      9152      9156      9157      9158      9152      9156      9157      9159
      9152      9156      9157      9160      9153      9152      9156      9157
      9154      9152      9156      9157      9155      9152      9156      9157
      9156      9157      9160      9161      9156      9157      9160      9162
      9156      9157      9160      9168      9157      9160      9162      9163
      9157      9160      9168      9169      9157      9160      9168      9170
      9157      9160      9168      9171      9158      9157      9160      9161
      9158      9157      9160      9162      9158      9157      9160      9168
      9159      9157      9160      9161      9159      9157      9160      9162
      9159      9157      9160      9168      9160      9162      9163      9164
      9160      9162      9163      9165      9160      9168      9171      9172
      9161      9160      9162      9163      9161      9160      9168      9169
      9161      9160      9168      9170      9161      9160      9168      9171
      9162      9160      9168      9169      9162      9160      9168      9170
      9162      9160      9168      9171      9162      9163      9165      9166
      9162      9163      9165      9167      9162      9163      9165      9177
      9163      9162      9160      9168      9163      9165      9177      9178
      9163      9165      9177      9179      9163      9165      9177      9180
      9164      9163      9165      9166      9164      9163      9165      9167
      9164      9163      9165      9177      9165      9177      9180      9181
      9165      9177      9180      9182      9165      9177      9180      9183
      9166      9165      9177      9178      9166      9165      9177      9179
      9166      9165      9177      9180      9167      9165      9177      9178
      9167      9165      9177      9179      9167      9165      9177      9180
      9168      9171      9172      9173      9168      9171      9172      9174
      9169      9168      9171      9172      9170      9168      9171      9172
      9171      9172      9174      9175      9171      9172      9174      9176
      9171      9172      9174      9224      9172      9174      9224      9225
      9172      9174      9224      9226      9172      9174      9224      9227
      9173      9172      9174      9175      9173      9172      9174      9176
      9173      9172      9174      9224      9174      9224      9227      9228
      9174      9224      9227      9229      9174      9224      9227      9230
      9175      9174      9224      9225      9175      9174      9224      9226
      9175      9174      9224      9227      9176      9174      9224      9225
      9176      9174      9224      9226      9176      9174      9224      9227
      9177      9180      9183      9184      9177      9180      9183      9185
      9178      9177      9180      9181      9178      9177      9180      9182
      9178      9177      9180      9183      9179      9177      9180      9181
      9179      9177      9180      9182      9179      9177      9180      9183
      9180      9183      9185      9186      9180      9183      9185      9187
      9181      9180      9183      9184      9181      9180      9183      9185
      9182      9180      9183      9184      9182      9180      9183      9185
      9183      9185      9187      9188      9183      9185      9187      9189
      9183      9185      9187      9190      9184      9183      9185      9186
      9184      9183      9185      9187      9185      9187      9190      9191
      9185      9187      9190      9192      9186      9185      9187      9188
      9186      9185      9187      9189      9186      9185      9187      9190
      9187      9190      9192      9193      9187      9190      9192      9194
      9188      9187      9190      9191      9188      9187      9190      9192
      9189      9187      9190      9191      9189      9187      9190      9192
      9190      9192      9194      9195      9190      9192      9194      9196
      9190      9192      9194      9197      9191      9190      9192      9193
      9191      9190      9192      9194      9192      9194      9197      9198
      9192      9194      9197      9199      9193      9192      9194      9195
      9193      9192      9194      9196      9193      9192      9194      9197
      9194      9197      9199      9200      9194      9197      9199      9201
      9195      9194      9197      9198      9195      9194      9197      9199
      9196      9194      9197      9198      9196      9194      9197      9199
      9197      9199      9201      9202      9197      9199      9201      9203
      9197      9199      9201      9204      9198      9197      9199      9200
      9198      9197      9199      9201      9199      9201      9204      9205
      9199      9201      9204      9206      9200      9199      9201      9202
      9200      9199      9201      9203      9200      9199      9201      9204
      9201      9204      9206      9207      9201      9204      9206      9208
      9202      9201      9204      9205      9202      9201      9204      9206
      9203      9201      9204      9205      9203      9201      9204      9206
      9204      9206      9208      9209      9204      9206      9208      9210
      9204      9206      9208      9211      9205      9204      9206      9207
      9205      9204      9206      9208      9206      9208      9211      9212
      9206      9208      9211      9213      9206      9208      9211      9214
      9207      9206      9208      9209      9207      9206      9208      9210
      9207      9206      9208      9211      9208      9211      9214      9215
      9208      9211      9214      9216      9208      9211      9214      9217
      9209      9208      9211      9212      9209      9208      9211      9213
      9209      9208      9211      9214      9210      9208      9211      9212
      9210      9208      9211      9213      9210      9208      9211      9214
      9211      9214      9217      9218      9211      9214      9217      9219
      9211      9214      9217      9220      9212      9211      9214      9215
      9212      9211      9214      9216      9212      9211      9214      9217
      9213      9211      9214      9215      9213      9211      9214      9216
      9213      9211      9214      9217      9214      9217      9220      9221
      9214      9217      9220      9222      9214      9217      9220      9223
      9215      9214      9217      9218      9215      9214      9217      9219
      9215      9214      9217      9220      9216      9214      9217      9218
      9216      9214      9217      9219      9216      9214      9217      9220
      9218      9217      9220      9221      9218      9217      9220      9222
      9218      9217      9220      9223      9219      9217      9220      9221
      9219      9217      9220      9222      9219      9217      9220      9223
      9224      9227      9230      9231      9224      9227      9230      9232
      9224      9227      9230      9233      9225      9224      9227      9228
      9225      9224      9227      9229      9225      9224      9227      9230
      9226      9224      9227      9228      9226      9224      9227      9229
      9226      9224      9227      9230      9227      9230      9233      9234
      9227      9230      9233      9235      9227      9230      9233      9236
      9228      9227      9230      9231      9228      9227      9230      9232
      9228      9227      9230      9233      9229      9227      9230      9231
      9229      9227      9230      9232      9229      9227      9230      9233
      9230      9233      9236      9237      9230      9233      9236      9238
      9230      9233      9236      9239      9231      9230      9233      9234
      9231      9230      9233      9235      9231      9230      9233      9236
      9232      9230      9233      9234      9232      9230      9233      9235
      9232      9230      9233      9236      9233      9236      9239      9240
      9233      9236      9239      9241      9233      9236      9239      9242
      9234      9233      9236      9237      9234      9233      9236      9238
      9234      9233      9236      9239      9235      9233      9236      9237
      9235      9233      9236      9238      9235      9233      9236      9239
      9236      9239      9242      9243      9236      9239      9242      9244
      9236      9239      9242      9245      9237      9236      9239      9240
      9237      9236      9239      9241      9237      9236      9239      9242
      9238      9236      9239      9240      9238      9236      9239      9241
      9238      9236      9239      9242      9239      9242      9245      9246
      9239      9242      9245      9247      9239      9242      9245      9248
      9240      9239      9242      9243      9240      9239      9242      9244
      9240      9239      9242      9245      9241      9239      9242      9243
      9241      9239      9242      9244      9241      9239      9242      9245
      9242      9245      9248      9249      9242      9245      9248      9250
      9242      9245      9248      9251      9243      9242      9245      9246
      9243      9242      9245      9247      9243      9242      9245      9248
      9244      9242      9245      9246      9244      9242      9245      9247
      9244      9242      9245      9248      9245      9248      9251      9252
      9245      9248      9251      9253      9245      9248      9251      9254
      9246      9245      9248      9249      9246      9245      9248      9250
      9246      9245      9248      9251      9247      9245      9248      9249
      9247      9245      9248      9250      9247      9245      9248      9251
      9248      9251      9254      9255      9248      9251      9254      9256
      9248      9251      9254      9257      9249      9248      9251      9252
      9249      9248      9251      9253      9249      9248      9251      9254
      9250      9248      9251      9252      9250      9248      9251      9253
      9250      9248      9251      9254      9251      9254      9257      9258
      9251      9254      9257      9259      9251      9254      9257      9260
      9252      9251      9254      9255      9252      9251      9254      9256
      9252      9251      9254      9257      9253      9251      9254      9255
      9253      9251      9254      9256      9253      9251      9254      9257
      9254      9257      9260      9261      9254      9257      9260      9262
      9254      9257      9260      9263      9255      9254      9257      9258
      9255      9254      9257      9259      9255      9254      9257      9260
      9256      9254      9257      9258      9256      9254      9257      9259
      9256      9254      9257      9260      9257      9260      9263      9264
      9257      9260      9263      9265      9257      9260      9263      9266
      9258      9257      9260      9261      9258      9257      9260      9262
      9258      9257      9260      9263      9259      9257      9260      9261
      9259      9257      9260      9262      9259      9257      9260      9263
      9260      9263      9266      9267      9260      9263      9266      9268
      9260      9263      9266      9269      9261      9260      9263      9264
      9261      9260      9263      9265      9261      9260      9263      9266
      9262      9260      9263      9264      9262      9260      9263      9265
      9262      9260      9263      9266      9263      9266      9269      9270
      9263      9266      9269      9271      9263      9266      9269      9272
      9264      9263      9266      9267      9264      9263      9266      9268
      9264      9263      9266      9269      9265      9263      9266      9267
      9265      9263      9266      9268      9265      9263      9266      9269
      9267      9266      9269      9270      9267      9266      9269      9271
      9267      9266      9269      9272      9268      9266      9269      9270
      9268      9266      9269      9271      9268      9266      9269      9272
      1704      1717      1720      1721      1704      1717      1720      1722
      1704      1717      1720      1727      1705      1704      1709      1710
      1705      1704      1709      1711      1705      1704      1709      1712
      1705      1704      1713      1714      1705      1704      1713      1715
      1705      1704      1713      1716      1705      1704      1717      1718
      1705      1704      1717      1719      1705      1704      1717      1720
      1706      1705      1704      1709      1706      1705      1704      1713
      1706      1705      1704      1717      1707      1705      1704      1709
      1707      1705      1704      1713      1707      1705      1704      1717
      1708      1705      1704      1709      1708      1705      1704      1713
      1708      1705      1704      1717      1709      1704      1713      1714
      1709      1704      1713      1715      1709      1704      1713      1716
      1709      1704      1717      1718      1709      1704      1717      1719
      1709      1704      1717      1720      1710      1709      1704      1713
      1710      1709      1704      1717      1711      1709      1704      1713
      1711      1709      1704      1717      1712      1709      1704      1713
      1712      1709      1704      1717      1713      1704      1717      1718
      1713      1704      1717      1719      1713      1704      1717      1720
      1714      1713      1704      1717      1715      1713      1704      1717
      1716      1713      1704      1717      1717      1720      1727      1723
      1718      1717      1720      1721      1718      1717      1720      1722
      1718      1717      1720      1727      1719      1717      1720      1721
      1719      1717      1720      1722      1719      1717      1720      1727
      1720      1727      1723      1724      1720      1727      1723      1725
      1720      1727      1723      1726      1721      1720      1727      1723
      1722      1720      1727      1723      1723      1726      1728      1729
      1723      1726      1728      1730      1723      1726      1728      1733
      1724      1723      1726      1728      1725      1723      1726      1728
      1726      1728      1733      1731      1726      1728      1733      1734
      1726      1728      1733      1735      1727      1723      1726      1728
      1728      1733      1731      1732      1728      1733      1731      1783
      1728      1733      1735      1736      1728      1733      1735      1737
      1728      1733      1735      1739      1729      1728      1733      1731
      1729      1728      1733      1734      1729      1728      1733      1735
      1730      1728      1733      1731      1730      1728      1733      1734
      1730      1728      1733      1735      1731      1733      1735      1736
      1731      1733      1735      1737      1731      1733      1735      1739
      1731      1783      1785      1786      1731      1783      1785      1787
      1731      1783      1785      1788      1732      1731      1733      1734
      1732      1731      1733      1735      1732      1731      1783      1784
      1732      1731      1783      1785      1733      1731      1783      1784
      1733      1731      1783      1785      1733      1735      1737      1738
      1733      1735      1739      1740      1733      1735      1739      1741
      1734      1733      1731      1783      1734      1733      1735      1736
      1734      1733      1735      1737      1734      1733      1735      1739
      1735      1733      1731      1783      1735      1739      1741      1742
      1735      1739      1741      1743      1736      1735      1737      1738
      1736      1735      1739      1740      1736      1735      1739      1741
      1737      1735      1739      1740      1737      1735      1739      1741
      1738      1737      1735      1739      1739      1741      1743      1744
      1739      1741      1743      1745      1739      1741      1743      1746
      1740      1739      1741      1742      1740      1739      1741      1743
      1741      1743      1746      1747      1741      1743      1746      1748
      1741      1743      1746      1749      1742      1741      1743      1744
      1742      1741      1743      1745      1742      1741      1743      1746
      1743      1746      1749      1750      1743      1746      1749      1751
      1743      1746      1749      1752      1744      1743      1746      1747
      1744      1743      1746      1748      1744      1743      1746      1749
      1745      1743      1746      1747      1745      1743      1746      1748
      1745      1743      1746      1749      1746      1749      1752      1753
      1746      1749      1752      1754      1746      1749      1752      1755
      1747      1746      1749      1750      1747      1746      1749      1751
      1747      1746      1749      1752      1748      1746      1749      1750
      1748      1746      1749      1751      1748      1746      1749      1752
      1749      1752      1755      1756      1749      1752      1755      1757
      1749      1752      1755      1758      1750      1749      1752      1753
      1750      1749      1752      1754      1750      1749      1752      1755
      1751      1749      1752      1753      1751      1749      1752      1754
      1751      1749      1752      1755      1752      1755      1758      1759
      1752      1755      1758      1760      1752      1755      1758      1761
      1753      1752      1755      1756      1753      1752      1755      1757
      1753      1752      1755      1758      1754      1752      1755      1756
      1754      1752      1755      1757      1754      1752      1755      1758
      1755      1758      1761      1762      1755      1758      1761      1763
      1755      1758      1761      1764      1756      1755      1758      1759
      1756      1755      1758      1760      1756      1755      1758      1761
      1757      1755      1758      1759      1757      1755      1758      1760
      1757      1755      1758      1761      1758      1761      1764      1765
      1758      1761      1764      1766      1758      1761      1764      1767
      1759      1758      1761      1762      1759      1758      1761      1763
      1759      1758      1761      1764      1760      1758      1761      1762
      1760      1758      1761      1763      1760      1758      1761      1764
      1761      1764      1767      1768      1761      1764      1767      1769
      1761      1764      1767      1770      1762      1761      1764      1765
      1762      1761      1764      1766      1762      1761      1764      1767
      1763      1761      1764      1765      1763      1761      1764      1766
      1763      1761      1764      1767      1764      1767      1770      1771
      1764      1767      1770      1772      1764      1767      1770      1773
      1765      1764      1767      1768      1765      1764      1767      1769
      1765      1764      1767      1770      1766      1764      1767      1768
      1766      1764      1767      1769      1766      1764      1767      1770
      1767      1770      1773      1774      1767      1770      1773      1775
      1767      1770      1773      1776      1768      1767      1770      1771
      1768      1767      1770      1772      1768      1767      1770      1773
      1769      1767      1770      1771      1769      1767      1770      1772
      1769      1767      1770      1773      1770      1773      1776      1777
      1770      1773      1776      1778      1770      1773      1776      1779
      1771      1770      1773      1774      1771      1770      1773      1775
      1771      1770      1773      1776      1772      1770      1773      1774
      1772      1770      1773      1775      1772      1770      1773      1776
      1773      1776      1779      1780      1773      1776      1779      1781
      1773      1776      1779      1782      1774      1773      1776      1777
      1774      1773      1776      1778      1774      1773      1776      1779
      1775      1773      1776      1777      1775      1773      1776      1778
      1775      1773      1776      1779      1777      1776      1779      1780
      1777      1776      1779      1781      1777      1776      1779      1782
      1778      1776      1779      1780      1778      1776      1779      1781
      1778      1776      1779      1782      1783      1785      1788      1789
      1783      1785      1788      1790      1783      1785      1788      1791
      1784      1783      1785      1786      1784      1783      1785      1787
      1784      1783      1785      1788      1785      1788      1791      1792
      1785      1788      1791      1793      1785      1788      1791      1794
      1786      1785      1788      1789      1786      1785      1788      1790
      1786      1785      1788      1791      1787      1785      1788      1789
      1787      1785      1788      1790      1787      1785      1788      1791
      1788      1791      1794      1795      1788      1791      1794      1796
      1788      1791      1794      1797      1789      1788      1791      1792
      1789      1788      1791      1793      1789      1788      1791      1794
      1790      1788      1791      1792      1790      1788      1791      1793
      1790      1788      1791      1794      1791      1794      1797      1798
      1791      1794      1797      1799      1791      1794      1797      1800
      1792      1791      1794      1795      1792      1791      1794      1796
      1792      1791      1794      1797      1793      1791      1794      1795
      1793      1791      1794      1796      1793      1791      1794      1797
      1794      1797      1800      1801      1794      1797      1800      1802
      1794      1797      1800      1803      1795      1794      1797      1798
      1795      1794      1797      1799      1795      1794      1797      1800
      1796      1794      1797      1798      1796      1794      1797      1799
      1796      1794      1797      1800      1797      1800      1803      1804
      1797      1800      1803      1805      1797      1800      1803      1806
      1798      1797      1800      1801      1798      1797      1800      1802
      1798      1797      1800      1803      1799      1797      1800      1801
      1799      1797      1800      1802      1799      1797      1800      1803
      1800      1803      1806      1807      1800      1803      1806      1808
      1801      1800      1803      1804      1801      1800      1803      1805
      1801      1800      1803      1806      1802      1800      1803      1804
      1802      1800      1803      1805      1802      1800      1803      1806
      1803      1806      1808      1809      1803      1806      1808      1810
      1804      1803      1806      1807      1804      1803      1806      1808
      1805      1803      1806      1807      1805      1803      1806      1808
      1806      1808      1810      1811      1806      1808      1810      1812
      1806      1808      1810      1813      1807      1806      1808      1809
      1807      1806      1808      1810      1808      1810      1813      1814
      1808      1810      1813      1815      1808      1810      1813      1816
      1809      1808      1810      1811      1809      1808      1810      1812
      1809      1808      1810      1813      1810      1813      1816      1817
      1810      1813      1816      1818      1810      1813      1816      1819
      1811      1810      1813      1814      1811      1810      1813      1815
      1811      1810      1813      1816      1812      1810      1813      1814
      1812      1810      1813      1815      1812      1810      1813      1816
      1813      1816      1819      1820      1813      1816      1819      1821
      1813      1816      1819      1822      1814      1813      1816      1817
      1814      1813      1816      1818      1814      1813      1816      1819
      1815      1813      1816      1817      1815      1813      1816      1818
      1815      1813      1816      1819      1816      1819      1822      1823
      1816      1819      1822      1824      1816      1819      1822      1825
      1817      1816      1819      1820      1817      1816      1819      1821
      1817      1816      1819      1822      1818      1816      1819      1820
      1818      1816      1819      1821      1818      1816      1819      1822
      1819      1822      1825      1826      1819      1822      1825      1827
      1819      1822      1825      1828      1820      1819      1822      1823
      1820      1819      1822      1824      1820      1819      1822      1825
      1821      1819      1822      1823      1821      1819      1822      1824
      1821      1819      1822      1825      1822      1825      1828      1829
      1822      1825      1828      1830      1822      1825      1828      1831
      1823      1822      1825      1826      1823      1822      1825      1827
      1823      1822      1825      1828      1824      1822      1825      1826
      1824      1822      1825      1827      1824      1822      1825      1828
      1825      1828      1831      1832      1825      1828      1831      1833
      1825      1828      1831      1834      1826      1825      1828      1829
      1826      1825      1828      1830      1826      1825      1828      1831
      1827      1825      1828      1829      1827      1825      1828      1830
      1827      1825      1828      1831      1829      1828      1831      1832
      1829      1828      1831      1833      1829      1828      1831      1834
      1830      1828      1831      1832      1830      1828      1831      1833
      1830      1828      1831      1834      6515      6519      6522      6523
      6515      6519      6522      6553      6515      6561      6558      6553
      6515      6561      6558      6559      6515      6561      6558      6560
      6516      6515      6517      6518      6516      6515      6519      6520
      6516      6515      6519      6521      6516      6515      6519      6522
      6516      6515      6561      6558      6516      6515      6561      6562
      6516      6515      6561      6563      6517      6515      6519      6520
      6517      6515      6519      6521      6517      6515      6519      6522
      6517      6515      6561      6558      6517      6515      6561      6562
      6517      6515      6561      6563      6518      6517      6515      6519
      6518      6517      6515      6561      6519      6515      6561      6558
      6519      6515      6561      6562      6519      6515      6561      6563
      6519      6522      6523      6524      6519      6522      6523      6525
      6519      6522      6553      6551      6519      6522      6553      6554
      6519      6522      6553      6558      6520      6519      6515      6561
      6520      6519      6522      6523      6520      6519      6522      6553
      6521      6519      6515      6561      6521      6519      6522      6523
      6521      6519      6522      6553      6522      6519      6515      6561
      6522      6523      6525      6526      6522      6523      6525      6527
      6522      6523      6525      6528      6522      6553      6551      6528
      6522      6553      6551      6548      6522      6553      6551      6552
      6522      6553      6554      6555      6522      6553      6554      6556
      6522      6553      6554      6557      6522      6553      6558      6559
      6522      6553      6558      6560      6522      6553      6558      6561
      6523      6522      6553      6551      6523      6522      6553      6554
      6523      6522      6553      6558      6523      6525      6528      6529
      6523      6525      6528      6530      6523      6525      6528      6551
      6524      6523      6522      6553      6524      6523      6525      6526
      6524      6523      6525      6527      6524      6523      6525      6528
      6525      6523      6522      6553      6525      6528      6530      6531
      6525      6528      6530      6532      6525      6528      6530      6540
      6525      6528      6551      6548      6525      6528      6551      6552
      6525      6528      6551      6553      6526      6525      6528      6529
      6526      6525      6528      6530      6526      6525      6528      6551
      6527      6525      6528      6529      6527      6525      6528      6530
      6527      6525      6528      6551      6528      6530      6532      6533
      6528      6530      6532      6534      6528      6530      6532      6535
      6528      6530      6540      6538      6528      6530      6540      6541
      6528      6530      6540      6545      6528      6551      6548      6545
      6528      6551      6548      6549      6528      6551      6548      6550
      6528      6551      6553      6554      6528      6551      6553      6558
      6529      6528      6530      6531      6529      6528      6530      6532
      6529      6528      6530      6540      6529      6528      6551      6548
      6529      6528      6551      6552      6529      6528      6551      6553
      6530      6528      6551      6548      6530      6528      6551      6552
      6530      6528      6551      6553      6530      6532      6535      6536
      6530      6532      6535      6537      6530      6532      6535      6538
      6530      6540      6538      6535      6530      6540      6538      6539
      6530      6540      6538      6564      6530      6540      6541      6542
      6530      6540      6541      6543      6530      6540      6541      6544
      6530      6540      6545      6546      6530      6540      6545      6547
      6530      6540      6545      6548      6531      6530      6528      6551
      6531      6530      6532      6533      6531      6530      6532      6534
      6531      6530      6532      6535      6531      6530      6540      6538
      6531      6530      6540      6541      6531      6530      6540      6545
      6532      6530      6528      6551      6532      6530      6540      6538
      6532      6530      6540      6541      6532      6530      6540      6545
      6532      6535      6538      6539      6532      6535      6538      6540
      6532      6535      6538      6564      6533      6532      6530      6540
      6533      6532      6535      6536      6533      6532      6535      6537
      6533      6532      6535      6538      6534      6532      6530      6540
      6534      6532      6535      6536      6534      6532      6535      6537
      6534      6532      6535      6538      6535      6532      6530      6540
      6535      6538      6540      6541      6535      6538      6540      6545
      6535      6538      6564      6565      6535      6538      6564      6566
      6535      6538      6564      6570      6536      6535      6538      6539
      6536      6535      6538      6540      6536      6535      6538      6564
      6537      6535      6538      6539      6537      6535      6538      6540
      6537      6535      6538      6564      6538      6540      6541      6542
      6538      6540      6541      6543      6538      6540      6541      6544
      6538      6540      6545      6546      6538      6540      6545      6547
      6538      6540      6545      6548      6538      6564      6566      6567
      6538      6564      6566      6568      6538      6564      6566      6569
      6538      6564      6570      6571      6538      6564      6570      6572
      6538      6564      6570      6573      6539      6538      6540      6541
      6539      6538      6540      6545      6539      6538      6564      6565
      6539      6538      6564      6566      6539      6538      6564      6570
      6540      6530      6528      6551      6540      6538      6564      6565
      6540      6538      6564      6566      6540      6538      6564      6570
      6540      6545      6548      6549      6540      6545      6548      6550
      6540      6545      6548      6551      6541      6540      6538      6564
      6541      6540      6545      6546      6541      6540      6545      6547
      6541      6540      6545      6548      6542      6541      6540      6545
      6543      6541      6540      6545      6544      6541      6540      6545
      6545      6540      6538      6564      6545      6548      6551      6552
      6545      6548      6551      6553      6546      6545      6548      6549
      6546      6545      6548      6550      6546      6545      6548      6551
      6547      6545      6548      6549      6547      6545      6548      6550
      6547      6545      6548      6551      6548      6551      6553      6554
      6548      6551      6553      6558      6549      6548      6551      6552
      6549      6548      6551      6553      6550      6548      6551      6552
      6550      6548      6551      6553      6551      6553      6554      6555
      6551      6553      6554      6556      6551      6553      6554      6557
      6551      6553      6558      6559      6551      6553      6558      6560
      6551      6553      6558      6561      6552      6551      6553      6554
      6552      6551      6553      6558      6553      6558      6561      6562
      6553      6558      6561      6563      6554      6553      6558      6559
      6554      6553      6558      6560      6554      6553      6558      6561
      6555      6554      6553      6558      6556      6554      6553      6558
      6557      6554      6553      6558      6559      6558      6561      6562
      6559      6558      6561      6563      6560      6558      6561      6562
      6560      6558      6561      6563      6564      6570      6573      6574
      6564      6570      6573      6575      6564      6570      6573      6576
      6565      6564      6566      6567      6565      6564      6566      6568
      6565      6564      6566      6569      6565      6564      6570      6571
      6565      6564      6570      6572      6565      6564      6570      6573
      6566      6564      6570      6571      6566      6564      6570      6572
      6566      6564      6570      6573      6567      6566      6564      6570
      6568      6566      6564      6570      6569      6566      6564      6570
      6570      6573      6576      6577      6570      6573      6576      6578
      6570      6573      6576      6579      6571      6570      6573      6574
      6571      6570      6573      6575      6571      6570      6573      6576
      6572      6570      6573      6574      6572      6570      6573      6575
      6572      6570      6573      6576      6573      6576      6579      6580
      6573      6576      6579      6581      6573      6576      6579      6585
      6574      6573      6576      6577      6574      6573      6576      6578
      6574      6573      6576      6579      6575      6573      6576      6577
      6575      6573      6576      6578      6575      6573      6576      6579
      6576      6579      6581      6582      6576      6579      6581      6583
      6576      6579      6581      6584      6576      6579      6585      6586
      6576      6579      6585      6587      6576      6579      6585      6588
      6577      6576      6579      6580      6577      6576      6579      6581
      6577      6576      6579      6585      6578      6576      6579      6580
      6578      6576      6579      6581      6578      6576      6579      6585
      6580      6579      6581      6582      6580      6579      6581      6583
      6580      6579      6581      6584      6580      6579      6585      6586
      6580      6579      6585      6587      6580      6579      6585      6588
      6581      6579      6585      6586      6581      6579      6585      6587
      6581      6579      6585      6588      6582      6581      6579      6585
      6583      6581      6579      6585      6584      6581      6579      6585
      6589      6593      6596      6597      6589      6593      6596      6627
      6589      6635      6632      6627      6589      6635      6632      6633
      6589      6635      6632      6634      6590      6589      6591      6592
      6590      6589      6593      6594      6590      6589      6593      6595
      6590      6589      6593      6596      6590      6589      6635      6632
      6590      6589      6635      6636      6590      6589      6635      6637
      6591      6589      6593      6594      6591      6589      6593      6595
      6591      6589      6593      6596      6591      6589      6635      6632
      6591      6589      6635      6636      6591      6589      6635      6637
      6592      6591      6589      6593      6592      6591      6589      6635
      6593      6589      6635      6632      6593      6589      6635      6636
      6593      6589      6635      6637      6593      6596      6597      6598
      6593      6596      6597      6599      6593      6596      6627      6625
      6593      6596      6627      6628      6593      6596      6627      6632
      6594      6593      6589      6635      6594      6593      6596      6597
      6594      6593      6596      6627      6595      6593      6589      6635
      6595      6593      6596      6597      6595      6593      6596      6627
      6596      6593      6589      6635      6596      6597      6599      6600
      6596      6597      6599      6601      6596      6597      6599      6602
      6596      6627      6625      6602      6596      6627      6625      6622
      6596      6627      6625      6626      6596      6627      6628      6629
      6596      6627      6628      6630      6596      6627      6628      6631
      6596      6627      6632      6633      6596      6627      6632      6634
      6596      6627      6632      6635      6597      6596      6627      6625
      6597      6596      6627      6628      6597      6596      6627      6632
      6597      6599      6602      6603      6597      6599      6602      6604
      6597      6599      6602      6625      6598      6597      6596      6627
      6598      6597      6599      6600      6598      6597      6599      6601
      6598      6597      6599      6602      6599      6597      6596      6627
      6599      6602      6604      6605      6599      6602      6604      6606
      6599      6602      6604      6614      6599      6602      6625      6622
      6599      6602      6625      6626      6599      6602      6625      6627
      6600      6599      6602      6603      6600      6599      6602      6604
      6600      6599      6602      6625      6601      6599      6602      6603
      6601      6599      6602      6604      6601      6599      6602      6625
      6602      6604      6606      6607      6602      6604      6606      6608
      6602      6604      6606      6609      6602      6604      6614      6612
      6602      6604      6614      6615      6602      6604      6614      6619
      6602      6625      6622      6619      6602      6625      6622      6623
      6602      6625      6622      6624      6602      6625      6627      6628
      6602      6625      6627      6632      6603      6602      6604      6605
      6603      6602      6604      6606      6603      6602      6604      6614
      6603      6602      6625      6622      6603      6602      6625      6626
      6603      6602      6625      6627      6604      6602      6625      6622
      6604      6602      6625      6626      6604      6602      6625      6627
      6604      6606      6609      6610      6604      6606      6609      6611
      6604      6606      6609      6612      6604      6614      6612      6609
      6604      6614      6612      6613      6604      6614      6612      6638
      6604      6614      6615      6616      6604      6614      6615      6617
      6604      6614      6615      6618      6604      6614      6619      6620
      6604      6614      6619      6621      6604      6614      6619      6622
      6605      6604      6602      6625      6605      6604      6606      6607
      6605      6604      6606      6608      6605      6604      6606      6609
      6605      6604      6614      6612      6605      6604      6614      6615
      6605      6604      6614      6619      6606      6604      6602      6625
      6606      6604      6614      6612      6606      6604      6614      6615
      6606      6604      6614      6619      6606      6609      6612      6613
      6606      6609      6612      6614      6606      6609      6612      6638
      6607      6606      6604      6614      6607      6606      6609      6610
      6607      6606      6609      6611      6607      6606      6609      6612
      6608      6606      6604      6614      6608      6606      6609      6610
      6608      6606      6609      6611      6608      6606      6609      6612
      6609      6606      6604      6614      6609      6612      6614      6615
      6609      6612      6614      6619      6609      6612      6638      6639
      6609      6612      6638      6640      6609      6612      6638      6644
      6610      6609      6612      6613      6610      6609      6612      6614
      6610      6609      6612      6638      6611      6609      6612      6613
      6611      6609      6612      6614      6611      6609      6612      6638
      6612      6614      6615      6616      6612      6614      6615      6617
      6612      6614      6615      6618      6612      6614      6619      6620
      6612      6614      6619      6621      6612      6614      6619      6622
      6612      6638      6640      6641      6612      6638      6640      6642
      6612      6638      6640      6643      6612      6638      6644      6645
      6612      6638      6644      6646      6612      6638      6644      6647
      6613      6612      6614      6615      6613      6612      6614      6619
      6613      6612      6638      6639      6613      6612      6638      6640
      6613      6612      6638      6644      6614      6604      6602      6625
      6614      6612      6638      6639      6614      6612      6638      6640
      6614      6612      6638      6644      6614      6619      6622      6623
      6614      6619      6622      6624      6614      6619      6622      6625
      6615      6614      6612      6638      6615      6614      6619      6620
      6615      6614      6619      6621      6615      6614      6619      6622
      6616      6615      6614      6619      6617      6615      6614      6619
      6618      6615      6614      6619      6619      6614      6612      6638
      6619      6622      6625      6626      6619      6622      6625      6627
      6620      6619      6622      6623      6620      6619      6622      6624
      6620      6619      6622      6625      6621      6619      6622      6623
      6621      6619      6622      6624      6621      6619      6622      6625
      6622      6625      6627      6628      6622      6625      6627      6632
      6623      6622      6625      6626      6623      6622      6625      6627
      6624      6622      6625      6626      6624      6622      6625      6627
      6625      6627      6628      6629      6625      6627      6628      6630
      6625      6627      6628      6631      6625      6627      6632      6633
      6625      6627      6632      6634      6625      6627      6632      6635
      6626      6625      6627      6628      6626      6625      6627      6632
      6627      6632      6635      6636      6627      6632      6635      6637
      6628      6627      6632      6633      6628      6627      6632      6634
      6628      6627      6632      6635      6629      6628      6627      6632
      6630      6628      6627      6632      6631      6628      6627      6632
      6633      6632      6635      6636      6633      6632      6635      6637
      6634      6632      6635      6636      6634      6632      6635      6637
      6638      6644      6647      6648      6638      6644      6647      6649
      6638      6644      6647      6650      6639      6638      6640      6641
      6639      6638      6640      6642      6639      6638      6640      6643
      6639      6638      6644      6645      6639      6638      6644      6646
      6639      6638      6644      6647      6640      6638      6644      6645
      6640      6638      6644      6646      6640      6638      6644      6647
      6641      6640      6638      6644      6642      6640      6638      6644
      6643      6640      6638      6644      6644      6647      6650      6651
      6644      6647      6650      6652      6644      6647      6650      6653
      6645      6644      6647      6648      6645      6644      6647      6649
      6645      6644      6647      6650      6646      6644      6647      6648
      6646      6644      6647      6649      6646      6644      6647      6650
      6647      6650      6653      6654      6647      6650      6653      6655
      6647      6650      6653      6659      6648      6647      6650      6651
      6648      6647      6650      6652      6648      6647      6650      6653
      6649      6647      6650      6651      6649      6647      6650      6652
      6649      6647      6650      6653      6650      6653      6655      6656
      6650      6653      6655      6657      6650      6653      6655      6658
      6650      6653      6659      6660      6650      6653      6659      6661
      6650      6653      6659      6662      6651      6650      6653      6654
      6651      6650      6653      6655      6651      6650      6653      6659
      6652      6650      6653      6654      6652      6650      6653      6655
      6652      6650      6653      6659      6654      6653      6655      6656
      6654      6653      6655      6657      6654      6653      6655      6658
      6654      6653      6659      6660      6654      6653      6659      6661
      6654      6653      6659      6662      6655      6653      6659      6660
      6655      6653      6659      6661      6655      6653      6659      6662
      6656      6655      6653      6659      6657      6655      6653      6659
      6658      6655      6653      6659      6663      6667      6670      6671
      6663      6667      6670      6701      6663      6709      6706      6701
      6663      6709      6706      6707      6663      6709      6706      6708
      6664      6663      6665      6666      6664      6663      6667      6668
      6664      6663      6667      6669      6664      6663      6667      6670
      6664      6663      6709      6706      6664      6663      6709      6710
      6664      6663      6709      6711      6665      6663      6667      6668
      6665      6663      6667      6669      6665      6663      6667      6670
      6665      6663      6709      6706      6665      6663      6709      6710
      6665      6663      6709      6711      6666      6665      6663      6667
      6666      6665      6663      6709      6667      6663      6709      6706
      6667      6663      6709      6710      6667      6663      6709      6711
      6667      6670      6671      6672      6667      6670      6671      6673
      6667      6670      6701      6699      6667      6670      6701      6702
      6667      6670      6701      6706      6668      6667      6663      6709
      6668      6667      6670      6671      6668      6667      6670      6701
      6669      6667      6663      6709      6669      6667      6670      6671
      6669      6667      6670      6701      6670      6667      6663      6709
      6670      6671      6673      6674      6670      6671      6673      6675
      6670      6671      6673      6676      6670      6701      6699      6676
      6670      6701      6699      6696      6670      6701      6699      6700
      6670      6701      6702      6703      6670      6701      6702      6704
      6670      6701      6702      6705      6670      6701      6706      6707
      6670      6701      6706      6708      6670      6701      6706      6709
      6671      6670      6701      6699      6671      6670      6701      6702
      6671      6670      6701      6706      6671      6673      6676      6677
      6671      6673      6676      6678      6671      6673      6676      6699
      6672      6671      6670      6701      6672      6671      6673      6674
      6672      6671      6673      6675      6672      6671      6673      6676
      6673      6671      6670      6701      6673      6676      6678      6679
      6673      6676      6678      6680      6673      6676      6678      6688
      6673      6676      6699      6696      6673      6676      6699      6700
      6673      6676      6699      6701      6674      6673      6676      6677
      6674      6673      6676      6678      6674      6673      6676      6699
      6675      6673      6676      6677      6675      6673      6676      6678
      6675      6673      6676      6699      6676      6678      6680      6681
      6676      6678      6680      6682      6676      6678      6680      6683
      6676      6678      6688      6686      6676      6678      6688      6689
      6676      6678      6688      6693      6676      6699      6696      6693
      6676      6699      6696      6697      6676      6699      6696      6698
      6676      6699      6701      6702      6676      6699      6701      6706
      6677      6676      6678      6679      6677      6676      6678      6680
      6677      6676      6678      6688      6677      6676      6699      6696
      6677      6676      6699      6700      6677      6676      6699      6701
      6678      6676      6699      6696      6678      6676      6699      6700
      6678      6676      6699      6701      6678      6680      6683      6684
      6678      6680      6683      6685      6678      6680      6683      6686
      6678      6688      6686      6683      6678      6688      6686      6687
      6678      6688      6686      6712      6678      6688      6689      6690
      6678      6688      6689      6691      6678      6688      6689      6692
      6678      6688      6693      6694      6678      6688      6693      6695
      6678      6688      6693      6696      6679      6678      6676      6699
      6679      6678      6680      6681      6679      6678      6680      6682
      6679      6678      6680      6683      6679      6678      6688      6686
      6679      6678      6688      6689      6679      6678      6688      6693
      6680      6678      6676      6699      6680      6678      6688      6686
      6680      6678      6688      6689      6680      6678      6688      6693
      6680      6683      6686      6687      6680      6683      6686      6688
      6680      6683      6686      6712      6681      6680      6678      6688
      6681      6680      6683      6684      6681      6680      6683      6685
      6681      6680      6683      6686      6682      6680      6678      6688
      6682      6680      6683      6684      6682      6680      6683      6685
      6682      6680      6683      6686      6683      6680      6678      6688
      6683      6686      6688      6689      6683      6686      6688      6693
      6683      6686      6712      6713      6683      6686      6712      6714
      6683      6686      6712      6718      6684      6683      6686      6687
      6684      6683      6686      6688      6684      6683      6686      6712
      6685      6683      6686      6687      6685      6683      6686      6688
      6685      6683      6686      6712      6686      6688      6689      6690
      6686      6688      6689      6691      6686      6688      6689      6692
      6686      6688      6693      6694      6686      6688      6693      6695
      6686      6688      6693      6696      6686      6712      6714      6715
      6686      6712      6714      6716      6686      6712      6714      6717
      6686      6712      6718      6719      6686      6712      6718      6720
      6686      6712      6718      6721      6687      6686      6688      6689
      6687      6686      6688      6693      6687      6686      6712      6713
      6687      6686      6712      6714      6687      6686      6712      6718
      6688      6678      6676      6699      6688      6686      6712      6713
      6688      6686      6712      6714      6688      6686      6712      6718
      6688      6693      6696      6697      6688      6693      6696      6698
      6688      6693      6696      6699      6689      6688      6686      6712
      6689      6688      6693      6694      6689      6688      6693      6695
      6689      6688      6693      6696      6690      6689      6688      6693
      6691      6689      6688      6693      6692      6689      6688      6693
      6693      6688      6686      6712      6693      6696      6699      6700
      6693      6696      6699      6701      6694      6693      6696      6697
      6694      6693      6696      6698      6694      6693      6696      6699
      6695      6693      6696      6697      6695      6693      6696      6698
      6695      6693      6696      6699      6696      6699      6701      6702
      6696      6699      6701      6706      6697      6696      6699      6700
      6697      6696      6699      6701      6698      6696      6699      6700
      6698      6696      6699      6701      6699      6701      6702      6703
      6699      6701      6702      6704      6699      6701      6702      6705
      6699      6701      6706      6707      6699      6701      6706      6708
      6699      6701      6706      6709      6700      6699      6701      6702
      6700      6699      6701      6706      6701      6706      6709      6710
      6701      6706      6709      6711      6702      6701      6706      6707
      6702      6701      6706      6708      6702      6701      6706      6709
      6703      6702      6701      6706      6704      6702      6701      6706
      6705      6702      6701      6706      6707      6706      6709      6710
      6707      6706      6709      6711      6708      6706      6709      6710
      6708      6706      6709      6711      6712      6718      6721      6722
      6712      6718      6721      6723      6712      6718      6721      6724
      6713      6712      6714      6715      6713      6712      6714      6716
      6713      6712      6714      6717      6713      6712      6718      6719
      6713      6712      6718      6720      6713      6712      6718      6721
      6714      6712      6718      6719      6714      6712      6718      6720
      6714      6712      6718      6721      6715      6714      6712      6718
      6716      6714      6712      6718      6717      6714      6712      6718
      6718      6721      6724      6725      6718      6721      6724      6726
      6718      6721      6724      6727      6719      6718      6721      6722
      6719      6718      6721      6723      6719      6718      6721      6724
      6720      6718      6721      6722      6720      6718      6721      6723
      6720      6718      6721      6724      6721      6724      6727      6728
      6721      6724      6727      6729      6721      6724      6727      6733
      6722      6721      6724      6725      6722      6721      6724      6726
      6722      6721      6724      6727      6723      6721      6724      6725
      6723      6721      6724      6726      6723      6721      6724      6727
      6724      6727      6729      6730      6724      6727      6729      6731
      6724      6727      6729      6732      6724      6727      6733      6734
      6724      6727      6733      6735      6724      6727      6733      6736
      6725      6724      6727      6728      6725      6724      6727      6729
      6725      6724      6727      6733      6726      6724      6727      6728
      6726      6724      6727      6729      6726      6724      6727      6733
      6728      6727      6729      6730      6728      6727      6729      6731
      6728      6727      6729      6732      6728      6727      6733      6734
      6728      6727      6733      6735      6728      6727      6733      6736
      6729      6727      6733      6734      6729      6727      6733      6735
      6729      6727      6733      6736      6730      6729      6727      6733
      6731      6729      6727      6733      6732      6729      6727      6733
      4733      4737      4740      4741      4733      4737      4740      4742
      4733      4737      4740      4746      4734      4733      4737      4738
      4734      4733      4737      4739      4734      4733      4737      4740
      4735      4733      4737      4738      4735      4733      4737      4739
      4735      4733      4737      4740      4736      4733      4737      4738
      4736      4733      4737      4739      4736      4733      4737      4740
      4737      4740      4746      4743      4738      4737      4740      4741
      4738      4737      4740      4742      4738      4737      4740      4746
      4739      4737      4740      4741      4739      4737      4740      4742
      4739      4737      4740      4746      4740      4746      4743      4744
      4740      4746      4743      4745      4740      4746      4743      4747
      4741      4740      4746      4743      4742      4740      4746      4743
      4743      4747      4748      4749      4743      4747      4748      4750
      4743      4747      4748      4751      4744      4743      4747      4748
      4745      4743      4747      4748      4746      4743      4747      4748
      4747      4748      4751      4752      4747      4748      4751      4753
      4747      4748      4751      4759      4748      4751      4753      4754
      4748      4751      4759      4760      4748      4751      4759      4761
      4748      4751      4759      4762      4749      4748      4751      4752
      4749      4748      4751      4753      4749      4748      4751      4759
      4750      4748      4751      4752      4750      4748      4751      4753
      4750      4748      4751      4759      4751      4753      4754      4755
      4751      4753      4754      4756      4751      4759      4762      4763
      4752      4751      4753      4754      4752      4751      4759      4760
      4752      4751      4759      4761      4752      4751      4759      4762
      4753      4751      4759      4760      4753      4751      4759      4761
      4753      4751      4759      4762      4753      4754      4756      4757
      4753      4754      4756      4758      4753      4754      4756      4768
      4754      4753      4751      4759      4754      4756      4768      4769
      4754      4756      4768      4770      4754      4756      4768      4771
      4755      4754      4756      4757      4755      4754      4756      4758
      4755      4754      4756      4768      4756      4768      4771      4772
      4756      4768      4771      4773      4756      4768      4771      4774
      4757      4756      4768      4769      4757      4756      4768      4770
      4757      4756      4768      4771      4758      4756      4768      4769
      4758      4756      4768      4770      4758      4756      4768      4771
      4759      4762      4763      4764      4759      4762      4763      4765
      4760      4759      4762      4763      4761      4759      4762      4763
      4762      4763      4765      4766      4762      4763      4765      4767
      4762      4763      4765      4815      4763      4765      4815      4816
      4763      4765      4815      4817      4763      4765      4815      4818
      4764      4763      4765      4766      4764      4763      4765      4767
      4764      4763      4765      4815      4765      4815      4818      4819
      4765      4815      4818      4820      4765      4815      4818      4821
      4766      4765      4815      4816      4766      4765      4815      4817
      4766      4765      4815      4818      4767      4765      4815      4816
      4767      4765      4815      4817      4767      4765      4815      4818
      4768      4771      4774      4775      4768      4771      4774      4776
      4769      4768      4771      4772      4769      4768      4771      4773
      4769      4768      4771      4774      4770      4768      4771      4772
      4770      4768      4771      4773      4770      4768      4771      4774
      4771      4774      4776      4777      4771      4774      4776      4778
      4772      4771      4774      4775      4772      4771      4774      4776
      4773      4771      4774      4775      4773      4771      4774      4776
      4774      4776      4778      4779      4774      4776      4778      4780
      4774      4776      4778      4781      4775      4774      4776      4777
      4775      4774      4776      4778      4776      4778      4781      4782
      4776      4778      4781      4783      4777      4776      4778      4779
      4777      4776      4778      4780      4777      4776      4778      4781
      4778      4781      4783      4784      4778      4781      4783      4785
      4779      4778      4781      4782      4779      4778      4781      4783
      4780      4778      4781      4782      4780      4778      4781      4783
      4781      4783      4785      4786      4781      4783      4785      4787
      4781      4783      4785      4788      4782      4781      4783      4784
      4782      4781      4783      4785      4783      4785      4788      4789
      4783      4785      4788      4790      4784      4783      4785      4786
      4784      4783      4785      4787      4784      4783      4785      4788
      4785      4788      4790      4791      4785      4788      4790      4792
      4786      4785      4788      4789      4786      4785      4788      4790
      4787      4785      4788      4789      4787      4785      4788      4790
      4788      4790      4792      4793      4788      4790      4792      4794
      4788      4790      4792      4795      4789      4788      4790      4791
      4789      4788      4790      4792      4790      4792      4795      4796
      4790      4792      4795      4797      4791      4790      4792      4793
      4791      4790      4792      4794      4791      4790      4792      4795
      4792      4795      4797      4798      4792      4795      4797      4799
      4793      4792      4795      4796      4793      4792      4795      4797
      4794      4792      4795      4796      4794      4792      4795      4797
      4795      4797      4799      4800      4795      4797      4799      4801
      4795      4797      4799      4802      4796      4795      4797      4798
      4796      4795      4797      4799      4797      4799      4802      4803
      4797      4799      4802      4804      4797      4799      4802      4805
      4798      4797      4799      4800      4798      4797      4799      4801
      4798      4797      4799      4802      4799      4802      4805      4806
      4799      4802      4805      4807      4799      4802      4805      4808
      4800      4799      4802      4803      4800      4799      4802      4804
      4800      4799      4802      4805      4801      4799      4802      4803
      4801      4799      4802      4804      4801      4799      4802      4805
      4802      4805      4808      4809      4802      4805      4808      4810
      4802      4805      4808      4811      4803      4802      4805      4806
      4803      4802      4805      4807      4803      4802      4805      4808
      4804      4802      4805      4806      4804      4802      4805      4807
      4804      4802      4805      4808      4805      4808      4811      4812
      4805      4808      4811      4813      4805      4808      4811      4814
      4806      4805      4808      4809      4806      4805      4808      4810
      4806      4805      4808      4811      4807      4805      4808      4809
      4807      4805      4808      4810      4807      4805      4808      4811
      4809      4808      4811      4812      4809      4808      4811      4813
      4809      4808      4811      4814      4810      4808      4811      4812
      4810      4808      4811      4813      4810      4808      4811      4814
      4815      4818      4821      4822      4815      4818      4821      4823
      4815      4818      4821      4824      4816      4815      4818      4819
      4816      4815      4818      4820      4816      4815      4818      4821
      4817      4815      4818      4819      4817      4815      4818      4820
      4817      4815      4818      4821      4818      4821      4824      4825
      4818      4821      4824      4826      4818      4821      4824      4827
      4819      4818      4821      4822      4819      4818      4821      4823
      4819      4818      4821      4824      4820      4818      4821      4822
      4820      4818      4821      4823      4820      4818      4821      4824
      4821      4824      4827      4828      4821      4824      4827      4829
      4821      4824      4827      4830      4822      4821      4824      4825
      4822      4821      4824      4826      4822      4821      4824      4827
      4823      4821      4824      4825      4823      4821      4824      4826
      4823      4821      4824      4827      4824      4827      4830      4831
      4824      4827      4830      4832      4824      4827      4830      4833
      4825      4824      4827      4828      4825      4824      4827      4829
      4825      4824      4827      4830      4826      4824      4827      4828
      4826      4824      4827      4829      4826      4824      4827      4830
      4827      4830      4833      4834      4827      4830      4833      4835
      4827      4830      4833      4836      4828      4827      4830      4831
      4828      4827      4830      4832      4828      4827      4830      4833
      4829      4827      4830      4831      4829      4827      4830      4832
      4829      4827      4830      4833      4830      4833      4836      4837
      4830      4833      4836      4838      4830      4833      4836      4839
      4831      4830      4833      4834      4831      4830      4833      4835
      4831      4830      4833      4836      4832      4830      4833      4834
      4832      4830      4833      4835      4832      4830      4833      4836
      4833      4836      4839      4840      4833      4836      4839      4841
      4833      4836      4839      4842      4834      4833      4836      4837
      4834      4833      4836      4838      4834      4833      4836      4839
      4835      4833      4836      4837      4835      4833      4836      4838
      4835      4833      4836      4839      4836      4839      4842      4843
      4836      4839      4842      4844      4836      4839      4842      4845
      4837      4836      4839      4840      4837      4836      4839      4841
      4837      4836      4839      4842      4838      4836      4839      4840
      4838      4836      4839      4841      4838      4836      4839      4842
      4839      4842      4845      4846      4839      4842      4845      4847
      4839      4842      4845      4848      4840      4839      4842      4843
      4840      4839      4842      4844      4840      4839      4842      4845
      4841      4839      4842      4843      4841      4839      4842      4844
      4841      4839      4842      4845      4842      4845      4848      4849
      4842      4845      4848      4850      4842      4845      4848      4851
      4843      4842      4845      4846      4843      4842      4845      4847
      4843      4842      4845      4848      4844      4842      4845      4846
      4844      4842      4845      4847      4844      4842      4845      4848
      4845      4848      4851      4852      4845      4848      4851      4853
      4845      4848      4851      4854      4846      4845      4848      4849
      4846      4845      4848      4850      4846      4845      4848      4851
      4847      4845      4848      4849      4847      4845      4848      4850
      4847      4845      4848      4851      4848      4851      4854      4855
      4848      4851      4854      4856      4848      4851      4854      4857
      4849      4848      4851      4852      4849      4848      4851      4853
      4849      4848      4851      4854      4850      4848      4851      4852
      4850      4848      4851      4853      4850      4848      4851      4854
      4851      4854      4857      4858      4851      4854      4857      4859
      4851      4854      4857      4860      4852      4851      4854      4855
      4852      4851      4854      4856      4852      4851      4854      4857
      4853      4851      4854      4855      4853      4851      4854      4856
      4853      4851      4854      4857      4854      4857      4860      4861
      4854      4857      4860      4862      4854      4857      4860      4863
      4855      4854      4857      4858      4855      4854      4857      4859
      4855      4854      4857      4860      4856      4854      4857      4858
      4856      4854      4857      4859      4856      4854      4857      4860
      4858      4857      4860      4861      4858      4857      4860      4862
      4858      4857      4860      4863      4859      4857      4860      4861
      4859      4857      4860      4862      4859      4857      4860      4863
     10613     10617     10620     10621     10613     10617     10620     10622
     10613     10617     10620     10626     10614     10613     10617     10618
     10614     10613     10617     10619     10614     10613     10617     10620
     10615     10613     10617     10618     10615     10613     10617     10619
     10615     10613     10617     10620     10616     10613     10617     10618
     10616     10613     10617     10619     10616     10613     10617     10620
     10617     10620     10626     10623     10618     10617     10620     10621
     10618     10617     10620     10622     10618     10617     10620     10626
     10619     10617     10620     10621     10619     10617     10620     10622
     10619     10617     10620     10626     10620     10626     10623     10624
     10620     10626     10623     10625     10620     10626     10623     10627
     10621     10620     10626     10623     10622     10620     10626     10623
     10623     10627     10628     10629     10623     10627     10628     10630
     10623     10627     10628     10631     10624     10623     10627     10628
     10625     10623     10627     10628     10626     10623     10627     10628
     10627     10628     10631     10632     10627     10628     10631     10633
     10627     10628     10631     10639     10628     10631     10633     10634
     10628     10631     10639     10640     10628     10631     10639     10641
     10628     10631     10639     10642     10629     10628     10631     10632
     10629     10628     10631     10633     10629     10628     10631     10639
     10630     10628     10631     10632     10630     10628     10631     10633
     10630     10628     10631     10639     10631     10633     10634     10635
     10631     10633     10634     10636     10631     10639     10642     10643
     10632     10631     10633     10634     10632     10631     10639     10640
     10632     10631     10639     10641     10632     10631     10639     10642
     10633     10631     10639     10640     10633     10631     10639     10641
     10633     10631     10639     10642     10633     10634     10636     10637
     10633     10634     10636     10638     10633     10634     10636     10648
     10634     10633     10631     10639     10634     10636     10648     10649
     10634     10636     10648     10650     10634     10636     10648     10651
     10635     10634     10636     10637     10635     10634     10636     10638
     10635     10634     10636     10648     10636     10648     10651     10652
     10636     10648     10651     10653     10636     10648     10651     10654
     10637     10636     10648     10649     10637     10636     10648     10650
     10637     10636     10648     10651     10638     10636     10648     10649
     10638     10636     10648     10650     10638     10636     10648     10651
     10639     10642     10643     10644     10639     10642     10643     10645
     10640     10639     10642     10643     10641     10639     10642     10643
     10642     10643     10645     10646     10642     10643     10645     10647
     10642     10643     10645     10695     10643     10645     10695     10696
     10643     10645     10695     10697     10643     10645     10695     10698
     10644     10643     10645     10646     10644     10643     10645     10647
     10644     10643     10645     10695     10645     10695     10698     10699
     10645     10695     10698     10700     10645     10695     10698     10701
     10646     10645     10695     10696     10646     10645     10695     10697
     10646     10645     10695     10698     10647     10645     10695     10696
     10647     10645     10695     10697     10647     10645     10695     10698
     10648     10651     10654     10655     10648     10651     10654     10656
     10648     10651     10654     10657     10649     10648     10651     10652
     10649     10648     10651     10653     10649     10648     10651     10654
     10650     10648     10651     10652     10650     10648     10651     10653
     10650     10648     10651     10654     10651     10654     10657     10658
     10651     10654     10657     10659     10651     10654     10657     10660
     10652     10651     10654     10655     10652     10651     10654     10656
     10652     10651     10654     10657     10653     10651     10654     10655
     10653     10651     10654     10656     10653     10651     10654     10657
     10654     10657     10660     10661     10654     10657     10660     10662
     10654     10657     10660     10663     10655     10654     10657     10658
     10655     10654     10657     10659     10655     10654     10657     10660
     10656     10654     10657     10658     10656     10654     10657     10659
     10656     10654     10657     10660     10657     10660     10663     10664
     10657     10660     10663     10665     10657     10660     10663     10666
     10658     10657     10660     10661     10658     10657     10660     10662
     10658     10657     10660     10663     10659     10657     10660     10661
     10659     10657     10660     10662     10659     10657     10660     10663
     10660     10663     10666     10667     10660     10663     10666     10668
     10661     10660     10663     10664     10661     10660     10663     10665
     10661     10660     10663     10666     10662     10660     10663     10664
     10662     10660     10663     10665     10662     10660     10663     10666
     10663     10666     10668     10669     10663     10666     10668     10670
     10664     10663     10666     10667     10664     10663     10666     10668
     10665     10663     10666     10667     10665     10663     10666     10668
     10666     10668     10670     10671     10666     10668     10670     10672
     10666     10668     10670     10673     10667     10666     10668     10669
     10667     10666     10668     10670     10668     10670     10673     10674
     10668     10670     10673     10675     10668     10670     10673     10676
     10669     10668     10670     10671     10669     10668     10670     10672
     10669     10668     10670     10673     10670     10673     10676     10677
     10670     10673     10676     10678     10670     10673     10676     10679
     10671     10670     10673     10674     10671     10670     10673     10675
     10671     10670     10673     10676     10672     10670     10673     10674
     10672     10670     10673     10675     10672     10670     10673     10676
     10673     10676     10679     10680     10673     10676     10679     10681
     10673     10676     10679     10682     10674     10673     10676     10677
     10674     10673     10676     10678     10674     10673     10676     10679
     10675     10673     10676     10677     10675     10673     10676     10678
     10675     10673     10676     10679     10676     10679     10682     10683
     10676     10679     10682     10684     10676     10679     10682     10685
     10677     10676     10679     10680     10677     10676     10679     10681
     10677     10676     10679     10682     10678     10676     10679     10680
     10678     10676     10679     10681     10678     10676     10679     10682
     10679     10682     10685     10686     10679     10682     10685     10687
     10679     10682     10685     10688     10680     10679     10682     10683
     10680     10679     10682     10684     10680     10679     10682     10685
     10681     10679     10682     10683     10681     10679     10682     10684
     10681     10679     10682     10685     10682     10685     10688     10689
     10682     10685     10688     10690     10682     10685     10688     10691
     10683     10682     10685     10686     10683     10682     10685     10687
     10683     10682     10685     10688     10684     10682     10685     10686
     10684     10682     10685     10687     10684     10682     10685     10688
     10685     10688     10691     10692     10685     10688     10691     10693
     10685     10688     10691     10694     10686     10685     10688     10689
     10686     10685     10688     10690     10686     10685     10688     10691
     10687     10685     10688     10689     10687     10685     10688     10690
     10687     10685     10688     10691     10689     10688     10691     10692
     10689     10688     10691     10693     10689     10688     10691     10694
     10690     10688     10691     10692     10690     10688     10691     10693
     10690     10688     10691     10694     10695     10698     10701     10702
     10695     10698     10701     10703     10695     10698     10701     10704
     10696     10695     10698     10699     10696     10695     10698     10700
     10696     10695     10698     10701     10697     10695     10698     10699
     10697     10695     10698     10700     10697     10695     10698     10701
     10698     10701     10704     10705     10698     10701     10704     10706
     10698     10701     10704     10707     10699     10698     10701     10702
     10699     10698     10701     10703     10699     10698     10701     10704
     10700     10698     10701     10702     10700     10698     10701     10703
     10700     10698     10701     10704     10701     10704     10707     10708
     10701     10704     10707     10709     10701     10704     10707     10710
     10702     10701     10704     10705     10702     10701     10704     10706
     10702     10701     10704     10707     10703     10701     10704     10705
     10703     10701     10704     10706     10703     10701     10704     10707
     10704     10707     10710     10711     10704     10707     10710     10712
     10704     10707     10710     10713     10705     10704     10707     10708
     10705     10704     10707     10709     10705     10704     10707     10710
     10706     10704     10707     10708     10706     10704     10707     10709
     10706     10704     10707     10710     10707     10710     10713     10714
     10707     10710     10713     10715     10707     10710     10713     10716
     10708     10707     10710     10711     10708     10707     10710     10712
     10708     10707     10710     10713     10709     10707     10710     10711
     10709     10707     10710     10712     10709     10707     10710     10713
     10710     10713     10716     10717     10710     10713     10716     10718
     10710     10713     10716     10719     10711     10710     10713     10714
     10711     10710     10713     10715     10711     10710     10713     10716
     10712     10710     10713     10714     10712     10710     10713     10715
     10712     10710     10713     10716     10713     10716     10719     10720
     10713     10716     10719     10721     10713     10716     10719     10722
     10714     10713     10716     10717     10714     10713     10716     10718
     10714     10713     10716     10719     10715     10713     10716     10717
     10715     10713     10716     10718     10715     10713     10716     10719
     10716     10719     10722     10723     10716     10719     10722     10724
     10716     10719     10722     10725     10717     10716     10719     10720
     10717     10716     10719     10721     10717     10716     10719     10722
     10718     10716     10719     10720     10718     10716     10719     10721
     10718     10716     10719     10722     10719     10722     10725     10726
     10719     10722     10725     10727     10719     10722     10725     10728
     10720     10719     10722     10723     10720     10719     10722     10724
     10720     10719     10722     10725     10721     10719     10722     10723
     10721     10719     10722     10724     10721     10719     10722     10725
     10722     10725     10728     10729     10722     10725     10728     10730
     10722     10725     10728     10731     10723     10722     10725     10726
     10723     10722     10725     10727     10723     10722     10725     10728
     10724     10722     10725     10726     10724     10722     10725     10727
     10724     10722     10725     10728     10725     10728     10731     10732
     10725     10728     10731     10733     10725     10728     10731     10734
     10726     10725     10728     10729     10726     10725     10728     10730
     10726     10725     10728     10731     10727     10725     10728     10729
     10727     10725     10728     10730     10727     10725     10728     10731
     10728     10731     10734     10735     10728     10731     10734     10736
     10728     10731     10734     10737     10729     10728     10731     10732
     10729     10728     10731     10733     10729     10728     10731     10734
     10730     10728     10731     10732     10730     10728     10731     10733
     10730     10728     10731     10734     10731     10734     10737     10738
     10731     10734     10737     10739     10731     10734     10737     10740
     10732     10731     10734     10735     10732     10731     10734     10736
     10732     10731     10734     10737     10733     10731     10734     10735
     10733     10731     10734     10736     10733     10731     10734     10737
     10734     10737     10740     10741     10734     10737     10740     10742
     10734     10737     10740     10743     10735     10734     10737     10738
     10735     10734     10737     10739     10735     10734     10737     10740
     10736     10734     10737     10738     10736     10734     10737     10739
     10736     10734     10737     10740     10738     10737     10740     10741
     10738     10737     10740     10742     10738     10737     10740     10743
     10739     10737     10740     10741     10739     10737     10740     10742
     10739     10737     10740     10743      1835      1848      1851      1852
      1835      1848      1851      1853      1835      1848      1851      1858
      1836      1835      1840      1841      1836      1835      1840      1842
      1836      1835      1840      1843      1836      1835      1844      1845
      1836      1835      1844      1846      1836      1835      1844      1847
      1836      1835      1848      1849      1836      1835      1848      1850
      1836      1835      1848      1851      1837      1836      1835      1840
      1837      1836      1835      1844      1837      1836      1835      1848
      1838      1836      1835      1840      1838      1836      1835      1844
      1838      1836      1835      1848      1839      1836      1835      1840
      1839      1836      1835      1844      1839      1836      1835      1848
      1840      1835      1844      1845      1840      1835      1844      1846
      1840      1835      1844      1847      1840      1835      1848      1849
      1840      1835      1848      1850      1840      1835      1848      1851
      1841      1840      1835      1844      1841      1840      1835      1848
      1842      1840      1835      1844      1842      1840      1835      1848
      1843      1840      1835      1844      1843      1840      1835      1848
      1844      1835      1848      1849      1844      1835      1848      1850
      1844      1835      1848      1851      1845      1844      1835      1848
      1846      1844      1835      1848      1847      1844      1835      1848
      1848      1851      1858      1854      1849      1848      1851      1852
      1849      1848      1851      1853      1849      1848      1851      1858
      1850      1848      1851      1852      1850      1848      1851      1853
      1850      1848      1851      1858      1851      1858      1854      1855
      1851      1858      1854      1856      1851      1858      1854      1857
      1852      1851      1858      1854      1853      1851      1858      1854
      1854      1857      1859      1860      1854      1857      1859      1861
      1854      1857      1859      1864      1855      1854      1857      1859
      1856      1854      1857      1859      1857      1859      1864      1862
      1857      1859      1864      1865      1857      1859      1864      1866
      1858      1854      1857      1859      1859      1864      1862      1863
      1859      1864      1862      1914      1859      1864      1866      1867
      1859      1864      1866      1868      1859      1864      1866      1870
      1860      1859      1864      1862      1860      1859      1864      1865
      1860      1859      1864      1866      1861      1859      1864      1862
      1861      1859      1864      1865      1861      1859      1864      1866
      1862      1864      1866      1867      1862      1864      1866      1868
      1862      1864      1866      1870      1862      1914      1916      1917
      1862      1914      1916      1918      1862      1914      1916      1919
      1863      1862      1864      1865      1863      1862      1864      1866
      1863      1862      1914      1915      1863      1862      1914      1916
      1864      1862      1914      1915      1864      1862      1914      1916
      1864      1866      1868      1869      1864      1866      1870      1871
      1864      1866      1870      1872      1865      1864      1862      1914
      1865      1864      1866      1867      1865      1864      1866      1868
      1865      1864      1866      1870      1866      1864      1862      1914
      1866      1870      1872      1873      1866      1870      1872      1874
      1867      1866      1868      1869      1867      1866      1870      1871
      1867      1866      1870      1872      1868      1866      1870      1871
      1868      1866      1870      1872      1869      1868      1866      1870
      1870      1872      1874      1875      1870      1872      1874      1876
      1870      1872      1874      1877      1871      1870      1872      1873
      1871      1870      1872      1874      1872      1874      1877      1878
      1872      1874      1877      1879      1872      1874      1877      1880
      1873      1872      1874      1875      1873      1872      1874      1876
      1873      1872      1874      1877      1874      1877      1880      1881
      1874      1877      1880      1882      1874      1877      1880      1883
      1875      1874      1877      1878      1875      1874      1877      1879
      1875      1874      1877      1880      1876      1874      1877      1878
      1876      1874      1877      1879      1876      1874      1877      1880
      1877      1880      1883      1884      1877      1880      1883      1885
      1877      1880      1883      1886      1878      1877      1880      1881
      1878      1877      1880      1882      1878      1877      1880      1883
      1879      1877      1880      1881      1879      1877      1880      1882
      1879      1877      1880      1883      1880      1883      1886      1887
      1880      1883      1886      1888      1880      1883      1886      1889
      1881      1880      1883      1884      1881      1880      1883      1885
      1881      1880      1883      1886      1882      1880      1883      1884
      1882      1880      1883      1885      1882      1880      1883      1886
      1883      1886      1889      1890      1883      1886      1889      1891
      1883      1886      1889      1892      1884      1883      1886      1887
      1884      1883      1886      1888      1884      1883      1886      1889
      1885      1883      1886      1887      1885      1883      1886      1888
      1885      1883      1886      1889      1886      1889      1892      1893
      1886      1889      1892      1894      1886      1889      1892      1895
      1887      1886      1889      1890      1887      1886      1889      1891
      1887      1886      1889      1892      1888      1886      1889      1890
      1888      1886      1889      1891      1888      1886      1889      1892
      1889      1892      1895      1896      1889      1892      1895      1897
      1889      1892      1895      1898      1890      1889      1892      1893
      1890      1889      1892      1894      1890      1889      1892      1895
      1891      1889      1892      1893      1891      1889      1892      1894
      1891      1889      1892      1895      1892      1895      1898      1899
      1892      1895      1898      1900      1892      1895      1898      1901
      1893      1892      1895      1896      1893      1892      1895      1897
      1893      1892      1895      1898      1894      1892      1895      1896
      1894      1892      1895      1897      1894      1892      1895      1898
      1895      1898      1901      1902      1895      1898      1901      1903
      1895      1898      1901      1904      1896      1895      1898      1899
      1896      1895      1898      1900      1896      1895      1898      1901
      1897      1895      1898      1899      1897      1895      1898      1900
      1897      1895      1898      1901      1898      1901      1904      1905
      1898      1901      1904      1906      1898      1901      1904      1907
      1899      1898      1901      1902      1899      1898      1901      1903
      1899      1898      1901      1904      1900      1898      1901      1902
      1900      1898      1901      1903      1900      1898      1901      1904
      1901      1904      1907      1908      1901      1904      1907      1909
      1901      1904      1907      1910      1902      1901      1904      1905
      1902      1901      1904      1906      1902      1901      1904      1907
      1903      1901      1904      1905      1903      1901      1904      1906
      1903      1901      1904      1907      1904      1907      1910      1911
      1904      1907      1910      1912      1904      1907      1910      1913
      1905      1904      1907      1908      1905      1904      1907      1909
      1905      1904      1907      1910      1906      1904      1907      1908
      1906      1904      1907      1909      1906      1904      1907      1910
      1908      1907      1910      1911      1908      1907      1910      1912
      1908      1907      1910      1913      1909      1907      1910      1911
      1909      1907      1910      1912      1909      1907      1910      1913
      1914      1916      1919      1920      1914      1916      1919      1921
      1914      1916      1919      1922      1915      1914      1916      1917
      1915      1914      1916      1918      1915      1914      1916      1919
      1916      1919      1922      1923      1916      1919      1922      1924
      1916      1919      1922      1925      1917      1916      1919      1920
      1917      1916      1919      1921      1917      1916      1919      1922
      1918      1916      1919      1920      1918      1916      1919      1921
      1918      1916      1919      1922      1919      1922      1925      1926
      1919      1922      1925      1927      1919      1922      1925      1928
      1920      1919      1922      1923      1920      1919      1922      1924
      1920      1919      1922      1925      1921      1919      1922      1923
      1921      1919      1922      1924      1921      1919      1922      1925
      1922      1925      1928      1929      1922      1925      1928      1930
      1922      1925      1928      1931      1923      1922      1925      1926
      1923      1922      1925      1927      1923      1922      1925      1928
      1924      1922      1925      1926      1924      1922      1925      1927
      1924      1922      1925      1928      1925      1928      1931      1932
      1925      1928      1931      1933      1925      1928      1931      1934
      1926      1925      1928      1929      1926      1925      1928      1930
      1926      1925      1928      1931      1927      1925      1928      1929
      1927      1925      1928      1930      1927      1925      1928      1931
      1928      1931      1934      1935      1928      1931      1934      1936
      1928      1931      1934      1937      1929      1928      1931      1932
      1929      1928      1931      1933      1929      1928      1931      1934
      1930      1928      1931      1932      1930      1928      1931      1933
      1930      1928      1931      1934      1931      1934      1937      1938
      1931      1934      1937      1939      1932      1931      1934      1935
      1932      1931      1934      1936      1932      1931      1934      1937
      1933      1931      1934      1935      1933      1931      1934      1936
      1933      1931      1934      1937      1934      1937      1939      1940
      1934      1937      1939      1941      1935      1934      1937      1938
      1935      1934      1937      1939      1936      1934      1937      1938
      1936      1934      1937      1939      1937      1939      1941      1942
      1937      1939      1941      1943      1937      1939      1941      1944
      1938      1937      1939      1940      1938      1937      1939      1941
      1939      1941      1944      1945      1939      1941      1944      1946
      1939      1941      1944      1947      1940      1939      1941      1942
      1940      1939      1941      1943      1940      1939      1941      1944
      1941      1944      1947      1948      1941      1944      1947      1949
      1941      1944      1947      1950      1942      1941      1944      1945
      1942      1941      1944      1946      1942      1941      1944      1947
      1943      1941      1944      1945      1943      1941      1944      1946
      1943      1941      1944      1947      1944      1947      1950      1951
      1944      1947      1950      1952      1944      1947      1950      1953
      1945      1944      1947      1948      1945      1944      1947      1949
      1945      1944      1947      1950      1946      1944      1947      1948
      1946      1944      1947      1949      1946      1944      1947      1950
      1947      1950      1953      1954      1947      1950      1953      1955
      1947      1950      1953      1956      1948      1947      1950      1951
      1948      1947      1950      1952      1948      1947      1950      1953
      1949      1947      1950      1951      1949      1947      1950      1952
      1949      1947      1950      1953      1950      1953      1956      1957
      1950      1953      1956      1958      1950      1953      1956      1959
      1951      1950      1953      1954      1951      1950      1953      1955
      1951      1950      1953      1956      1952      1950      1953      1954
      1952      1950      1953      1955      1952      1950      1953      1956
      1953      1956      1959      1960      1953      1956      1959      1961
      1953      1956      1959      1962      1954      1953      1956      1957
      1954      1953      1956      1958      1954      1953      1956      1959
      1955      1953      1956      1957      1955      1953      1956      1958
      1955      1953      1956      1959      1956      1959      1962      1963
      1956      1959      1962      1964      1956      1959      1962      1965
      1957      1956      1959      1960      1957      1956      1959      1961
      1957      1956      1959      1962      1958      1956      1959      1960
      1958      1956      1959      1961      1958      1956      1959      1962
      1960      1959      1962      1963      1960      1959      1962      1964
      1960      1959      1962      1965      1961      1959      1962      1963
      1961      1959      1962      1964      1961      1959      1962      1965
      9273      9274      9289      9290      9273      9274      9289      9291
      9273      9274      9289      9295      9274      9273      9277      9278
      9274      9273      9277      9279      9274      9273      9277      9280
      9274      9273      9281      9282      9274      9273      9281      9283
      9274      9273      9281      9284      9274      9273      9285      9286
      9274      9273      9285      9287      9274      9273      9285      9288
      9274      9289      9295      9292      9275      9274      9273      9277
      9275      9274      9273      9281      9275      9274      9273      9285
      9275      9274      9289      9290      9275      9274      9289      9291
      9275      9274      9289      9295      9276      9274      9273      9277
      9276      9274      9273      9281      9276      9274      9273      9285
      9276      9274      9289      9290      9276      9274      9289      9291
      9276      9274      9289      9295      9277      9273      9274      9289
      9277      9273      9281      9282      9277      9273      9281      9283
      9277      9273      9281      9284      9277      9273      9285      9286
      9277      9273      9285      9287      9277      9273      9285      9288
      9278      9277      9273      9281      9278      9277      9273      9285
      9279      9277      9273      9281      9279      9277      9273      9285
      9280      9277      9273      9281      9280      9277      9273      9285
      9281      9273      9274      9289      9281      9273      9285      9286
      9281      9273      9285      9287      9281      9273      9285      9288
      9282      9281      9273      9285      9283      9281      9273      9285
      9284      9281      9273      9285      9285      9273      9274      9289
      9289      9295      9292      9293      9289      9295      9292      9294
      9289      9295      9292      9296      9290      9289      9295      9292
      9291      9289      9295      9292      9292      9296      9297      9298
      9292      9296      9297      9299      9292      9296      9297      9300
      9293      9292      9296      9297      9294      9292      9296      9297
      9295      9292      9296      9297      9296      9297      9300      9301
      9296      9297      9300      9302      9296      9297      9300      9308
      9297      9300      9302      9303      9297      9300      9308      9309
      9297      9300      9308      9310      9297      9300      9308      9311
      9298      9297      9300      9301      9298      9297      9300      9302
      9298      9297      9300      9308      9299      9297      9300      9301
      9299      9297      9300      9302      9299      9297      9300      9308
      9300      9302      9303      9304      9300      9302      9303      9305
      9300      9308      9311      9312      9301      9300      9302      9303
      9301      9300      9308      9309      9301      9300      9308      9310
      9301      9300      9308      9311      9302      9300      9308      9309
      9302      9300      9308      9310      9302      9300      9308      9311
      9302      9303      9305      9306      9302      9303      9305      9307
      9302      9303      9305      9317      9303      9302      9300      9308
      9303      9305      9317      9318      9303      9305      9317      9319
      9303      9305      9317      9320      9304      9303      9305      9306
      9304      9303      9305      9307      9304      9303      9305      9317
      9305      9317      9320      9321      9305      9317      9320      9322
      9305      9317      9320      9323      9306      9305      9317      9318
      9306      9305      9317      9319      9306      9305      9317      9320
      9307      9305      9317      9318      9307      9305      9317      9319
      9307      9305      9317      9320      9308      9311      9312      9313
      9308      9311      9312      9314      9309      9308      9311      9312
      9310      9308      9311      9312      9311      9312      9314      9315
      9311      9312      9314      9316      9311      9312      9314      9364
      9312      9314      9364      9365      9312      9314      9364      9366
      9312      9314      9364      9367      9313      9312      9314      9315
      9313      9312      9314      9316      9313      9312      9314      9364
      9314      9364      9367      9368      9314      9364      9367      9369
      9314      9364      9367      9370      9315      9314      9364      9365
      9315      9314      9364      9366      9315      9314      9364      9367
      9316      9314      9364      9365      9316      9314      9364      9366
      9316      9314      9364      9367      9317      9320      9323      9324
      9317      9320      9323      9325      9318      9317      9320      9321
      9318      9317      9320      9322      9318      9317      9320      9323
      9319      9317      9320      9321      9319      9317      9320      9322
      9319      9317      9320      9323      9320      9323      9325      9326
      9320      9323      9325      9327      9321      9320      9323      9324
      9321      9320      9323      9325      9322      9320      9323      9324
      9322      9320      9323      9325      9323      9325      9327      9328
      9323      9325      9327      9329      9323      9325      9327      9330
      9324      9323      9325      9326      9324      9323      9325      9327
      9325      9327      9330      9331      9325      9327      9330      9332
      9326      9325      9327      9328      9326      9325      9327      9329
      9326      9325      9327      9330      9327      9330      9332      9333
      9327      9330      9332      9334      9328      9327      9330      9331
      9328      9327      9330      9332      9329      9327      9330      9331
      9329      9327      9330      9332      9330      9332      9334      9335
      9330      9332      9334      9336      9330      9332      9334      9337
      9331      9330      9332      9333      9331      9330      9332      9334
      9332      9334      9337      9338      9332      9334      9337      9339
      9333      9332      9334      9335      9333      9332      9334      9336
      9333      9332      9334      9337      9334      9337      9339      9340
      9334      9337      9339      9341      9335      9334      9337      9338
      9335      9334      9337      9339      9336      9334      9337      9338
      9336      9334      9337      9339      9337      9339      9341      9342
      9337      9339      9341      9343      9337      9339      9341      9344
      9338      9337      9339      9340      9338      9337      9339      9341
      9339      9341      9344      9345      9339      9341      9344      9346
      9340      9339      9341      9342      9340      9339      9341      9343
      9340      9339      9341      9344      9341      9344      9346      9347
      9341      9344      9346      9348      9342      9341      9344      9345
      9342      9341      9344      9346      9343      9341      9344      9345
      9343      9341      9344      9346      9344      9346      9348      9349
      9344      9346      9348      9350      9344      9346      9348      9351
      9345      9344      9346      9347      9345      9344      9346      9348
      9346      9348      9351      9352      9346      9348      9351      9353
      9346      9348      9351      9354      9347      9346      9348      9349
      9347      9346      9348      9350      9347      9346      9348      9351
      9348      9351      9354      9355      9348      9351      9354      9356
      9348      9351      9354      9357      9349      9348      9351      9352
      9349      9348      9351      9353      9349      9348      9351      9354
      9350      9348      9351      9352      9350      9348      9351      9353
      9350      9348      9351      9354      9351      9354      9357      9358
      9351      9354      9357      9359      9351      9354      9357      9360
      9352      9351      9354      9355      9352      9351      9354      9356
      9352      9351      9354      9357      9353      9351      9354      9355
      9353      9351      9354      9356      9353      9351      9354      9357
      9354      9357      9360      9361      9354      9357      9360      9362
      9354      9357      9360      9363      9355      9354      9357      9358
      9355      9354      9357      9359      9355      9354      9357      9360
      9356      9354      9357      9358      9356      9354      9357      9359
      9356      9354      9357      9360      9358      9357      9360      9361
      9358      9357      9360      9362      9358      9357      9360      9363
      9359      9357      9360      9361      9359      9357      9360      9362
      9359      9357      9360      9363      9364      9367      9370      9371
      9364      9367      9370      9372      9364      9367      9370      9373
      9365      9364      9367      9368      9365      9364      9367      9369
      9365      9364      9367      9370      9366      9364      9367      9368
      9366      9364      9367      9369      9366      9364      9367      9370
      9367      9370      9373      9374      9367      9370      9373      9375
      9367      9370      9373      9376      9368      9367      9370      9371
      9368      9367      9370      9372      9368      9367      9370      9373
      9369      9367      9370      9371      9369      9367      9370      9372
      9369      9367      9370      9373      9370      9373      9376      9377
      9370      9373      9376      9378      9370      9373      9376      9379
      9371      9370      9373      9374      9371      9370      9373      9375
      9371      9370      9373      9376      9372      9370      9373      9374
      9372      9370      9373      9375      9372      9370      9373      9376
      9373      9376      9379      9380      9373      9376      9379      9381
      9373      9376      9379      9382      9374      9373      9376      9377
      9374      9373      9376      9378      9374      9373      9376      9379
      9375      9373      9376      9377      9375      9373      9376      9378
      9375      9373      9376      9379      9376      9379      9382      9383
      9376      9379      9382      9384      9376      9379      9382      9385
      9377      9376      9379      9380      9377      9376      9379      9381
      9377      9376      9379      9382      9378      9376      9379      9380
      9378      9376      9379      9381      9378      9376      9379      9382
      9379      9382      9385      9386      9379      9382      9385      9387
      9379      9382      9385      9388      9380      9379      9382      9383
      9380      9379      9382      9384      9380      9379      9382      9385
      9381      9379      9382      9383      9381      9379      9382      9384
      9381      9379      9382      9385      9382      9385      9388      9389
      9382      9385      9388      9390      9382      9385      9388      9391
      9383      9382      9385      9386      9383      9382      9385      9387
      9383      9382      9385      9388      9384      9382      9385      9386
      9384      9382      9385      9387      9384      9382      9385      9388
      9385      9388      9391      9392      9385      9388      9391      9393
      9385      9388      9391      9394      9386      9385      9388      9389
      9386      9385      9388      9390      9386      9385      9388      9391
      9387      9385      9388      9389      9387      9385      9388      9390
      9387      9385      9388      9391      9388      9391      9394      9395
      9388      9391      9394      9396      9388      9391      9394      9397
      9389      9388      9391      9392      9389      9388      9391      9393
      9389      9388      9391      9394      9390      9388      9391      9392
      9390      9388      9391      9393      9390      9388      9391      9394
      9391      9394      9397      9398      9391      9394      9397      9399
      9391      9394      9397      9400      9392      9391      9394      9395
      9392      9391      9394      9396      9392      9391      9394      9397
      9393      9391      9394      9395      9393      9391      9394      9396
      9393      9391      9394      9397      9394      9397      9400      9401
      9394      9397      9400      9402      9394      9397      9400      9403
      9395      9394      9397      9398      9395      9394      9397      9399
      9395      9394      9397      9400      9396      9394      9397      9398
      9396      9394      9397      9399      9396      9394      9397      9400
      9397      9400      9403      9404      9397      9400      9403      9405
      9397      9400      9403      9406      9398      9397      9400      9401
      9398      9397      9400      9402      9398      9397      9400      9403
      9399      9397      9400      9401      9399      9397      9400      9402
      9399      9397      9400      9403      9400      9403      9406      9407
      9400      9403      9406      9408      9400      9403      9406      9409
      9401      9400      9403      9404      9401      9400      9403      9405
      9401      9400      9403      9406      9402      9400      9403      9404
      9402      9400      9403      9405      9402      9400      9403      9406
      9403      9406      9409      9410      9403      9406      9409      9411
      9403      9406      9409      9412      9404      9403      9406      9407
      9404      9403      9406      9408      9404      9403      9406      9409
      9405      9403      9406      9407      9405      9403      9406      9408
      9405      9403      9406      9409      9407      9406      9409      9410
      9407      9406      9409      9411      9407      9406      9409      9412
      9408      9406      9409      9410      9408      9406      9409      9411
      9408      9406      9409      9412      6737      6741      6744      6745
      6737      6741      6744      6775      6737      6783      6780      6775
      6737      6783      6780      6781      6737      6783      6780      6782
      6738      6737      6739      6740      6738      6737      6741      6742
      6738      6737      6741      6743      6738      6737      6741      6744
      6738      6737      6783      6780      6738      6737      6783      6784
      6738      6737      6783      6785      6739      6737      6741      6742
      6739      6737      6741      6743      6739      6737      6741      6744
      6739      6737      6783      6780      6739      6737      6783      6784
      6739      6737      6783      6785      6740      6739      6737      6741
      6740      6739      6737      6783      6741      6737      6783      6780
      6741      6737      6783      6784      6741      6737      6783      6785
      6741      6744      6745      6746      6741      6744      6745      6747
      6741      6744      6775      6773      6741      6744      6775      6776
      6741      6744      6775      6780      6742      6741      6737      6783
      6742      6741      6744      6745      6742      6741      6744      6775
      6743      6741      6737      6783      6743      6741      6744      6745
      6743      6741      6744      6775      6744      6741      6737      6783
      6744      6745      6747      6748      6744      6745      6747      6749
      6744      6745      6747      6750      6744      6775      6773      6750
      6744      6775      6773      6770      6744      6775      6773      6774
      6744      6775      6776      6777      6744      6775      6776      6778
      6744      6775      6776      6779      6744      6775      6780      6781
      6744      6775      6780      6782      6744      6775      6780      6783
      6745      6744      6775      6773      6745      6744      6775      6776
      6745      6744      6775      6780      6745      6747      6750      6751
      6745      6747      6750      6752      6745      6747      6750      6773
      6746      6745      6744      6775      6746      6745      6747      6748
      6746      6745      6747      6749      6746      6745      6747      6750
      6747      6745      6744      6775      6747      6750      6752      6753
      6747      6750      6752      6754      6747      6750      6752      6762
      6747      6750      6773      6770      6747      6750      6773      6774
      6747      6750      6773      6775      6748      6747      6750      6751
      6748      6747      6750      6752      6748      6747      6750      6773
      6749      6747      6750      6751      6749      6747      6750      6752
      6749      6747      6750      6773      6750      6752      6754      6755
      6750      6752      6754      6756      6750      6752      6754      6757
      6750      6752      6762      6760      6750      6752      6762      6763
      6750      6752      6762      6767      6750      6773      6770      6767
      6750      6773      6770      6771      6750      6773      6770      6772
      6750      6773      6775      6776      6750      6773      6775      6780
      6751      6750      6752      6753      6751      6750      6752      6754
      6751      6750      6752      6762      6751      6750      6773      6770
      6751      6750      6773      6774      6751      6750      6773      6775
      6752      6750      6773      6770      6752      6750      6773      6774
      6752      6750      6773      6775      6752      6754      6757      6758
      6752      6754      6757      6759      6752      6754      6757      6760
      6752      6762      6760      6757      6752      6762      6760      6761
      6752      6762      6760      6786      6752      6762      6763      6764
      6752      6762      6763      6765      6752      6762      6763      6766
      6752      6762      6767      6768      6752      6762      6767      6769
      6752      6762      6767      6770      6753      6752      6750      6773
      6753      6752      6754      6755      6753      6752      6754      6756
      6753      6752      6754      6757      6753      6752      6762      6760
      6753      6752      6762      6763      6753      6752      6762      6767
      6754      6752      6750      6773      6754      6752      6762      6760
      6754      6752      6762      6763      6754      6752      6762      6767
      6754      6757      6760      6761      6754      6757      6760      6762
      6754      6757      6760      6786      6755      6754      6752      6762
      6755      6754      6757      6758      6755      6754      6757      6759
      6755      6754      6757      6760      6756      6754      6752      6762
      6756      6754      6757      6758      6756      6754      6757      6759
      6756      6754      6757      6760      6757      6754      6752      6762
      6757      6760      6762      6763      6757      6760      6762      6767
      6757      6760      6786      6787      6757      6760      6786      6788
      6757      6760      6786      6792      6758      6757      6760      6761
      6758      6757      6760      6762      6758      6757      6760      6786
      6759      6757      6760      6761      6759      6757      6760      6762
      6759      6757      6760      6786      6760      6762      6763      6764
      6760      6762      6763      6765      6760      6762      6763      6766
      6760      6762      6767      6768      6760      6762      6767      6769
      6760      6762      6767      6770      6760      6786      6788      6789
      6760      6786      6788      6790      6760      6786      6788      6791
      6760      6786      6792      6793      6760      6786      6792      6794
      6760      6786      6792      6795      6761      6760      6762      6763
      6761      6760      6762      6767      6761      6760      6786      6787
      6761      6760      6786      6788      6761      6760      6786      6792
      6762      6752      6750      6773      6762      6760      6786      6787
      6762      6760      6786      6788      6762      6760      6786      6792
      6762      6767      6770      6771      6762      6767      6770      6772
      6762      6767      6770      6773      6763      6762      6760      6786
      6763      6762      6767      6768      6763      6762      6767      6769
      6763      6762      6767      6770      6764      6763      6762      6767
      6765      6763      6762      6767      6766      6763      6762      6767
      6767      6762      6760      6786      6767      6770      6773      6774
      6767      6770      6773      6775      6768      6767      6770      6771
      6768      6767      6770      6772      6768      6767      6770      6773
      6769      6767      6770      6771      6769      6767      6770      6772
      6769      6767      6770      6773      6770      6773      6775      6776
      6770      6773      6775      6780      6771      6770      6773      6774
      6771      6770      6773      6775      6772      6770      6773      6774
      6772      6770      6773      6775      6773      6775      6776      6777
      6773      6775      6776      6778      6773      6775      6776      6779
      6773      6775      6780      6781      6773      6775      6780      6782
      6773      6775      6780      6783      6774      6773      6775      6776
      6774      6773      6775      6780      6775      6780      6783      6784
      6775      6780      6783      6785      6776      6775      6780      6781
      6776      6775      6780      6782      6776      6775      6780      6783
      6777      6776      6775      6780      6778      6776      6775      6780
      6779      6776      6775      6780      6781      6780      6783      6784
      6781      6780      6783      6785      6782      6780      6783      6784
      6782      6780      6783      6785      6786      6792      6795      6796
      6786      6792      6795      6797      6786      6792      6795      6798
      6787      6786      6788      6789      6787      6786      6788      6790
      6787      6786      6788      6791      6787      6786      6792      6793
      6787      6786      6792      6794      6787      6786      6792      6795
      6788      6786      6792      6793      6788      6786      6792      6794
      6788      6786      6792      6795      6789      6788      6786      6792
      6790      6788      6786      6792      6791      6788      6786      6792
      6792      6795      6798      6799      6792      6795      6798      6800
      6792      6795      6798      6801      6793      6792      6795      6796
      6793      6792      6795      6797      6793      6792      6795      6798
      6794      6792      6795      6796      6794      6792      6795      6797
      6794      6792      6795      6798      6795      6798      6801      6802
      6795      6798      6801      6803      6795      6798      6801      6807
      6796      6795      6798      6799      6796      6795      6798      6800
      6796      6795      6798      6801      6797      6795      6798      6799
      6797      6795      6798      6800      6797      6795      6798      6801
      6798      6801      6803      6804      6798      6801      6803      6805
      6798      6801      6803      6806      6798      6801      6807      6808
      6798      6801      6807      6809      6798      6801      6807      6810
      6799      6798      6801      6802      6799      6798      6801      6803
      6799      6798      6801      6807      6800      6798      6801      6802
      6800      6798      6801      6803      6800      6798      6801      6807
      6802      6801      6803      6804      6802      6801      6803      6805
      6802      6801      6803      6806      6802      6801      6807      6808
      6802      6801      6807      6809      6802      6801      6807      6810
      6803      6801      6807      6808      6803      6801      6807      6809
      6803      6801      6807      6810      6804      6803      6801      6807
      6805      6803      6801      6807      6806      6803      6801      6807
      1966      1979      1982      1983      1966      1979      1982      1984
      1966      1979      1982      1989      1967      1966      1971      1972
      1967      1966      1971      1973      1967      1966      1971      1974
      1967      1966      1975      1976      1967      1966      1975      1977
      1967      1966      1975      1978      1967      1966      1979      1980
      1967      1966      1979      1981      1967      1966      1979      1982
      1968      1967      1966      1971      1968      1967      1966      1975
      1968      1967      1966      1979      1969      1967      1966      1971
      1969      1967      1966      1975      1969      1967      1966      1979
      1970      1967      1966      1971      1970      1967      1966      1975
      1970      1967      1966      1979      1971      1966      1975      1976
      1971      1966      1975      1977      1971      1966      1975      1978
      1971      1966      1979      1980      1971      1966      1979      1981
      1971      1966      1979      1982      1972      1971      1966      1975
      1972      1971      1966      1979      1973      1971      1966      1975
      1973      1971      1966      1979      1974      1971      1966      1975
      1974      1971      1966      1979      1975      1966      1979      1980
      1975      1966      1979      1981      1975      1966      1979      1982
      1976      1975      1966      1979      1977      1975      1966      1979
      1978      1975      1966      1979      1979      1982      1989      1985
      1980      1979      1982      1983      1980      1979      1982      1984
      1980      1979      1982      1989      1981      1979      1982      1983
      1981      1979      1982      1984      1981      1979      1982      1989
      1982      1989      1985      1986      1982      1989      1985      1987
      1982      1989      1985      1988      1983      1982      1989      1985
      1984      1982      1989      1985      1985      1988      1990      1991
      1985      1988      1990      1992      1985      1988      1990      1995
      1986      1985      1988      1990      1987      1985      1988      1990
      1988      1990      1995      1993      1988      1990      1995      1996
      1988      1990      1995      1997      1989      1985      1988      1990
      1990      1995      1993      1994      1990      1995      1993      2045
      1990      1995      1997      1998      1990      1995      1997      1999
      1990      1995      1997      2001      1991      1990      1995      1993
      1991      1990      1995      1996      1991      1990      1995      1997
      1992      1990      1995      1993      1992      1990      1995      1996
      1992      1990      1995      1997      1993      1995      1997      1998
      1993      1995      1997      1999      1993      1995      1997      2001
      1993      2045      2047      2048      1993      2045      2047      2049
      1993      2045      2047      2050      1994      1993      1995      1996
      1994      1993      1995      1997      1994      1993      2045      2046
      1994      1993      2045      2047      1995      1993      2045      2046
      1995      1993      2045      2047      1995      1997      1999      2000
      1995      1997      2001      2002      1995      1997      2001      2003
      1996      1995      1993      2045      1996      1995      1997      1998
      1996      1995      1997      1999      1996      1995      1997      2001
      1997      1995      1993      2045      1997      2001      2003      2004
      1997      2001      2003      2005      1998      1997      1999      2000
      1998      1997      2001      2002      1998      1997      2001      2003
      1999      1997      2001      2002      1999      1997      2001      2003
      2000      1999      1997      2001      2001      2003      2005      2006
      2001      2003      2005      2007      2001      2003      2005      2008
      2002      2001      2003      2004      2002      2001      2003      2005
      2003      2005      2008      2009      2003      2005      2008      2010
      2003      2005      2008      2011      2004      2003      2005      2006
      2004      2003      2005      2007      2004      2003      2005      2008
      2005      2008      2011      2012      2005      2008      2011      2013
      2005      2008      2011      2014      2006      2005      2008      2009
      2006      2005      2008      2010      2006      2005      2008      2011
      2007      2005      2008      2009      2007      2005      2008      2010
      2007      2005      2008      2011      2008      2011      2014      2015
      2008      2011      2014      2016      2008      2011      2014      2017
      2009      2008      2011      2012      2009      2008      2011      2013
      2009      2008      2011      2014      2010      2008      2011      2012
      2010      2008      2011      2013      2010      2008      2011      2014
      2011      2014      2017      2018      2011      2014      2017      2019
      2011      2014      2017      2020      2012      2011      2014      2015
      2012      2011      2014      2016      2012      2011      2014      2017
      2013      2011      2014      2015      2013      2011      2014      2016
      2013      2011      2014      2017      2014      2017      2020      2021
      2014      2017      2020      2022      2014      2017      2020      2023
      2015      2014      2017      2018      2015      2014      2017      2019
      2015      2014      2017      2020      2016      2014      2017      2018
      2016      2014      2017      2019      2016      2014      2017      2020
      2017      2020      2023      2024      2017      2020      2023      2025
      2017      2020      2023      2026      2018      2017      2020      2021
      2018      2017      2020      2022      2018      2017      2020      2023
      2019      2017      2020      2021      2019      2017      2020      2022
      2019      2017      2020      2023      2020      2023      2026      2027
      2020      2023      2026      2028      2020      2023      2026      2029
      2021      2020      2023      2024      2021      2020      2023      2025
      2021      2020      2023      2026      2022      2020      2023      2024
      2022      2020      2023      2025      2022      2020      2023      2026
      2023      2026      2029      2030      2023      2026      2029      2031
      2023      2026      2029      2032      2024      2023      2026      2027
      2024      2023      2026      2028      2024      2023      2026      2029
      2025      2023      2026      2027      2025      2023      2026      2028
      2025      2023      2026      2029      2026      2029      2032      2033
      2026      2029      2032      2034      2026      2029      2032      2035
      2027      2026      2029      2030      2027      2026      2029      2031
      2027      2026      2029      2032      2028      2026      2029      2030
      2028      2026      2029      2031      2028      2026      2029      2032
      2029      2032      2035      2036      2029      2032      2035      2037
      2029      2032      2035      2038      2030      2029      2032      2033
      2030      2029      2032      2034      2030      2029      2032      2035
      2031      2029      2032      2033      2031      2029      2032      2034
      2031      2029      2032      2035      2032      2035      2038      2039
      2032      2035      2038      2040      2032      2035      2038      2041
      2033      2032      2035      2036      2033      2032      2035      2037
      2033      2032      2035      2038      2034      2032      2035      2036
      2034      2032      2035      2037      2034      2032      2035      2038
      2035      2038      2041      2042      2035      2038      2041      2043
      2035      2038      2041      2044      2036      2035      2038      2039
      2036      2035      2038      2040      2036      2035      2038      2041
      2037      2035      2038      2039      2037      2035      2038      2040
      2037      2035      2038      2041      2039      2038      2041      2042
      2039      2038      2041      2043      2039      2038      2041      2044
      2040      2038      2041      2042      2040      2038      2041      2043
      2040      2038      2041      2044      2045      2047      2050      2051
      2045      2047      2050      2052      2045      2047      2050      2053
      2046      2045      2047      2048      2046      2045      2047      2049
      2046      2045      2047      2050      2047      2050      2053      2054
      2047      2050      2053      2055      2047      2050      2053      2056
      2048      2047      2050      2051      2048      2047      2050      2052
      2048      2047      2050      2053      2049      2047      2050      2051
      2049      2047      2050      2052      2049      2047      2050      2053
      2050      2053      2056      2057      2050      2053      2056      2058
      2050      2053      2056      2059      2051      2050      2053      2054
      2051      2050      2053      2055      2051      2050      2053      2056
      2052      2050      2053      2054      2052      2050      2053      2055
      2052      2050      2053      2056      2053      2056      2059      2060
      2053      2056      2059      2061      2053      2056      2059      2062
      2054      2053      2056      2057      2054      2053      2056      2058
      2054      2053      2056      2059      2055      2053      2056      2057
      2055      2053      2056      2058      2055      2053      2056      2059
      2056      2059      2062      2063      2056      2059      2062      2064
      2056      2059      2062      2065      2057      2056      2059      2060
      2057      2056      2059      2061      2057      2056      2059      2062
      2058      2056      2059      2060      2058      2056      2059      2061
      2058      2056      2059      2062      2059      2062      2065      2066
      2059      2062      2065      2067      2059      2062      2065      2068
      2060      2059      2062      2063      2060      2059      2062      2064
      2060      2059      2062      2065      2061      2059      2062      2063
      2061      2059      2062      2064      2061      2059      2062      2065
      2062      2065      2068      2069      2062      2065      2068      2070
      2063      2062      2065      2066      2063      2062      2065      2067
      2063      2062      2065      2068      2064      2062      2065      2066
      2064      2062      2065      2067      2064      2062      2065      2068
      2065      2068      2070      2071      2065      2068      2070      2072
      2066      2065      2068      2069      2066      2065      2068      2070
      2067      2065      2068      2069      2067      2065      2068      2070
      2068      2070      2072      2073      2068      2070      2072      2074
      2068      2070      2072      2075      2069      2068      2070      2071
      2069      2068      2070      2072      2070      2072      2075      2076
      2070      2072      2075      2077      2070      2072      2075      2078
      2071      2070      2072      2073      2071      2070      2072      2074
      2071      2070      2072      2075      2072      2075      2078      2079
      2072      2075      2078      2080      2072      2075      2078      2081
      2073      2072      2075      2076      2073      2072      2075      2077
      2073      2072      2075      2078      2074      2072      2075      2076
      2074      2072      2075      2077      2074      2072      2075      2078
      2075      2078      2081      2082      2075      2078      2081      2083
      2075      2078      2081      2084      2076      2075      2078      2079
      2076      2075      2078      2080      2076      2075      2078      2081
      2077      2075      2078      2079      2077      2075      2078      2080
      2077      2075      2078      2081      2078      2081      2084      2085
      2078      2081      2084      2086      2078      2081      2084      2087
      2079      2078      2081      2082      2079      2078      2081      2083
      2079      2078      2081      2084      2080      2078      2081      2082
      2080      2078      2081      2083      2080      2078      2081      2084
      2081      2084      2087      2088      2081      2084      2087      2089
      2081      2084      2087      2090      2082      2081      2084      2085
      2082      2081      2084      2086      2082      2081      2084      2087
      2083      2081      2084      2085      2083      2081      2084      2086
      2083      2081      2084      2087      2084      2087      2090      2091
      2084      2087      2090      2092      2084      2087      2090      2093
      2085      2084      2087      2088      2085      2084      2087      2089
      2085      2084      2087      2090      2086      2084      2087      2088
      2086      2084      2087      2089      2086      2084      2087      2090
      2087      2090      2093      2094      2087      2090      2093      2095
      2087      2090      2093      2096      2088      2087      2090      2091
      2088      2087      2090      2092      2088      2087      2090      2093
      2089      2087      2090      2091      2089      2087      2090      2092
      2089      2087      2090      2093      2091      2090      2093      2094
      2091      2090      2093      2095      2091      2090      2093      2096
      2092      2090      2093      2094      2092      2090      2093      2095
      2092      2090      2093      2096      8019      8032      8035      8036
      8019      8032      8035      8037      8019      8032      8035      8041
      8020      8019      8024      8025      8020      8019      8024      8026
      8020      8019      8024      8027      8020      8019      8028      8029
      8020      8019      8028      8030      8020      8019      8028      8031
      8020      8019      8032      8033      8020      8019      8032      8034
      8020      8019      8032      8035      8021      8020      8019      8024
      8021      8020      8019      8028      8021      8020      8019      8032
      8022      8020      8019      8024      8022      8020      8019      8028
      8022      8020      8019      8032      8023      8020      8019      8024
      8023      8020      8019      8028      8023      8020      8019      8032
      8024      8019      8028      8029      8024      8019      8028      8030
      8024      8019      8028      8031      8024      8019      8032      8033
      8024      8019      8032      8034      8024      8019      8032      8035
      8025      8024      8019      8028      8025      8024      8019      8032
      8026      8024      8019      8028      8026      8024      8019      8032
      8027      8024      8019      8028      8027      8024      8019      8032
      8028      8019      8032      8033      8028      8019      8032      8034
      8028      8019      8032      8035      8029      8028      8019      8032
      8030      8028      8019      8032      8031      8028      8019      8032
      8032      8035      8041      8038      8033      8032      8035      8036
      8033      8032      8035      8037      8033      8032      8035      8041
      8034      8032      8035      8036      8034      8032      8035      8037
      8034      8032      8035      8041      8035      8041      8038      8039
      8035      8041      8038      8040      8035      8041      8038      8042
      8036      8035      8041      8038      8037      8035      8041      8038
      8038      8042      8043      8044      8038      8042      8043      8045
      8038      8042      8043      8046      8039      8038      8042      8043
      8040      8038      8042      8043      8041      8038      8042      8043
      8042      8043      8046      8047      8042      8043      8046      8048
      8042      8043      8046      8054      8043      8046      8048      8049
      8043      8046      8054      8055      8043      8046      8054      8056
      8043      8046      8054      8057      8044      8043      8046      8047
      8044      8043      8046      8048      8044      8043      8046      8054
      8045      8043      8046      8047      8045      8043      8046      8048
      8045      8043      8046      8054      8046      8048      8049      8050
      8046      8048      8049      8051      8046      8054      8057      8058
      8047      8046      8048      8049      8047      8046      8054      8055
      8047      8046      8054      8056      8047      8046      8054      8057
      8048      8046      8054      8055      8048      8046      8054      8056
      8048      8046      8054      8057      8048      8049      8051      8052
      8048      8049      8051      8053      8048      8049      8051      8063
      8049      8048      8046      8054      8049      8051      8063      8064
      8049      8051      8063      8065      8049      8051      8063      8066
      8050      8049      8051      8052      8050      8049      8051      8053
      8050      8049      8051      8063      8051      8063      8066      8067
      8051      8063      8066      8068      8051      8063      8066      8069
      8052      8051      8063      8064      8052      8051      8063      8065
      8052      8051      8063      8066      8053      8051      8063      8064
      8053      8051      8063      8065      8053      8051      8063      8066
      8054      8057      8058      8059      8054      8057      8058      8060
      8055      8054      8057      8058      8056      8054      8057      8058
      8057      8058      8060      8061      8057      8058      8060      8062
      8057      8058      8060      8108      8058      8060      8108      8109
      8058      8060      8108      8110      8058      8060      8108      8111
      8059      8058      8060      8061      8059      8058      8060      8062
      8059      8058      8060      8108      8060      8108      8111      8112
      8060      8108      8111      8113      8060      8108      8111      8114
      8061      8060      8108      8109      8061      8060      8108      8110
      8061      8060      8108      8111      8062      8060      8108      8109
      8062      8060      8108      8110      8062      8060      8108      8111
      8063      8066      8069      8070      8063      8066      8069      8071
      8063      8066      8069      8072      8064      8063      8066      8067
      8064      8063      8066      8068      8064      8063      8066      8069
      8065      8063      8066      8067      8065      8063      8066      8068
      8065      8063      8066      8069      8066      8069      8072      8073
      8066      8069      8072      8074      8066      8069      8072      8075
      8067      8066      8069      8070      8067      8066      8069      8071
      8067      8066      8069      8072      8068      8066      8069      8070
      8068      8066      8069      8071      8068      8066      8069      8072
      8069      8072      8075      8076      8069      8072      8075      8077
      8069      8072      8075      8078      8070      8069      8072      8073
      8070      8069      8072      8074      8070      8069      8072      8075
      8071      8069      8072      8073      8071      8069      8072      8074
      8071      8069      8072      8075      8072      8075      8078      8079
      8072      8075      8078      8080      8072      8075      8078      8081
      8073      8072      8075      8076      8073      8072      8075      8077
      8073      8072      8075      8078      8074      8072      8075      8076
      8074      8072      8075      8077      8074      8072      8075      8078
      8075      8078      8081      8082      8075      8078      8081      8083
      8076      8075      8078      8079      8076      8075      8078      8080
      8076      8075      8078      8081      8077      8075      8078      8079
      8077      8075      8078      8080      8077      8075      8078      8081
      8078      8081      8083      8084      8078      8081      8083      8085
      8079      8078      8081      8082      8079      8078      8081      8083
      8080      8078      8081      8082      8080      8078      8081      8083
      8081      8083      8085      8086      8081      8083      8085      8087
      8081      8083      8085      8088      8082      8081      8083      8084
      8082      8081      8083      8085      8083      8085      8088      8089
      8083      8085      8088      8090      8084      8083      8085      8086
      8084      8083      8085      8087      8084      8083      8085      8088
      8085      8088      8090      8091      8085      8088      8090      8092
      8086      8085      8088      8089      8086      8085      8088      8090
      8087      8085      8088      8089      8087      8085      8088      8090
      8088      8090      8092      8093      8088      8090      8092      8094
      8088      8090      8092      8095      8089      8088      8090      8091
      8089      8088      8090      8092      8090      8092      8095      8096
      8090      8092      8095      8097      8090      8092      8095      8098
      8091      8090      8092      8093      8091      8090      8092      8094
      8091      8090      8092      8095      8092      8095      8098      8099
      8092      8095      8098      8100      8092      8095      8098      8101
      8093      8092      8095      8096      8093      8092      8095      8097
      8093      8092      8095      8098      8094      8092      8095      8096
      8094      8092      8095      8097      8094      8092      8095      8098
      8095      8098      8101      8102      8095      8098      8101      8103
      8095      8098      8101      8104      8096      8095      8098      8099
      8096      8095      8098      8100      8096      8095      8098      8101
      8097      8095      8098      8099      8097      8095      8098      8100
      8097      8095      8098      8101      8098      8101      8104      8105
      8098      8101      8104      8106      8098      8101      8104      8107
      8099      8098      8101      8102      8099      8098      8101      8103
      8099      8098      8101      8104      8100      8098      8101      8102
      8100      8098      8101      8103      8100      8098      8101      8104
      8102      8101      8104      8105      8102      8101      8104      8106
      8102      8101      8104      8107      8103      8101      8104      8105
      8103      8101      8104      8106      8103      8101      8104      8107
      8108      8111      8114      8115      8108      8111      8114      8116
      8108      8111      8114      8117      8109      8108      8111      8112
      8109      8108      8111      8113      8109      8108      8111      8114
      8110      8108      8111      8112      8110      8108      8111      8113
      8110      8108      8111      8114      8111      8114      8117      8118
      8111      8114      8117      8119      8111      8114      8117      8120
      8112      8111      8114      8115      8112      8111      8114      8116
      8112      8111      8114      8117      8113      8111      8114      8115
      8113      8111      8114      8116      8113      8111      8114      8117
      8114      8117      8120      8121      8114      8117      8120      8122
      8114      8117      8120      8123      8115      8114      8117      8118
      8115      8114      8117      8119      8115      8114      8117      8120
      8116      8114      8117      8118      8116      8114      8117      8119
      8116      8114      8117      8120      8117      8120      8123      8124
      8117      8120      8123      8125      8117      8120      8123      8126
      8118      8117      8120      8121      8118      8117      8120      8122
      8118      8117      8120      8123      8119      8117      8120      8121
      8119      8117      8120      8122      8119      8117      8120      8123
      8120      8123      8126      8127      8120      8123      8126      8128
      8120      8123      8126      8129      8121      8120      8123      8124
      8121      8120      8123      8125      8121      8120      8123      8126
      8122      8120      8123      8124      8122      8120      8123      8125
      8122      8120      8123      8126      8123      8126      8129      8130
      8123      8126      8129      8131      8123      8126      8129      8132
      8124      8123      8126      8127      8124      8123      8126      8128
      8124      8123      8126      8129      8125      8123      8126      8127
      8125      8123      8126      8128      8125      8123      8126      8129
      8126      8129      8132      8133      8126      8129      8132      8134
      8126      8129      8132      8135      8127      8126      8129      8130
      8127      8126      8129      8131      8127      8126      8129      8132
      8128      8126      8129      8130      8128      8126      8129      8131
      8128      8126      8129      8132      8129      8132      8135      8136
      8129      8132      8135      8137      8129      8132      8135      8138
      8130      8129      8132      8133      8130      8129      8132      8134
      8130      8129      8132      8135      8131      8129      8132      8133
      8131      8129      8132      8134      8131      8129      8132      8135
      8132      8135      8138      8139      8132      8135      8138      8140
      8132      8135      8138      8141      8133      8132      8135      8136
      8133      8132      8135      8137      8133      8132      8135      8138
      8134      8132      8135      8136      8134      8132      8135      8137
      8134      8132      8135      8138      8135      8138      8141      8142
      8135      8138      8141      8143      8135      8138      8141      8144
      8136      8135      8138      8139      8136      8135      8138      8140
      8136      8135      8138      8141      8137      8135      8138      8139
      8137      8135      8138      8140      8137      8135      8138      8141
      8138      8141      8144      8145      8138      8141      8144      8146
      8138      8141      8144      8147      8139      8138      8141      8142
      8139      8138      8141      8143      8139      8138      8141      8144
      8140      8138      8141      8142      8140      8138      8141      8143
      8140      8138      8141      8144      8141      8144      8147      8148
      8141      8144      8147      8149      8141      8144      8147      8150
      8142      8141      8144      8145      8142      8141      8144      8146
      8142      8141      8144      8147      8143      8141      8144      8145
      8143      8141      8144      8146      8143      8141      8144      8147
      8144      8147      8150      8151      8144      8147      8150      8152
      8144      8147      8150      8153      8145      8144      8147      8148
      8145      8144      8147      8149      8145      8144      8147      8150
      8146      8144      8147      8148      8146      8144      8147      8149
      8146      8144      8147      8150      8147      8150      8153      8154
      8147      8150      8153      8155      8147      8150      8153      8156
      8148      8147      8150      8151      8148      8147      8150      8152
      8148      8147      8150      8153      8149      8147      8150      8151
      8149      8147      8150      8152      8149      8147      8150      8153
      8151      8150      8153      8154      8151      8150      8153      8155
      8151      8150      8153      8156      8152      8150      8153      8154
      8152      8150      8153      8155      8152      8150      8153      8156
      2891      2895      2897      2898      2891      2895      2897      2899
      2891      2895      2900      2901      2891      2895      2900      2902
      2891      2895      2900      2906      2892      2891      2895      2896
      2892      2891      2895      2897      2892      2891      2895      2900
      2893      2891      2895      2896      2893      2891      2895      2897
      2893      2891      2895      2900      2894      2891      2895      2896
      2894      2891      2895      2897      2894      2891      2895      2900
      2895      2900      2906      2903      2896      2895      2897      2898
      2896      2895      2897      2899      2896      2895      2900      2901
      2896      2895      2900      2902      2896      2895      2900      2906
      2897      2895      2900      2901      2897      2895      2900      2902
      2897      2895      2900      2906      2898      2897      2895      2900
      2899      2897      2895      2900      2900      2906      2903      2904
      2900      2906      2903      2905      2900      2906      2903      2907
      2901      2900      2906      2903      2902      2900      2906      2903
      2903      2907      2908      2909      2903      2907      2908      2910
      2903      2907      2908      2911      2904      2903      2907      2908
      2905      2903      2907      2908      2906      2903      2907      2908
      2907      2908      2911      2912      2907      2908      2911      2913
      2907      2908      2911      2919      2908      2911      2913      2914
      2908      2911      2919      2920      2908      2911      2919      2921
      2908      2911      2919      2922      2909      2908      2911      2912
      2909      2908      2911      2913      2909      2908      2911      2919
      2910      2908      2911      2912      2910      2908      2911      2913
      2910      2908      2911      2919      2911      2913      2914      2915
      2911      2913      2914      2916      2911      2919      2922      2923
      2912      2911      2913      2914      2912      2911      2919      2920
      2912      2911      2919      2921      2912      2911      2919      2922
      2913      2911      2919      2920      2913      2911      2919      2921
      2913      2911      2919      2922      2913      2914      2916      2917
      2913      2914      2916      2918      2913      2914      2916      2928
      2914      2913      2911      2919      2914      2916      2928      2929
      2914      2916      2928      2930      2914      2916      2928      2931
      2915      2914      2916      2917      2915      2914      2916      2918
      2915      2914      2916      2928      2916      2928      2931      2932
      2916      2928      2931      2933      2916      2928      2931      2934
      2917      2916      2928      2929      2917      2916      2928      2930
      2917      2916      2928      2931      2918      2916      2928      2929
      2918      2916      2928      2930      2918      2916      2928      2931
      2919      2922      2923      2924      2919      2922      2923      2925
      2920      2919      2922      2923      2921      2919      2922      2923
      2922      2923      2925      2926      2922      2923      2925      2927
      2922      2923      2925      2975      2923      2925      2975      2976
      2923      2925      2975      2977      2923      2925      2975      2978
      2924      2923      2925      2926      2924      2923      2925      2927
      2924      2923      2925      2975      2925      2975      2978      2979
      2925      2975      2978      2980      2925      2975      2978      2981
      2926      2925      2975      2976      2926      2925      2975      2977
      2926      2925      2975      2978      2927      2925      2975      2976
      2927      2925      2975      2977      2927      2925      2975      2978
      2928      2931      2934      2935      2928      2931      2934      2936
      2929      2928      2931      2932      2929      2928      2931      2933
      2929      2928      2931      2934      2930      2928      2931      2932
      2930      2928      2931      2933      2930      2928      2931      2934
      2931      2934      2936      2937      2931      2934      2936      2938
      2932      2931      2934      2935      2932      2931      2934      2936
      2933      2931      2934      2935      2933      2931      2934      2936
      2934      2936      2938      2939      2934      2936      2938      2940
      2934      2936      2938      2941      2935      2934      2936      2937
      2935      2934      2936      2938      2936      2938      2941      2942
      2936      2938      2941      2943      2937      2936      2938      2939
      2937      2936      2938      2940      2937      2936      2938      2941
      2938      2941      2943      2944      2938      2941      2943      2945
      2939      2938      2941      2942      2939      2938      2941      2943
      2940      2938      2941      2942      2940      2938      2941      2943
      2941      2943      2945      2946      2941      2943      2945      2947
      2941      2943      2945      2948      2942      2941      2943      2944
      2942      2941      2943      2945      2943      2945      2948      2949
      2943      2945      2948      2950      2944      2943      2945      2946
      2944      2943      2945      2947      2944      2943      2945      2948
      2945      2948      2950      2951      2945      2948      2950      2952
      2946      2945      2948      2949      2946      2945      2948      2950
      2947      2945      2948      2949      2947      2945      2948      2950
      2948      2950      2952      2953      2948      2950      2952      2954
      2948      2950      2952      2955      2949      2948      2950      2951
      2949      2948      2950      2952      2950      2952      2955      2956
      2950      2952      2955      2957      2951      2950      2952      2953
      2951      2950      2952      2954      2951      2950      2952      2955
      2952      2955      2957      2958      2952      2955      2957      2959
      2953      2952      2955      2956      2953      2952      2955      2957
      2954      2952      2955      2956      2954      2952      2955      2957
      2955      2957      2959      2960      2955      2957      2959      2961
      2955      2957      2959      2962      2956      2955      2957      2958
      2956      2955      2957      2959      2957      2959      2962      2963
      2957      2959      2962      2964      2957      2959      2962      2965
      2958      2957      2959      2960      2958      2957      2959      2961
      2958      2957      2959      2962      2959      2962      2965      2966
      2959      2962      2965      2967      2959      2962      2965      2968
      2960      2959      2962      2963      2960      2959      2962      2964
      2960      2959      2962      2965      2961      2959      2962      2963
      2961      2959      2962      2964      2961      2959      2962      2965
      2962      2965      2968      2969      2962      2965      2968      2970
      2962      2965      2968      2971      2963      2962      2965      2966
      2963      2962      2965      2967      2963      2962      2965      2968
      2964      2962      2965      2966      2964      2962      2965      2967
      2964      2962      2965      2968      2965      2968      2971      2972
      2965      2968      2971      2973      2965      2968      2971      2974
      2966      2965      2968      2969      2966      2965      2968      2970
      2966      2965      2968      2971      2967      2965      2968      2969
      2967      2965      2968      2970      2967      2965      2968      2971
      2969      2968      2971      2972      2969      2968      2971      2973
      2969      2968      2971      2974      2970      2968      2971      2972
      2970      2968      2971      2973      2970      2968      2971      2974
      2975      2978      2981      2982      2975      2978      2981      2983
      2975      2978      2981      2984      2976      2975      2978      2979
      2976      2975      2978      2980      2976      2975      2978      2981
      2977      2975      2978      2979      2977      2975      2978      2980
      2977      2975      2978      2981      2978      2981      2984      2985
      2978      2981      2984      2986      2978      2981      2984      2987
      2979      2978      2981      2982      2979      2978      2981      2983
      2979      2978      2981      2984      2980      2978      2981      2982
      2980      2978      2981      2983      2980      2978      2981      2984
      2981      2984      2987      2988      2981      2984      2987      2989
      2981      2984      2987      2990      2982      2981      2984      2985
      2982      2981      2984      2986      2982      2981      2984      2987
      2983      2981      2984      2985      2983      2981      2984      2986
      2983      2981      2984      2987      2984      2987      2990      2991
      2984      2987      2990      2992      2984      2987      2990      2993
      2985      2984      2987      2988      2985      2984      2987      2989
      2985      2984      2987      2990      2986      2984      2987      2988
      2986      2984      2987      2989      2986      2984      2987      2990
      2987      2990      2993      2994      2987      2990      2993      2995
      2987      2990      2993      2996      2988      2987      2990      2991
      2988      2987      2990      2992      2988      2987      2990      2993
      2989      2987      2990      2991      2989      2987      2990      2992
      2989      2987      2990      2993      2990      2993      2996      2997
      2990      2993      2996      2998      2990      2993      2996      2999
      2991      2990      2993      2994      2991      2990      2993      2995
      2991      2990      2993      2996      2992      2990      2993      2994
      2992      2990      2993      2995      2992      2990      2993      2996
      2993      2996      2999      3000      2993      2996      2999      3001
      2993      2996      2999      3002      2994      2993      2996      2997
      2994      2993      2996      2998      2994      2993      2996      2999
      2995      2993      2996      2997      2995      2993      2996      2998
      2995      2993      2996      2999      2996      2999      3002      3003
      2996      2999      3002      3004      2996      2999      3002      3005
      2997      2996      2999      3000      2997      2996      2999      3001
      2997      2996      2999      3002      2998      2996      2999      3000
      2998      2996      2999      3001      2998      2996      2999      3002
      2999      3002      3005      3006      2999      3002      3005      3007
      2999      3002      3005      3008      3000      2999      3002      3003
      3000      2999      3002      3004      3000      2999      3002      3005
      3001      2999      3002      3003      3001      2999      3002      3004
      3001      2999      3002      3005      3002      3005      3008      3009
      3002      3005      3008      3010      3002      3005      3008      3011
      3003      3002      3005      3006      3003      3002      3005      3007
      3003      3002      3005      3008      3004      3002      3005      3006
      3004      3002      3005      3007      3004      3002      3005      3008
      3005      3008      3011      3012      3005      3008      3011      3013
      3005      3008      3011      3014      3006      3005      3008      3009
      3006      3005      3008      3010      3006      3005      3008      3011
      3007      3005      3008      3009      3007      3005      3008      3010
      3007      3005      3008      3011      3008      3011      3014      3015
      3008      3011      3014      3016      3008      3011      3014      3017
      3009      3008      3011      3012      3009      3008      3011      3013
      3009      3008      3011      3014      3010      3008      3011      3012
      3010      3008      3011      3013      3010      3008      3011      3014
      3011      3014      3017      3018      3011      3014      3017      3019
      3011      3014      3017      3020      3012      3011      3014      3015
      3012      3011      3014      3016      3012      3011      3014      3017
      3013      3011      3014      3015      3013      3011      3014      3016
      3013      3011      3014      3017      3014      3017      3020      3021
      3014      3017      3020      3022      3014      3017      3020      3023
      3015      3014      3017      3018      3015      3014      3017      3019
      3015      3014      3017      3020      3016      3014      3017      3018
      3016      3014      3017      3019      3016      3014      3017      3020
      3018      3017      3020      3021      3018      3017      3020      3022
      3018      3017      3020      3023      3019      3017      3020      3021
      3019      3017      3020      3022      3019      3017      3020      3023
      3024      3028      3030      3031      3024      3028      3030      3032
      3024      3028      3033      3034      3024      3028      3033      3035
      3024      3028      3033      3039      3025      3024      3028      3029
      3025      3024      3028      3030      3025      3024      3028      3033
      3026      3024      3028      3029      3026      3024      3028      3030
      3026      3024      3028      3033      3027      3024      3028      3029
      3027      3024      3028      3030      3027      3024      3028      3033
      3028      3033      3039      3036      3029      3028      3030      3031
      3029      3028      3030      3032      3029      3028      3033      3034
      3029      3028      3033      3035      3029      3028      3033      3039
      3030      3028      3033      3034      3030      3028      3033      3035
      3030      3028      3033      3039      3031      3030      3028      3033
      3032      3030      3028      3033      3033      3039      3036      3037
      3033      3039      3036      3038      3033      3039      3036      3040
      3034      3033      3039      3036      3035      3033      3039      3036
      3036      3040      3041      3042      3036      3040      3041      3043
      3036      3040      3041      3044      3037      3036      3040      3041
      3038      3036      3040      3041      3039      3036      3040      3041
      3040      3041      3044      3045      3040      3041      3044      3046
      3040      3041      3044      3052      3041      3044      3046      3047
      3041      3044      3052      3053      3041      3044      3052      3054
      3041      3044      3052      3055      3042      3041      3044      3045
      3042      3041      3044      3046      3042      3041      3044      3052
      3043      3041      3044      3045      3043      3041      3044      3046
      3043      3041      3044      3052      3044      3046      3047      3048
      3044      3046      3047      3049      3044      3052      3055      3056
      3045      3044      3046      3047      3045      3044      3052      3053
      3045      3044      3052      3054      3045      3044      3052      3055
      3046      3044      3052      3053      3046      3044      3052      3054
      3046      3044      3052      3055      3046      3047      3049      3050
      3046      3047      3049      3051      3046      3047      3049      3061
      3047      3046      3044      3052      3047      3049      3061      3062
      3047      3049      3061      3063      3047      3049      3061      3064
      3048      3047      3049      3050      3048      3047      3049      3051
      3048      3047      3049      3061      3049      3061      3064      3065
      3049      3061      3064      3066      3049      3061      3064      3067
      3050      3049      3061      3062      3050      3049      3061      3063
      3050      3049      3061      3064      3051      3049      3061      3062
      3051      3049      3061      3063      3051      3049      3061      3064
      3052      3055      3056      3057      3052      3055      3056      3058
      3053      3052      3055      3056      3054      3052      3055      3056
      3055      3056      3058      3059      3055      3056      3058      3060
      3055      3056      3058      3108      3056      3058      3108      3109
      3056      3058      3108      3110      3056      3058      3108      3111
      3057      3056      3058      3059      3057      3056      3058      3060
      3057      3056      3058      3108      3058      3108      3111      3112
      3058      3108      3111      3113      3058      3108      3111      3114
      3059      3058      3108      3109      3059      3058      3108      3110
      3059      3058      3108      3111      3060      3058      3108      3109
      3060      3058      3108      3110      3060      3058      3108      3111
      3061      3064      3067      3068      3061      3064      3067      3069
      3062      3061      3064      3065      3062      3061      3064      3066
      3062      3061      3064      3067      3063      3061      3064      3065
      3063      3061      3064      3066      3063      3061      3064      3067
      3064      3067      3069      3070      3064      3067      3069      3071
      3065      3064      3067      3068      3065      3064      3067      3069
      3066      3064      3067      3068      3066      3064      3067      3069
      3067      3069      3071      3072      3067      3069      3071      3073
      3067      3069      3071      3074      3068      3067      3069      3070
      3068      3067      3069      3071      3069      3071      3074      3075
      3069      3071      3074      3076      3070      3069      3071      3072
      3070      3069      3071      3073      3070      3069      3071      3074
      3071      3074      3076      3077      3071      3074      3076      3078
      3072      3071      3074      3075      3072      3071      3074      3076
      3073      3071      3074      3075      3073      3071      3074      3076
      3074      3076      3078      3079      3074      3076      3078      3080
      3074      3076      3078      3081      3075      3074      3076      3077
      3075      3074      3076      3078      3076      3078      3081      3082
      3076      3078      3081      3083      3077      3076      3078      3079
      3077      3076      3078      3080      3077      3076      3078      3081
      3078      3081      3083      3084      3078      3081      3083      3085
      3079      3078      3081      3082      3079      3078      3081      3083
      3080      3078      3081      3082      3080      3078      3081      3083
      3081      3083      3085      3086      3081      3083      3085      3087
      3081      3083      3085      3088      3082      3081      3083      3084
      3082      3081      3083      3085      3083      3085      3088      3089
      3083      3085      3088      3090      3084      3083      3085      3086
      3084      3083      3085      3087      3084      3083      3085      3088
      3085      3088      3090      3091      3085      3088      3090      3092
      3086      3085      3088      3089      3086      3085      3088      3090
      3087      3085      3088      3089      3087      3085      3088      3090
      3088      3090      3092      3093      3088      3090      3092      3094
      3088      3090      3092      3095      3089      3088      3090      3091
      3089      3088      3090      3092      3090      3092      3095      3096
      3090      3092      3095      3097      3090      3092      3095      3098
      3091      3090      3092      3093      3091      3090      3092      3094
      3091      3090      3092      3095      3092      3095      3098      3099
      3092      3095      3098      3100      3092      3095      3098      3101
      3093      3092      3095      3096      3093      3092      3095      3097
      3093      3092      3095      3098      3094      3092      3095      3096
      3094      3092      3095      3097      3094      3092      3095      3098
      3095      3098      3101      3102      3095      3098      3101      3103
      3095      3098      3101      3104      3096      3095      3098      3099
      3096      3095      3098      3100      3096      3095      3098      3101
      3097      3095      3098      3099      3097      3095      3098      3100
      3097      3095      3098      3101      3098      3101      3104      3105
      3098      3101      3104      3106      3098      3101      3104      3107
      3099      3098      3101      3102      3099      3098      3101      3103
      3099      3098      3101      3104      3100      3098      3101      3102
      3100      3098      3101      3103      3100      3098      3101      3104
      3102      3101      3104      3105      3102      3101      3104      3106
      3102      3101      3104      3107      3103      3101      3104      3105
      3103      3101      3104      3106      3103      3101      3104      3107
      3108      3111      3114      3115      3108      3111      3114      3116
      3108      3111      3114      3117      3109      3108      3111      3112
      3109      3108      3111      3113      3109      3108      3111      3114
      3110      3108      3111      3112      3110      3108      3111      3113
      3110      3108      3111      3114      3111      3114      3117      3118
      3111      3114      3117      3119      3111      3114      3117      3120
      3112      3111      3114      3115      3112      3111      3114      3116
      3112      3111      3114      3117      3113      3111      3114      3115
      3113      3111      3114      3116      3113      3111      3114      3117
      3114      3117      3120      3121      3114      3117      3120      3122
      3114      3117      3120      3123      3115      3114      3117      3118
      3115      3114      3117      3119      3115      3114      3117      3120
      3116      3114      3117      3118      3116      3114      3117      3119
      3116      3114      3117      3120      3117      3120      3123      3124
      3117      3120      3123      3125      3117      3120      3123      3126
      3118      3117      3120      3121      3118      3117      3120      3122
      3118      3117      3120      3123      3119      3117      3120      3121
      3119      3117      3120      3122      3119      3117      3120      3123
      3120      3123      3126      3127      3120      3123      3126      3128
      3120      3123      3126      3129      3121      3120      3123      3124
      3121      3120      3123      3125      3121      3120      3123      3126
      3122      3120      3123      3124      3122      3120      3123      3125
      3122      3120      3123      3126      3123      3126      3129      3130
      3123      3126      3129      3131      3123      3126      3129      3132
      3124      3123      3126      3127      3124      3123      3126      3128
      3124      3123      3126      3129      3125      3123      3126      3127
      3125      3123      3126      3128      3125      3123      3126      3129
      3126      3129      3132      3133      3126      3129      3132      3134
      3126      3129      3132      3135      3127      3126      3129      3130
      3127      3126      3129      3131      3127      3126      3129      3132
      3128      3126      3129      3130      3128      3126      3129      3131
      3128      3126      3129      3132      3129      3132      3135      3136
      3129      3132      3135      3137      3129      3132      3135      3138
      3130      3129      3132      3133      3130      3129      3132      3134
      3130      3129      3132      3135      3131      3129      3132      3133
      3131      3129      3132      3134      3131      3129      3132      3135
      3132      3135      3138      3139      3132      3135      3138      3140
      3132      3135      3138      3141      3133      3132      3135      3136
      3133      3132      3135      3137      3133      3132      3135      3138
      3134      3132      3135      3136      3134      3132      3135      3137
      3134      3132      3135      3138      3135      3138      3141      3142
      3135      3138      3141      3143      3135      3138      3141      3144
      3136      3135      3138      3139      3136      3135      3138      3140
      3136      3135      3138      3141      3137      3135      3138      3139
      3137      3135      3138      3140      3137      3135      3138      3141
      3138      3141      3144      3145      3138      3141      3144      3146
      3138      3141      3144      3147      3139      3138      3141      3142
      3139      3138      3141      3143      3139      3138      3141      3144
      3140      3138      3141      3142      3140      3138      3141      3143
      3140      3138      3141      3144      3141      3144      3147      3148
      3141      3144      3147      3149      3141      3144      3147      3150
      3142      3141      3144      3145      3142      3141      3144      3146
      3142      3141      3144      3147      3143      3141      3144      3145
      3143      3141      3144      3146      3143      3141      3144      3147
      3144      3147      3150      3151      3144      3147      3150      3152
      3144      3147      3150      3153      3145      3144      3147      3148
      3145      3144      3147      3149      3145      3144      3147      3150
      3146      3144      3147      3148      3146      3144      3147      3149
      3146      3144      3147      3150      3147      3150      3153      3154
      3147      3150      3153      3155      3147      3150      3153      3156
      3148      3147      3150      3151      3148      3147      3150      3152
      3148      3147      3150      3153      3149      3147      3150      3151
      3149      3147      3150      3152      3149      3147      3150      3153
      3151      3150      3153      3154      3151      3150      3153      3155
      3151      3150      3153      3156      3152      3150      3153      3154
      3152      3150      3153      3155      3152      3150      3153      3156
      9821      9822      9837      9838      9821      9822      9837      9839
      9821      9822      9837      9843      9822      9821      9825      9826
      9822      9821      9825      9827      9822      9821      9825      9828
      9822      9821      9829      9830      9822      9821      9829      9831
      9822      9821      9829      9832      9822      9821      9833      9834
      9822      9821      9833      9835      9822      9821      9833      9836
      9822      9837      9843      9840      9823      9822      9821      9825
      9823      9822      9821      9829      9823      9822      9821      9833
      9823      9822      9837      9838      9823      9822      9837      9839
      9823      9822      9837      9843      9824      9822      9821      9825
      9824      9822      9821      9829      9824      9822      9821      9833
      9824      9822      9837      9838      9824      9822      9837      9839
      9824      9822      9837      9843      9825      9821      9822      9837
      9825      9821      9829      9830      9825      9821      9829      9831
      9825      9821      9829      9832      9825      9821      9833      9834
      9825      9821      9833      9835      9825      9821      9833      9836
      9826      9825      9821      9829      9826      9825      9821      9833
      9827      9825      9821      9829      9827      9825      9821      9833
      9828      9825      9821      9829      9828      9825      9821      9833
      9829      9821      9822      9837      9829      9821      9833      9834
      9829      9821      9833      9835      9829      9821      9833      9836
      9830      9829      9821      9833      9831      9829      9821      9833
      9832      9829      9821      9833      9833      9821      9822      9837
      9837      9843      9840      9841      9837      9843      9840      9842
      9837      9843      9840      9844      9838      9837      9843      9840
      9839      9837      9843      9840      9840      9844      9845      9846
      9840      9844      9845      9847      9840      9844      9845      9848
      9841      9840      9844      9845      9842      9840      9844      9845
      9843      9840      9844      9845      9844      9845      9848      9849
      9844      9845      9848      9850      9844      9845      9848      9856
      9845      9848      9850      9851      9845      9848      9856      9857
      9845      9848      9856      9858      9845      9848      9856      9859
      9846      9845      9848      9849      9846      9845      9848      9850
      9846      9845      9848      9856      9847      9845      9848      9849
      9847      9845      9848      9850      9847      9845      9848      9856
      9848      9850      9851      9852      9848      9850      9851      9853
      9848      9856      9859      9860      9849      9848      9850      9851
      9849      9848      9856      9857      9849      9848      9856      9858
      9849      9848      9856      9859      9850      9848      9856      9857
      9850      9848      9856      9858      9850      9848      9856      9859
      9850      9851      9853      9854      9850      9851      9853      9855
      9850      9851      9853      9865      9851      9850      9848      9856
      9851      9853      9865      9866      9851      9853      9865      9867
      9851      9853      9865      9868      9852      9851      9853      9854
      9852      9851      9853      9855      9852      9851      9853      9865
      9853      9865      9868      9869      9853      9865      9868      9870
      9853      9865      9868      9871      9854      9853      9865      9866
      9854      9853      9865      9867      9854      9853      9865      9868
      9855      9853      9865      9866      9855      9853      9865      9867
      9855      9853      9865      9868      9856      9859      9860      9861
      9856      9859      9860      9862      9857      9856      9859      9860
      9858      9856      9859      9860      9859      9860      9862      9863
      9859      9860      9862      9864      9859      9860      9862      9912
      9860      9862      9912      9913      9860      9862      9912      9914
      9860      9862      9912      9915      9861      9860      9862      9863
      9861      9860      9862      9864      9861      9860      9862      9912
      9862      9912      9915      9916      9862      9912      9915      9917
      9862      9912      9915      9918      9863      9862      9912      9913
      9863      9862      9912      9914      9863      9862      9912      9915
      9864      9862      9912      9913      9864      9862      9912      9914
      9864      9862      9912      9915      9865      9868      9871      9872
      9865      9868      9871      9873      9865      9868      9871      9874
      9866      9865      9868      9869      9866      9865      9868      9870
      9866      9865      9868      9871      9867      9865      9868      9869
      9867      9865      9868      9870      9867      9865      9868      9871
      9868      9871      9874      9875      9868      9871      9874      9876
      9868      9871      9874      9877      9869      9868      9871      9872
      9869      9868      9871      9873      9869      9868      9871      9874
      9870      9868      9871      9872      9870      9868      9871      9873
      9870      9868      9871      9874      9871      9874      9877      9878
      9871      9874      9877      9879      9871      9874      9877      9880
      9872      9871      9874      9875      9872      9871      9874      9876
      9872      9871      9874      9877      9873      9871      9874      9875
      9873      9871      9874      9876      9873      9871      9874      9877
      9874      9877      9880      9881      9874      9877      9880      9882
      9874      9877      9880      9883      9875      9874      9877      9878
      9875      9874      9877      9879      9875      9874      9877      9880
      9876      9874      9877      9878      9876      9874      9877      9879
      9876      9874      9877      9880      9877      9880      9883      9884
      9877      9880      9883      9885      9878      9877      9880      9881
      9878      9877      9880      9882      9878      9877      9880      9883
      9879      9877      9880      9881      9879      9877      9880      9882
      9879      9877      9880      9883      9880      9883      9885      9886
      9880      9883      9885      9887      9881      9880      9883      9884
      9881      9880      9883      9885      9882      9880      9883      9884
      9882      9880      9883      9885      9883      9885      9887      9888
      9883      9885      9887      9889      9883      9885      9887      9890
      9884      9883      9885      9886      9884      9883      9885      9887
      9885      9887      9890      9891      9885      9887      9890      9892
      9885      9887      9890      9893      9886      9885      9887      9888
      9886      9885      9887      9889      9886      9885      9887      9890
      9887      9890      9893      9894      9887      9890      9893      9895
      9887      9890      9893      9896      9888      9887      9890      9891
      9888      9887      9890      9892      9888      9887      9890      9893
      9889      9887      9890      9891      9889      9887      9890      9892
      9889      9887      9890      9893      9890      9893      9896      9897
      9890      9893      9896      9898      9890      9893      9896      9899
      9891      9890      9893      9894      9891      9890      9893      9895
      9891      9890      9893      9896      9892      9890      9893      9894
      9892      9890      9893      9895      9892      9890      9893      9896
      9893      9896      9899      9900      9893      9896      9899      9901
      9893      9896      9899      9902      9894      9893      9896      9897
      9894      9893      9896      9898      9894      9893      9896      9899
      9895      9893      9896      9897      9895      9893      9896      9898
      9895      9893      9896      9899      9896      9899      9902      9903
      9896      9899      9902      9904      9896      9899      9902      9905
      9897      9896      9899      9900      9897      9896      9899      9901
      9897      9896      9899      9902      9898      9896      9899      9900
      9898      9896      9899      9901      9898      9896      9899      9902
      9899      9902      9905      9906      9899      9902      9905      9907
      9899      9902      9905      9908      9900      9899      9902      9903
      9900      9899      9902      9904      9900      9899      9902      9905
      9901      9899      9902      9903      9901      9899      9902      9904
      9901      9899      9902      9905      9902      9905      9908      9909
      9902      9905      9908      9910      9902      9905      9908      9911
      9903      9902      9905      9906      9903      9902      9905      9907
      9903      9902      9905      9908      9904      9902      9905      9906
      9904      9902      9905      9907      9904      9902      9905      9908
      9906      9905      9908      9909      9906      9905      9908      9910
      9906      9905      9908      9911      9907      9905      9908      9909
      9907      9905      9908      9910      9907      9905      9908      9911
      9912      9915      9918      9919      9912      9915      9918      9920
      9912      9915      9918      9921      9913      9912      9915      9916
      9913      9912      9915      9917      9913      9912      9915      9918
      9914      9912      9915      9916      9914      9912      9915      9917
      9914      9912      9915      9918      9915      9918      9921      9922
      9915      9918      9921      9923      9915      9918      9921      9924
      9916      9915      9918      9919      9916      9915      9918      9920
      9916      9915      9918      9921      9917      9915      9918      9919
      9917      9915      9918      9920      9917      9915      9918      9921
      9918      9921      9924      9925      9918      9921      9924      9926
      9918      9921      9924      9927      9919      9918      9921      9922
      9919      9918      9921      9923      9919      9918      9921      9924
      9920      9918      9921      9922      9920      9918      9921      9923
      9920      9918      9921      9924      9921      9924      9927      9928
      9921      9924      9927      9929      9921      9924      9927      9930
      9922      9921      9924      9925      9922      9921      9924      9926
      9922      9921      9924      9927      9923      9921      9924      9925
      9923      9921      9924      9926      9923      9921      9924      9927
      9924      9927      9930      9931      9924      9927      9930      9932
      9924      9927      9930      9933      9925      9924      9927      9928
      9925      9924      9927      9929      9925      9924      9927      9930
      9926      9924      9927      9928      9926      9924      9927      9929
      9926      9924      9927      9930      9927      9930      9933      9934
      9927      9930      9933      9935      9927      9930      9933      9936
      9928      9927      9930      9931      9928      9927      9930      9932
      9928      9927      9930      9933      9929      9927      9930      9931
      9929      9927      9930      9932      9929      9927      9930      9933
      9930      9933      9936      9937      9930      9933      9936      9938
      9930      9933      9936      9939      9931      9930      9933      9934
      9931      9930      9933      9935      9931      9930      9933      9936
      9932      9930      9933      9934      9932      9930      9933      9935
      9932      9930      9933      9936      9933      9936      9939      9940
      9933      9936      9939      9941      9933      9936      9939      9942
      9934      9933      9936      9937      9934      9933      9936      9938
      9934      9933      9936      9939      9935      9933      9936      9937
      9935      9933      9936      9938      9935      9933      9936      9939
      9936      9939      9942      9943      9936      9939      9942      9944
      9936      9939      9942      9945      9937      9936      9939      9940
      9937      9936      9939      9941      9937      9936      9939      9942
      9938      9936      9939      9940      9938      9936      9939      9941
      9938      9936      9939      9942      9939      9942      9945      9946
      9939      9942      9945      9947      9939      9942      9945      9948
      9940      9939      9942      9943      9940      9939      9942      9944
      9940      9939      9942      9945      9941      9939      9942      9943
      9941      9939      9942      9944      9941      9939      9942      9945
      9942      9945      9948      9949      9942      9945      9948      9950
      9942      9945      9948      9951      9943      9942      9945      9946
      9943      9942      9945      9947      9943      9942      9945      9948
      9944      9942      9945      9946      9944      9942      9945      9947
      9944      9942      9945      9948      9945      9948      9951      9952
      9945      9948      9951      9953      9945      9948      9951      9954
      9946      9945      9948      9949      9946      9945      9948      9950
      9946      9945      9948      9951      9947      9945      9948      9949
      9947      9945      9948      9950      9947      9945      9948      9951
      9949      9948      9951      9952      9949      9948      9951      9953
      9949      9948      9951      9954      9950      9948      9951      9952
      9950      9948      9951      9953      9950      9948      9951      9954
      2097      2110      2113      2114      2097      2110      2113      2115
      2097      2110      2113      2120      2098      2097      2102      2103
      2098      2097      2102      2104      2098      2097      2102      2105
      2098      2097      2106      2107      2098      2097      2106      2108
      2098      2097      2106      2109      2098      2097      2110      2111
      2098      2097      2110      2112      2098      2097      2110      2113
      2099      2098      2097      2102      2099      2098      2097      2106
      2099      2098      2097      2110      2100      2098      2097      2102
      2100      2098      2097      2106      2100      2098      2097      2110
      2101      2098      2097      2102      2101      2098      2097      2106
      2101      2098      2097      2110      2102      2097      2106      2107
      2102      2097      2106      2108      2102      2097      2106      2109
      2102      2097      2110      2111      2102      2097      2110      2112
      2102      2097      2110      2113      2103      2102      2097      2106
      2103      2102      2097      2110      2104      2102      2097      2106
      2104      2102      2097      2110      2105      2102      2097      2106
      2105      2102      2097      2110      2106      2097      2110      2111
      2106      2097      2110      2112      2106      2097      2110      2113
      2107      2106      2097      2110      2108      2106      2097      2110
      2109      2106      2097      2110      2110      2113      2120      2116
      2111      2110      2113      2114      2111      2110      2113      2115
      2111      2110      2113      2120      2112      2110      2113      2114
      2112      2110      2113      2115      2112      2110      2113      2120
      2113      2120      2116      2117      2113      2120      2116      2118
      2113      2120      2116      2119      2114      2113      2120      2116
      2115      2113      2120      2116      2116      2119      2121      2122
      2116      2119      2121      2123      2116      2119      2121      2126
      2117      2116      2119      2121      2118      2116      2119      2121
      2119      2121      2126      2124      2119      2121      2126      2127
      2119      2121      2126      2128      2120      2116      2119      2121
      2121      2126      2124      2125      2121      2126      2124      2176
      2121      2126      2128      2129      2121      2126      2128      2130
      2121      2126      2128      2132      2122      2121      2126      2124
      2122      2121      2126      2127      2122      2121      2126      2128
      2123      2121      2126      2124      2123      2121      2126      2127
      2123      2121      2126      2128      2124      2126      2128      2129
      2124      2126      2128      2130      2124      2126      2128      2132
      2124      2176      2178      2179      2124      2176      2178      2180
      2124      2176      2178      2181      2125      2124      2126      2127
      2125      2124      2126      2128      2125      2124      2176      2177
      2125      2124      2176      2178      2126      2124      2176      2177
      2126      2124      2176      2178      2126      2128      2130      2131
      2126      2128      2132      2133      2126      2128      2132      2134
      2127      2126      2124      2176      2127      2126      2128      2129
      2127      2126      2128      2130      2127      2126      2128      2132
      2128      2126      2124      2176      2128      2132      2134      2135
      2128      2132      2134      2136      2129      2128      2130      2131
      2129      2128      2132      2133      2129      2128      2132      2134
      2130      2128      2132      2133      2130      2128      2132      2134
      2131      2130      2128      2132      2132      2134      2136      2137
      2132      2134      2136      2138      2132      2134      2136      2139
      2133      2132      2134      2135      2133      2132      2134      2136
      2134      2136      2139      2140      2134      2136      2139      2141
      2134      2136      2139      2142      2135      2134      2136      2137
      2135      2134      2136      2138      2135      2134      2136      2139
      2136      2139      2142      2143      2136      2139      2142      2144
      2136      2139      2142      2145      2137      2136      2139      2140
      2137      2136      2139      2141      2137      2136      2139      2142
      2138      2136      2139      2140      2138      2136      2139      2141
      2138      2136      2139      2142      2139      2142      2145      2146
      2139      2142      2145      2147      2139      2142      2145      2148
      2140      2139      2142      2143      2140      2139      2142      2144
      2140      2139      2142      2145      2141      2139      2142      2143
      2141      2139      2142      2144      2141      2139      2142      2145
      2142      2145      2148      2149      2142      2145      2148      2150
      2142      2145      2148      2151      2143      2142      2145      2146
      2143      2142      2145      2147      2143      2142      2145      2148
      2144      2142      2145      2146      2144      2142      2145      2147
      2144      2142      2145      2148      2145      2148      2151      2152
      2145      2148      2151      2153      2145      2148      2151      2154
      2146      2145      2148      2149      2146      2145      2148      2150
      2146      2145      2148      2151      2147      2145      2148      2149
      2147      2145      2148      2150      2147      2145      2148      2151
      2148      2151      2154      2155      2148      2151      2154      2156
      2148      2151      2154      2157      2149      2148      2151      2152
      2149      2148      2151      2153      2149      2148      2151      2154
      2150      2148      2151      2152      2150      2148      2151      2153
      2150      2148      2151      2154      2151      2154      2157      2158
      2151      2154      2157      2159      2151      2154      2157      2160
      2152      2151      2154      2155      2152      2151      2154      2156
      2152      2151      2154      2157      2153      2151      2154      2155
      2153      2151      2154      2156      2153      2151      2154      2157
      2154      2157      2160      2161      2154      2157      2160      2162
      2154      2157      2160      2163      2155      2154      2157      2158
      2155      2154      2157      2159      2155      2154      2157      2160
      2156      2154      2157      2158      2156      2154      2157      2159
      2156      2154      2157      2160      2157      2160      2163      2164
      2157      2160      2163      2165      2157      2160      2163      2166
      2158      2157      2160      2161      2158      2157      2160      2162
      2158      2157      2160      2163      2159      2157      2160      2161
      2159      2157      2160      2162      2159      2157      2160      2163
      2160      2163      2166      2167      2160      2163      2166      2168
      2160      2163      2166      2169      2161      2160      2163      2164
      2161      2160      2163      2165      2161      2160      2163      2166
      2162      2160      2163      2164      2162      2160      2163      2165
      2162      2160      2163      2166      2163      2166      2169      2170
      2163      2166      2169      2171      2163      2166      2169      2172
      2164      2163      2166      2167      2164      2163      2166      2168
      2164      2163      2166      2169      2165      2163      2166      2167
      2165      2163      2166      2168      2165      2163      2166      2169
      2166      2169      2172      2173      2166      2169      2172      2174
      2166      2169      2172      2175      2167      2166      2169      2170
      2167      2166      2169      2171      2167      2166      2169      2172
      2168      2166      2169      2170      2168      2166      2169      2171
      2168      2166      2169      2172      2170      2169      2172      2173
      2170      2169      2172      2174      2170      2169      2172      2175
      2171      2169      2172      2173      2171      2169      2172      2174
      2171      2169      2172      2175      2176      2178      2181      2182
      2176      2178      2181      2183      2176      2178      2181      2184
      2177      2176      2178      2179      2177      2176      2178      2180
      2177      2176      2178      2181      2178      2181      2184      2185
      2178      2181      2184      2186      2178      2181      2184      2187
      2179      2178      2181      2182      2179      2178      2181      2183
      2179      2178      2181      2184      2180      2178      2181      2182
      2180      2178      2181      2183      2180      2178      2181      2184
      2181      2184      2187      2188      2181      2184      2187      2189
      2181      2184      2187      2190      2182      2181      2184      2185
      2182      2181      2184      2186      2182      2181      2184      2187
      2183      2181      2184      2185      2183      2181      2184      2186
      2183      2181      2184      2187      2184      2187      2190      2191
      2184      2187      2190      2192      2184      2187      2190      2193
      2185      2184      2187      2188      2185      2184      2187      2189
      2185      2184      2187      2190      2186      2184      2187      2188
      2186      2184      2187      2189      2186      2184      2187      2190
      2187      2190      2193      2194      2187      2190      2193      2195
      2187      2190      2193      2196      2188      2187      2190      2191
      2188      2187      2190      2192      2188      2187      2190      2193
      2189      2187      2190      2191      2189      2187      2190      2192
      2189      2187      2190      2193      2190      2193      2196      2197
      2190      2193      2196      2198      2190      2193      2196      2199
      2191      2190      2193      2194      2191      2190      2193      2195
      2191      2190      2193      2196      2192      2190      2193      2194
      2192      2190      2193      2195      2192      2190      2193      2196
      2193      2196      2199      2200      2193      2196      2199      2201
      2194      2193      2196      2197      2194      2193      2196      2198
      2194      2193      2196      2199      2195      2193      2196      2197
      2195      2193      2196      2198      2195      2193      2196      2199
      2196      2199      2201      2202      2196      2199      2201      2203
      2197      2196      2199      2200      2197      2196      2199      2201
      2198      2196      2199      2200      2198      2196      2199      2201
      2199      2201      2203      2204      2199      2201      2203      2205
      2199      2201      2203      2206      2200      2199      2201      2202
      2200      2199      2201      2203      2201      2203      2206      2207
      2201      2203      2206      2208      2201      2203      2206      2209
      2202      2201      2203      2204      2202      2201      2203      2205
      2202      2201      2203      2206      2203      2206      2209      2210
      2203      2206      2209      2211      2203      2206      2209      2212
      2204      2203      2206      2207      2204      2203      2206      2208
      2204      2203      2206      2209      2205      2203      2206      2207
      2205      2203      2206      2208      2205      2203      2206      2209
      2206      2209      2212      2213      2206      2209      2212      2214
      2206      2209      2212      2215      2207      2206      2209      2210
      2207      2206      2209      2211      2207      2206      2209      2212
      2208      2206      2209      2210      2208      2206      2209      2211
      2208      2206      2209      2212      2209      2212      2215      2216
      2209      2212      2215      2217      2209      2212      2215      2218
      2210      2209      2212      2213      2210      2209      2212      2214
      2210      2209      2212      2215      2211      2209      2212      2213
      2211      2209      2212      2214      2211      2209      2212      2215
      2212      2215      2218      2219      2212      2215      2218      2220
      2212      2215      2218      2221      2213      2212      2215      2216
      2213      2212      2215      2217      2213      2212      2215      2218
      2214      2212      2215      2216      2214      2212      2215      2217
      2214      2212      2215      2218      2215      2218      2221      2222
      2215      2218      2221      2223      2215      2218      2221      2224
      2216      2215      2218      2219      2216      2215      2218      2220
      2216      2215      2218      2221      2217      2215      2218      2219
      2217      2215      2218      2220      2217      2215      2218      2221
      2218      2221      2224      2225      2218      2221      2224      2226
      2218      2221      2224      2227      2219      2218      2221      2222
      2219      2218      2221      2223      2219      2218      2221      2224
      2220      2218      2221      2222      2220      2218      2221      2223
      2220      2218      2221      2224      2222      2221      2224      2225
      2222      2221      2224      2226      2222      2221      2224      2227
      2223      2221      2224      2225      2223      2221      2224      2226
      2223      2221      2224      2227      4864      4868      4871      4872
      4864      4868      4871      4873      4864      4868      4871      4877
      4865      4864      4868      4869      4865      4864      4868      4870
      4865      4864      4868      4871      4866      4864      4868      4869
      4866      4864      4868      4870      4866      4864      4868      4871
      4867      4864      4868      4869      4867      4864      4868      4870
      4867      4864      4868      4871      4868      4871      4877      4874
      4869      4868      4871      4872      4869      4868      4871      4873
      4869      4868      4871      4877      4870      4868      4871      4872
      4870      4868      4871      4873      4870      4868      4871      4877
      4871      4877      4874      4875      4871      4877      4874      4876
      4871      4877      4874      4878      4872      4871      4877      4874
      4873      4871      4877      4874      4874      4878      4879      4880
      4874      4878      4879      4881      4874      4878      4879      4882
      4875      4874      4878      4879      4876      4874      4878      4879
      4877      4874      4878      4879      4878      4879      4882      4883
      4878      4879      4882      4884      4878      4879      4882      4890
      4879      4882      4884      4885      4879      4882      4890      4891
      4879      4882      4890      4892      4879      4882      4890      4893
      4880      4879      4882      4883      4880      4879      4882      4884
      4880      4879      4882      4890      4881      4879      4882      4883
      4881      4879      4882      4884      4881      4879      4882      4890
      4882      4884      4885      4886      4882      4884      4885      4887
      4882      4890      4893      4894      4883      4882      4884      4885
      4883      4882      4890      4891      4883      4882      4890      4892
      4883      4882      4890      4893      4884      4882      4890      4891
      4884      4882      4890      4892      4884      4882      4890      4893
      4884      4885      4887      4888      4884      4885      4887      4889
      4884      4885      4887      4899      4885      4884      4882      4890
      4885      4887      4899      4900      4885      4887      4899      4901
      4885      4887      4899      4902      4886      4885      4887      4888
      4886      4885      4887      4889      4886      4885      4887      4899
      4887      4899      4902      4903      4887      4899      4902      4904
      4887      4899      4902      4905      4888      4887      4899      4900
      4888      4887      4899      4901      4888      4887      4899      4902
      4889      4887      4899      4900      4889      4887      4899      4901
      4889      4887      4899      4902      4890      4893      4894      4895
      4890      4893      4894      4896      4891      4890      4893      4894
      4892      4890      4893      4894      4893      4894      4896      4897
      4893      4894      4896      4898      4893      4894      4896      4946
      4894      4896      4946      4947      4894      4896      4946      4948
      4894      4896      4946      4949      4895      4894      4896      4897
      4895      4894      4896      4898      4895      4894      4896      4946
      4896      4946      4949      4950      4896      4946      4949      4951
      4896      4946      4949      4952      4897      4896      4946      4947
      4897      4896      4946      4948      4897      4896      4946      4949
      4898      4896      4946      4947      4898      4896      4946      4948
      4898      4896      4946      4949      4899      4902      4905      4906
      4899      4902      4905      4907      4900      4899      4902      4903
      4900      4899      4902      4904      4900      4899      4902      4905
      4901      4899      4902      4903      4901      4899      4902      4904
      4901      4899      4902      4905      4902      4905      4907      4908
      4902      4905      4907      4909      4903      4902      4905      4906
      4903      4902      4905      4907      4904      4902      4905      4906
      4904      4902      4905      4907      4905      4907      4909      4910
      4905      4907      4909      4911      4905      4907      4909      4912
      4906      4905      4907      4908      4906      4905      4907      4909
      4907      4909      4912      4913      4907      4909      4912      4914
      4908      4907      4909      4910      4908      4907      4909      4911
      4908      4907      4909      4912      4909      4912      4914      4915
      4909      4912      4914      4916      4910      4909      4912      4913
      4910      4909      4912      4914      4911      4909      4912      4913
      4911      4909      4912      4914      4912      4914      4916      4917
      4912      4914      4916      4918      4912      4914      4916      4919
      4913      4912      4914      4915      4913      4912      4914      4916
      4914      4916      4919      4920      4914      4916      4919      4921
      4915      4914      4916      4917      4915      4914      4916      4918
      4915      4914      4916      4919      4916      4919      4921      4922
      4916      4919      4921      4923      4917      4916      4919      4920
      4917      4916      4919      4921      4918      4916      4919      4920
      4918      4916      4919      4921      4919      4921      4923      4924
      4919      4921      4923      4925      4919      4921      4923      4926
      4920      4919      4921      4922      4920      4919      4921      4923
      4921      4923      4926      4927      4921      4923      4926      4928
      4922      4921      4923      4924      4922      4921      4923      4925
      4922      4921      4923      4926      4923      4926      4928      4929
      4923      4926      4928      4930      4924      4923      4926      4927
      4924      4923      4926      4928      4925      4923      4926      4927
      4925      4923      4926      4928      4926      4928      4930      4931
      4926      4928      4930      4932      4926      4928      4930      4933
      4927      4926      4928      4929      4927      4926      4928      4930
      4928      4930      4933      4934      4928      4930      4933      4935
      4928      4930      4933      4936      4929      4928      4930      4931
      4929      4928      4930      4932      4929      4928      4930      4933
      4930      4933      4936      4937      4930      4933      4936      4938
      4930      4933      4936      4939      4931      4930      4933      4934
      4931      4930      4933      4935      4931      4930      4933      4936
      4932      4930      4933      4934      4932      4930      4933      4935
      4932      4930      4933      4936      4933      4936      4939      4940
      4933      4936      4939      4941      4933      4936      4939      4942
      4934      4933      4936      4937      4934      4933      4936      4938
      4934      4933      4936      4939      4935      4933      4936      4937
      4935      4933      4936      4938      4935      4933      4936      4939
      4936      4939      4942      4943      4936      4939      4942      4944
      4936      4939      4942      4945      4937      4936      4939      4940
      4937      4936      4939      4941      4937      4936      4939      4942
      4938      4936      4939      4940      4938      4936      4939      4941
      4938      4936      4939      4942      4940      4939      4942      4943
      4940      4939      4942      4944      4940      4939      4942      4945
      4941      4939      4942      4943      4941      4939      4942      4944
      4941      4939      4942      4945      4946      4949      4952      4953
      4946      4949      4952      4954      4946      4949      4952      4955
      4947      4946      4949      4950      4947      4946      4949      4951
      4947      4946      4949      4952      4948      4946      4949      4950
      4948      4946      4949      4951      4948      4946      4949      4952
      4949      4952      4955      4956      4949      4952      4955      4957
      4949      4952      4955      4958      4950      4949      4952      4953
      4950      4949      4952      4954      4950      4949      4952      4955
      4951      4949      4952      4953      4951      4949      4952      4954
      4951      4949      4952      4955      4952      4955      4958      4959
      4952      4955      4958      4960      4952      4955      4958      4961
      4953      4952      4955      4956      4953      4952      4955      4957
      4953      4952      4955      4958      4954      4952      4955      4956
      4954      4952      4955      4957      4954      4952      4955      4958
      4955      4958      4961      4962      4955      4958      4961      4963
      4955      4958      4961      4964      4956      4955      4958      4959
      4956      4955      4958      4960      4956      4955      4958      4961
      4957      4955      4958      4959      4957      4955      4958      4960
      4957      4955      4958      4961      4958      4961      4964      4965
      4958      4961      4964      4966      4958      4961      4964      4967
      4959      4958      4961      4962      4959      4958      4961      4963
      4959      4958      4961      4964      4960      4958      4961      4962
      4960      4958      4961      4963      4960      4958      4961      4964
      4961      4964      4967      4968      4961      4964      4967      4969
      4961      4964      4967      4970      4962      4961      4964      4965
      4962      4961      4964      4966      4962      4961      4964      4967
      4963      4961      4964      4965      4963      4961      4964      4966
      4963      4961      4964      4967      4964      4967      4970      4971
      4964      4967      4970      4972      4964      4967      4970      4973
      4965      4964      4967      4968      4965      4964      4967      4969
      4965      4964      4967      4970      4966      4964      4967      4968
      4966      4964      4967      4969      4966      4964      4967      4970
      4967      4970      4973      4974      4967      4970      4973      4975
      4967      4970      4973      4976      4968      4967      4970      4971
      4968      4967      4970      4972      4968      4967      4970      4973
      4969      4967      4970      4971      4969      4967      4970      4972
      4969      4967      4970      4973      4970      4973      4976      4977
      4970      4973      4976      4978      4970      4973      4976      4979
      4971      4970      4973      4974      4971      4970      4973      4975
      4971      4970      4973      4976      4972      4970      4973      4974
      4972      4970      4973      4975      4972      4970      4973      4976
      4973      4976      4979      4980      4973      4976      4979      4981
      4973      4976      4979      4982      4974      4973      4976      4977
      4974      4973      4976      4978      4974      4973      4976      4979
      4975      4973      4976      4977      4975      4973      4976      4978
      4975      4973      4976      4979      4976      4979      4982      4983
      4976      4979      4982      4984      4976      4979      4982      4985
      4977      4976      4979      4980      4977      4976      4979      4981
      4977      4976      4979      4982      4978      4976      4979      4980
      4978      4976      4979      4981      4978      4976      4979      4982
      4979      4982      4985      4986      4979      4982      4985      4987
      4979      4982      4985      4988      4980      4979      4982      4983
      4980      4979      4982      4984      4980      4979      4982      4985
      4981      4979      4982      4983      4981      4979      4982      4984
      4981      4979      4982      4985      4982      4985      4988      4989
      4982      4985      4988      4990      4982      4985      4988      4991
      4983      4982      4985      4986      4983      4982      4985      4987
      4983      4982      4985      4988      4984      4982      4985      4986
      4984      4982      4985      4987      4984      4982      4985      4988
      4985      4988      4991      4992      4985      4988      4991      4993
      4985      4988      4991      4994      4986      4985      4988      4989
      4986      4985      4988      4990      4986      4985      4988      4991
      4987      4985      4988      4989      4987      4985      4988      4990
      4987      4985      4988      4991      4989      4988      4991      4992
      4989      4988      4991      4993      4989      4988      4991      4994
      4990      4988      4991      4992      4990      4988      4991      4993
      4990      4988      4991      4994      6811      6815      6818      6819
      6811      6815      6818      6849      6811      6857      6854      6849
      6811      6857      6854      6855      6811      6857      6854      6856
      6812      6811      6813      6814      6812      6811      6815      6816
      6812      6811      6815      6817      6812      6811      6815      6818
      6812      6811      6857      6854      6812      6811      6857      6858
      6812      6811      6857      6859      6813      6811      6815      6816
      6813      6811      6815      6817      6813      6811      6815      6818
      6813      6811      6857      6854      6813      6811      6857      6858
      6813      6811      6857      6859      6814      6813      6811      6815
      6814      6813      6811      6857      6815      6811      6857      6854
      6815      6811      6857      6858      6815      6811      6857      6859
      6815      6818      6819      6820      6815      6818      6819      6821
      6815      6818      6849      6847      6815      6818      6849      6850
      6815      6818      6849      6854      6816      6815      6811      6857
      6816      6815      6818      6819      6816      6815      6818      6849
      6817      6815      6811      6857      6817      6815      6818      6819
      6817      6815      6818      6849      6818      6815      6811      6857
      6818      6819      6821      6822      6818      6819      6821      6823
      6818      6819      6821      6824      6818      6849      6847      6824
      6818      6849      6847      6844      6818      6849      6847      6848
      6818      6849      6850      6851      6818      6849      6850      6852
      6818      6849      6850      6853      6818      6849      6854      6855
      6818      6849      6854      6856      6818      6849      6854      6857
      6819      6818      6849      6847      6819      6818      6849      6850
      6819      6818      6849      6854      6819      6821      6824      6825
      6819      6821      6824      6826      6819      6821      6824      6847
      6820      6819      6818      6849      6820      6819      6821      6822
      6820      6819      6821      6823      6820      6819      6821      6824
      6821      6819      6818      6849      6821      6824      6826      6827
      6821      6824      6826      6828      6821      6824      6826      6836
      6821      6824      6847      6844      6821      6824      6847      6848
      6821      6824      6847      6849      6822      6821      6824      6825
      6822      6821      6824      6826      6822      6821      6824      6847
      6823      6821      6824      6825      6823      6821      6824      6826
      6823      6821      6824      6847      6824      6826      6828      6829
      6824      6826      6828      6830      6824      6826      6828      6831
      6824      6826      6836      6834      6824      6826      6836      6837
      6824      6826      6836      6841      6824      6847      6844      6841
      6824      6847      6844      6845      6824      6847      6844      6846
      6824      6847      6849      6850      6824      6847      6849      6854
      6825      6824      6826      6827      6825      6824      6826      6828
      6825      6824      6826      6836      6825      6824      6847      6844
      6825      6824      6847      6848      6825      6824      6847      6849
      6826      6824      6847      6844      6826      6824      6847      6848
      6826      6824      6847      6849      6826      6828      6831      6832
      6826      6828      6831      6833      6826      6828      6831      6834
      6826      6836      6834      6831      6826      6836      6834      6835
      6826      6836      6834      6860      6826      6836      6837      6838
      6826      6836      6837      6839      6826      6836      6837      6840
      6826      6836      6841      6842      6826      6836      6841      6843
      6826      6836      6841      6844      6827      6826      6824      6847
      6827      6826      6828      6829      6827      6826      6828      6830
      6827      6826      6828      6831      6827      6826      6836      6834
      6827      6826      6836      6837      6827      6826      6836      6841
      6828      6826      6824      6847      6828      6826      6836      6834
      6828      6826      6836      6837      6828      6826      6836      6841
      6828      6831      6834      6835      6828      6831      6834      6836
      6828      6831      6834      6860      6829      6828      6826      6836
      6829      6828      6831      6832      6829      6828      6831      6833
      6829      6828      6831      6834      6830      6828      6826      6836
      6830      6828      6831      6832      6830      6828      6831      6833
      6830      6828      6831      6834      6831      6828      6826      6836
      6831      6834      6836      6837      6831      6834      6836      6841
      6831      6834      6860      6861      6831      6834      6860      6862
      6831      6834      6860      6866      6832      6831      6834      6835
      6832      6831      6834      6836      6832      6831      6834      6860
      6833      6831      6834      6835      6833      6831      6834      6836
      6833      6831      6834      6860      6834      6836      6837      6838
      6834      6836      6837      6839      6834      6836      6837      6840
      6834      6836      6841      6842      6834      6836      6841      6843
      6834      6836      6841      6844      6834      6860      6862      6863
      6834      6860      6862      6864      6834      6860      6862      6865
      6834      6860      6866      6867      6834      6860      6866      6868
      6834      6860      6866      6869      6835      6834      6836      6837
      6835      6834      6836      6841      6835      6834      6860      6861
      6835      6834      6860      6862      6835      6834      6860      6866
      6836      6826      6824      6847      6836      6834      6860      6861
      6836      6834      6860      6862      6836      6834      6860      6866
      6836      6841      6844      6845      6836      6841      6844      6846
      6836      6841      6844      6847      6837      6836      6834      6860
      6837      6836      6841      6842      6837      6836      6841      6843
      6837      6836      6841      6844      6838      6837      6836      6841
      6839      6837      6836      6841      6840      6837      6836      6841
      6841      6836      6834      6860      6841      6844      6847      6848
      6841      6844      6847      6849      6842      6841      6844      6845
      6842      6841      6844      6846      6842      6841      6844      6847
      6843      6841      6844      6845      6843      6841      6844      6846
      6843      6841      6844      6847      6844      6847      6849      6850
      6844      6847      6849      6854      6845      6844      6847      6848
      6845      6844      6847      6849      6846      6844      6847      6848
      6846      6844      6847      6849      6847      6849      6850      6851
      6847      6849      6850      6852      6847      6849      6850      6853
      6847      6849      6854      6855      6847      6849      6854      6856
      6847      6849      6854      6857      6848      6847      6849      6850
      6848      6847      6849      6854      6849      6854      6857      6858
      6849      6854      6857      6859      6850      6849      6854      6855
      6850      6849      6854      6856      6850      6849      6854      6857
      6851      6850      6849      6854      6852      6850      6849      6854
      6853      6850      6849      6854      6855      6854      6857      6858
      6855      6854      6857      6859      6856      6854      6857      6858
      6856      6854      6857      6859      6860      6866      6869      6870
      6860      6866      6869      6871      6860      6866      6869      6872
      6861      6860      6862      6863      6861      6860      6862      6864
      6861      6860      6862      6865      6861      6860      6866      6867
      6861      6860      6866      6868      6861      6860      6866      6869
      6862      6860      6866      6867      6862      6860      6866      6868
      6862      6860      6866      6869      6863      6862      6860      6866
      6864      6862      6860      6866      6865      6862      6860      6866
      6866      6869      6872      6873      6866      6869      6872      6874
      6866      6869      6872      6875      6867      6866      6869      6870
      6867      6866      6869      6871      6867      6866      6869      6872
      6868      6866      6869      6870      6868      6866      6869      6871
      6868      6866      6869      6872      6869      6872      6875      6876
      6869      6872      6875      6877      6869      6872      6875      6881
      6870      6869      6872      6873      6870      6869      6872      6874
      6870      6869      6872      6875      6871      6869      6872      6873
      6871      6869      6872      6874      6871      6869      6872      6875
      6872      6875      6877      6878      6872      6875      6877      6879
      6872      6875      6877      6880      6872      6875      6881      6882
      6872      6875      6881      6883      6872      6875      6881      6884
      6873      6872      6875      6876      6873      6872      6875      6877
      6873      6872      6875      6881      6874      6872      6875      6876
      6874      6872      6875      6877      6874      6872      6875      6881
      6876      6875      6877      6878      6876      6875      6877      6879
      6876      6875      6877      6880      6876      6875      6881      6882
      6876      6875      6881      6883      6876      6875      6881      6884
      6877      6875      6881      6882      6877      6875      6881      6883
      6877      6875      6881      6884      6878      6877      6875      6881
      6879      6877      6875      6881      6880      6877      6875      6881
      6885      6889      6892      6893      6885      6889      6892      6923
      6885      6931      6928      6923      6885      6931      6928      6929
      6885      6931      6928      6930      6886      6885      6887      6888
      6886      6885      6889      6890      6886      6885      6889      6891
      6886      6885      6889      6892      6886      6885      6931      6928
      6886      6885      6931      6932      6886      6885      6931      6933
      6887      6885      6889      6890      6887      6885      6889      6891
      6887      6885      6889      6892      6887      6885      6931      6928
      6887      6885      6931      6932      6887      6885      6931      6933
      6888      6887      6885      6889      6888      6887      6885      6931
      6889      6885      6931      6928      6889      6885      6931      6932
      6889      6885      6931      6933      6889      6892      6893      6894
      6889      6892      6893      6895      6889      6892      6923      6921
      6889      6892      6923      6924      6889      6892      6923      6928
      6890      6889      6885      6931      6890      6889      6892      6893
      6890      6889      6892      6923      6891      6889      6885      6931
      6891      6889      6892      6893      6891      6889      6892      6923
      6892      6889      6885      6931      6892      6893      6895      6896
      6892      6893      6895      6897      6892      6893      6895      6898
      6892      6923      6921      6898      6892      6923      6921      6918
      6892      6923      6921      6922      6892      6923      6924      6925
      6892      6923      6924      6926      6892      6923      6924      6927
      6892      6923      6928      6929      6892      6923      6928      6930
      6892      6923      6928      6931      6893      6892      6923      6921
      6893      6892      6923      6924      6893      6892      6923      6928
      6893      6895      6898      6899      6893      6895      6898      6900
      6893      6895      6898      6921      6894      6893      6892      6923
      6894      6893      6895      6896      6894      6893      6895      6897
      6894      6893      6895      6898      6895      6893      6892      6923
      6895      6898      6900      6901      6895      6898      6900      6902
      6895      6898      6900      6910      6895      6898      6921      6918
      6895      6898      6921      6922      6895      6898      6921      6923
      6896      6895      6898      6899      6896      6895      6898      6900
      6896      6895      6898      6921      6897      6895      6898      6899
      6897      6895      6898      6900      6897      6895      6898      6921
      6898      6900      6902      6903      6898      6900      6902      6904
      6898      6900      6902      6905      6898      6900      6910      6908
      6898      6900      6910      6911      6898      6900      6910      6915
      6898      6921      6918      6915      6898      6921      6918      6919
      6898      6921      6918      6920      6898      6921      6923      6924
      6898      6921      6923      6928      6899      6898      6900      6901
      6899      6898      6900      6902      6899      6898      6900      6910
      6899      6898      6921      6918      6899      6898      6921      6922
      6899      6898      6921      6923      6900      6898      6921      6918
      6900      6898      6921      6922      6900      6898      6921      6923
      6900      6902      6905      6906      6900      6902      6905      6907
      6900      6902      6905      6908      6900      6910      6908      6905
      6900      6910      6908      6909      6900      6910      6908      6934
      6900      6910      6911      6912      6900      6910      6911      6913
      6900      6910      6911      6914      6900      6910      6915      6916
      6900      6910      6915      6917      6900      6910      6915      6918
      6901      6900      6898      6921      6901      6900      6902      6903
      6901      6900      6902      6904      6901      6900      6902      6905
      6901      6900      6910      6908      6901      6900      6910      6911
      6901      6900      6910      6915      6902      6900      6898      6921
      6902      6900      6910      6908      6902      6900      6910      6911
      6902      6900      6910      6915      6902      6905      6908      6909
      6902      6905      6908      6910      6902      6905      6908      6934
      6903      6902      6900      6910      6903      6902      6905      6906
      6903      6902      6905      6907      6903      6902      6905      6908
      6904      6902      6900      6910      6904      6902      6905      6906
      6904      6902      6905      6907      6904      6902      6905      6908
      6905      6902      6900      6910      6905      6908      6910      6911
      6905      6908      6910      6915      6905      6908      6934      6935
      6905      6908      6934      6936      6905      6908      6934      6940
      6906      6905      6908      6909      6906      6905      6908      6910
      6906      6905      6908      6934      6907      6905      6908      6909
      6907      6905      6908      6910      6907      6905      6908      6934
      6908      6910      6911      6912      6908      6910      6911      6913
      6908      6910      6911      6914      6908      6910      6915      6916
      6908      6910      6915      6917      6908      6910      6915      6918
      6908      6934      6936      6937      6908      6934      6936      6938
      6908      6934      6936      6939      6908      6934      6940      6941
      6908      6934      6940      6942      6908      6934      6940      6943
      6909      6908      6910      6911      6909      6908      6910      6915
      6909      6908      6934      6935      6909      6908      6934      6936
      6909      6908      6934      6940      6910      6900      6898      6921
      6910      6908      6934      6935      6910      6908      6934      6936
      6910      6908      6934      6940      6910      6915      6918      6919
      6910      6915      6918      6920      6910      6915      6918      6921
      6911      6910      6908      6934      6911      6910      6915      6916
      6911      6910      6915      6917      6911      6910      6915      6918
      6912      6911      6910      6915      6913      6911      6910      6915
      6914      6911      6910      6915      6915      6910      6908      6934
      6915      6918      6921      6922      6915      6918      6921      6923
      6916      6915      6918      6919      6916      6915      6918      6920
      6916      6915      6918      6921      6917      6915      6918      6919
      6917      6915      6918      6920      6917      6915      6918      6921
      6918      6921      6923      6924      6918      6921      6923      6928
      6919      6918      6921      6922      6919      6918      6921      6923
      6920      6918      6921      6922      6920      6918      6921      6923
      6921      6923      6924      6925      6921      6923      6924      6926
      6921      6923      6924      6927      6921      6923      6928      6929
      6921      6923      6928      6930      6921      6923      6928      6931
      6922      6921      6923      6924      6922      6921      6923      6928
      6923      6928      6931      6932      6923      6928      6931      6933
      6924      6923      6928      6929      6924      6923      6928      6930
      6924      6923      6928      6931      6925      6924      6923      6928
      6926      6924      6923      6928      6927      6924      6923      6928
      6929      6928      6931      6932      6929      6928      6931      6933
      6930      6928      6931      6932      6930      6928      6931      6933
      6934      6940      6943      6944      6934      6940      6943      6945
      6934      6940      6943      6946      6935      6934      6936      6937
      6935      6934      6936      6938      6935      6934      6936      6939
      6935      6934      6940      6941      6935      6934      6940      6942
      6935      6934      6940      6943      6936      6934      6940      6941
      6936      6934      6940      6942      6936      6934      6940      6943
      6937      6936      6934      6940      6938      6936      6934      6940
      6939      6936      6934      6940      6940      6943      6946      6947
      6940      6943      6946      6948      6940      6943      6946      6949
      6941      6940      6943      6944      6941      6940      6943      6945
      6941      6940      6943      6946      6942      6940      6943      6944
      6942      6940      6943      6945      6942      6940      6943      6946
      6943      6946      6949      6950      6943      6946      6949      6951
      6943      6946      6949      6955      6944      6943      6946      6947
      6944      6943      6946      6948      6944      6943      6946      6949
      6945      6943      6946      6947      6945      6943      6946      6948
      6945      6943      6946      6949      6946      6949      6951      6952
      6946      6949      6951      6953      6946      6949      6951      6954
      6946      6949      6955      6956      6946      6949      6955      6957
      6946      6949      6955      6958      6947      6946      6949      6950
      6947      6946      6949      6951      6947      6946      6949      6955
      6948      6946      6949      6950      6948      6946      6949      6951
      6948      6946      6949      6955      6950      6949      6951      6952
      6950      6949      6951      6953      6950      6949      6951      6954
      6950      6949      6955      6956      6950      6949      6955      6957
      6950      6949      6955      6958      6951      6949      6955      6956
      6951      6949      6955      6957      6951      6949      6955      6958
      6952      6951      6949      6955      6953      6951      6949      6955
      6954      6951      6949      6955     11018     11022     11024     11025
     11018     11022     11026     11027     11018     11022     11026     11028
     11018     11022     11026     11030     11018     11038     11034     11030
     11018     11038     11034     11035     11018     11038     11034     11036
     11018     11038     11043     11040     11019     11018     11020     11021
     11019     11018     11022     11023     11019     11018     11022     11024
     11019     11018     11022     11026     11019     11018     11038     11034
     11019     11018     11038     11039     11019     11018     11038     11043
     11020     11018     11022     11023     11020     11018     11022     11024
     11020     11018     11022     11026     11020     11018     11038     11034
     11020     11018     11038     11039     11020     11018     11038     11043
     11021     11020     11018     11022     11021     11020     11018     11038
     11022     11018     11038     11034     11022     11018     11038     11039
     11022     11018     11038     11043     11022     11026     11028     11029
     11022     11026     11030     11031     11022     11026     11030     11032
     11022     11026     11030     11034     11023     11022     11018     11038
     11023     11022     11024     11025     11023     11022     11026     11027
     11023     11022     11026     11028     11023     11022     11026     11030
     11024     11022     11018     11038     11024     11022     11026     11027
     11024     11022     11026     11028     11024     11022     11026     11030
     11025     11024     11022     11026     11026     11022     11018     11038
     11026     11030     11032     11033     11026     11030     11034     11035
     11026     11030     11034     11036     11026     11030     11034     11038
     11027     11026     11028     11029     11027     11026     11030     11031
     11027     11026     11030     11032     11027     11026     11030     11034
     11028     11026     11030     11031     11028     11026     11030     11032
     11028     11026     11030     11034     11029     11028     11026     11030
     11030     11034     11036     11037     11030     11034     11038     11039
     11030     11034     11038     11043     11031     11030     11032     11033
     11031     11030     11034     11035     11031     11030     11034     11036
     11031     11030     11034     11038     11032     11030     11034     11035
     11032     11030     11034     11036     11032     11030     11034     11038
     11033     11032     11030     11034     11034     11038     11043     11040
     11035     11034     11036     11037     11035     11034     11038     11039
     11035     11034     11038     11043     11036     11034     11038     11039
     11036     11034     11038     11043     11037     11036     11034     11038
     11038     11043     11040     11041     11038     11043     11040     11042
     11038     11043     11040     11044     11039     11038     11043     11040
     11040     11044     11045     11046     11040     11044     11045     11047
     11040     11044     11045     11048     11041     11040     11044     11045
     11042     11040     11044     11045     11043     11040     11044     11045
     11044     11045     11048     11049     11044     11045     11048     11050
     11044     11045     11048     11056     11045     11048     11050     11051
     11045     11048     11056     11057     11045     11048     11056     11058
     11045     11048     11056     11059     11046     11045     11048     11049
     11046     11045     11048     11050     11046     11045     11048     11056
     11047     11045     11048     11049     11047     11045     11048     11050
     11047     11045     11048     11056     11048     11050     11051     11052
     11048     11050     11051     11053     11048     11056     11059     11060
     11049     11048     11050     11051     11049     11048     11056     11057
     11049     11048     11056     11058     11049     11048     11056     11059
     11050     11048     11056     11057     11050     11048     11056     11058
     11050     11048     11056     11059     11050     11051     11053     11054
     11050     11051     11053     11055     11050     11051     11053     11065
     11051     11050     11048     11056     11051     11053     11065     11066
     11051     11053     11065     11067     11051     11053     11065     11068
     11052     11051     11053     11054     11052     11051     11053     11055
     11052     11051     11053     11065     11053     11065     11068     11069
     11053     11065     11068     11070     11053     11065     11068     11071
     11054     11053     11065     11066     11054     11053     11065     11067
     11054     11053     11065     11068     11055     11053     11065     11066
     11055     11053     11065     11067     11055     11053     11065     11068
     11056     11059     11060     11061     11056     11059     11060     11062
     11057     11056     11059     11060     11058     11056     11059     11060
     11059     11060     11062     11063     11059     11060     11062     11064
     11059     11060     11062     11112     11060     11062     11112     11113
     11060     11062     11112     11114     11060     11062     11112     11115
     11061     11060     11062     11063     11061     11060     11062     11064
     11061     11060     11062     11112     11062     11112     11115     11116
     11062     11112     11115     11117     11062     11112     11115     11118
     11063     11062     11112     11113     11063     11062     11112     11114
     11063     11062     11112     11115     11064     11062     11112     11113
     11064     11062     11112     11114     11064     11062     11112     11115
     11065     11068     11071     11072     11065     11068     11071     11073
     11066     11065     11068     11069     11066     11065     11068     11070
     11066     11065     11068     11071     11067     11065     11068     11069
     11067     11065     11068     11070     11067     11065     11068     11071
     11068     11071     11073     11074     11068     11071     11073     11075
     11069     11068     11071     11072     11069     11068     11071     11073
     11070     11068     11071     11072     11070     11068     11071     11073
     11071     11073     11075     11076     11071     11073     11075     11077
     11071     11073     11075     11078     11072     11071     11073     11074
     11072     11071     11073     11075     11073     11075     11078     11079
     11073     11075     11078     11080     11074     11073     11075     11076
     11074     11073     11075     11077     11074     11073     11075     11078
     11075     11078     11080     11081     11075     11078     11080     11082
     11076     11075     11078     11079     11076     11075     11078     11080
     11077     11075     11078     11079     11077     11075     11078     11080
     11078     11080     11082     11083     11078     11080     11082     11084
     11078     11080     11082     11085     11079     11078     11080     11081
     11079     11078     11080     11082     11080     11082     11085     11086
     11080     11082     11085     11087     11081     11080     11082     11083
     11081     11080     11082     11084     11081     11080     11082     11085
     11082     11085     11087     11088     11082     11085     11087     11089
     11083     11082     11085     11086     11083     11082     11085     11087
     11084     11082     11085     11086     11084     11082     11085     11087
     11085     11087     11089     11090     11085     11087     11089     11091
     11085     11087     11089     11092     11086     11085     11087     11088
     11086     11085     11087     11089     11087     11089     11092     11093
     11087     11089     11092     11094     11088     11087     11089     11090
     11088     11087     11089     11091     11088     11087     11089     11092
     11089     11092     11094     11095     11089     11092     11094     11096
     11090     11089     11092     11093     11090     11089     11092     11094
     11091     11089     11092     11093     11091     11089     11092     11094
     11092     11094     11096     11097     11092     11094     11096     11098
     11092     11094     11096     11099     11093     11092     11094     11095
     11093     11092     11094     11096     11094     11096     11099     11100
     11094     11096     11099     11101     11094     11096     11099     11102
     11095     11094     11096     11097     11095     11094     11096     11098
     11095     11094     11096     11099     11096     11099     11102     11103
     11096     11099     11102     11104     11096     11099     11102     11105
     11097     11096     11099     11100     11097     11096     11099     11101
     11097     11096     11099     11102     11098     11096     11099     11100
     11098     11096     11099     11101     11098     11096     11099     11102
     11099     11102     11105     11106     11099     11102     11105     11107
     11099     11102     11105     11108     11100     11099     11102     11103
     11100     11099     11102     11104     11100     11099     11102     11105
     11101     11099     11102     11103     11101     11099     11102     11104
     11101     11099     11102     11105     11102     11105     11108     11109
     11102     11105     11108     11110     11102     11105     11108     11111
     11103     11102     11105     11106     11103     11102     11105     11107
     11103     11102     11105     11108     11104     11102     11105     11106
     11104     11102     11105     11107     11104     11102     11105     11108
     11106     11105     11108     11109     11106     11105     11108     11110
     11106     11105     11108     11111     11107     11105     11108     11109
     11107     11105     11108     11110     11107     11105     11108     11111
     11112     11115     11118     11119     11112     11115     11118     11120
     11112     11115     11118     11121     11113     11112     11115     11116
     11113     11112     11115     11117     11113     11112     11115     11118
     11114     11112     11115     11116     11114     11112     11115     11117
     11114     11112     11115     11118     11115     11118     11121     11122
     11115     11118     11121     11123     11115     11118     11121     11124
     11116     11115     11118     11119     11116     11115     11118     11120
     11116     11115     11118     11121     11117     11115     11118     11119
     11117     11115     11118     11120     11117     11115     11118     11121
     11118     11121     11124     11125     11118     11121     11124     11126
     11118     11121     11124     11127     11119     11118     11121     11122
     11119     11118     11121     11123     11119     11118     11121     11124
     11120     11118     11121     11122     11120     11118     11121     11123
     11120     11118     11121     11124     11121     11124     11127     11128
     11121     11124     11127     11129     11121     11124     11127     11130
     11122     11121     11124     11125     11122     11121     11124     11126
     11122     11121     11124     11127     11123     11121     11124     11125
     11123     11121     11124     11126     11123     11121     11124     11127
     11124     11127     11130     11131     11124     11127     11130     11132
     11124     11127     11130     11133     11125     11124     11127     11128
     11125     11124     11127     11129     11125     11124     11127     11130
     11126     11124     11127     11128     11126     11124     11127     11129
     11126     11124     11127     11130     11127     11130     11133     11134
     11127     11130     11133     11135     11127     11130     11133     11136
     11128     11127     11130     11131     11128     11127     11130     11132
     11128     11127     11130     11133     11129     11127     11130     11131
     11129     11127     11130     11132     11129     11127     11130     11133
     11130     11133     11136     11137     11130     11133     11136     11138
     11130     11133     11136     11139     11131     11130     11133     11134
     11131     11130     11133     11135     11131     11130     11133     11136
     11132     11130     11133     11134     11132     11130     11133     11135
     11132     11130     11133     11136     11133     11136     11139     11140
     11133     11136     11139     11141     11133     11136     11139     11142
     11134     11133     11136     11137     11134     11133     11136     11138
     11134     11133     11136     11139     11135     11133     11136     11137
     11135     11133     11136     11138     11135     11133     11136     11139
     11136     11139     11142     11143     11136     11139     11142     11144
     11136     11139     11142     11145     11137     11136     11139     11140
     11137     11136     11139     11141     11137     11136     11139     11142
     11138     11136     11139     11140     11138     11136     11139     11141
     11138     11136     11139     11142     11139     11142     11145     11146
     11139     11142     11145     11147     11139     11142     11145     11148
     11140     11139     11142     11143     11140     11139     11142     11144
     11140     11139     11142     11145     11141     11139     11142     11143
     11141     11139     11142     11144     11141     11139     11142     11145
     11142     11145     11148     11149     11142     11145     11148     11150
     11142     11145     11148     11151     11143     11142     11145     11146
     11143     11142     11145     11147     11143     11142     11145     11148
     11144     11142     11145     11146     11144     11142     11145     11147
     11144     11142     11145     11148     11145     11148     11151     11152
     11145     11148     11151     11153     11145     11148     11151     11154
     11146     11145     11148     11149     11146     11145     11148     11150
     11146     11145     11148     11151     11147     11145     11148     11149
     11147     11145     11148     11150     11147     11145     11148     11151
     11148     11151     11154     11155     11148     11151     11154     11156
     11148     11151     11154     11157     11149     11148     11151     11152
     11149     11148     11151     11153     11149     11148     11151     11154
     11150     11148     11151     11152     11150     11148     11151     11153
     11150     11148     11151     11154     11151     11154     11157     11158
     11151     11154     11157     11159     11151     11154     11157     11160
     11152     11151     11154     11155     11152     11151     11154     11156
     11152     11151     11154     11157     11153     11151     11154     11155
     11153     11151     11154     11156     11153     11151     11154     11157
     11155     11154     11157     11158     11155     11154     11157     11159
     11155     11154     11157     11160     11156     11154     11157     11158
     11156     11154     11157     11159     11156     11154     11157     11160
      6959      6963      6966      6967      6959      6963      6966      6997
      6959      7005      7002      6997      6959      7005      7002      7003
      6959      7005      7002      7004      6960      6959      6961      6962
      6960      6959      6963      6964      6960      6959      6963      6965
      6960      6959      6963      6966      6960      6959      7005      7002
      6960      6959      7005      7006      6960      6959      7005      7007
      6961      6959      6963      6964      6961      6959      6963      6965
      6961      6959      6963      6966      6961      6959      7005      7002
      6961      6959      7005      7006      6961      6959      7005      7007
      6962      6961      6959      6963      6962      6961      6959      7005
      6963      6959      7005      7002      6963      6959      7005      7006
      6963      6959      7005      7007      6963      6966      6967      6968
      6963      6966      6967      6969      6963      6966      6997      6995
      6963      6966      6997      6998      6963      6966      6997      7002
      6964      6963      6959      7005      6964      6963      6966      6967
      6964      6963      6966      6997      6965      6963      6959      7005
      6965      6963      6966      6967      6965      6963      6966      6997
      6966      6963      6959      7005      6966      6967      6969      6970
      6966      6967      6969      6971      6966      6967      6969      6972
      6966      6997      6995      6972      6966      6997      6995      6992
      6966      6997      6995      6996      6966      6997      6998      6999
      6966      6997      6998      7000      6966      6997      6998      7001
      6966      6997      7002      7003      6966      6997      7002      7004
      6966      6997      7002      7005      6967      6966      6997      6995
      6967      6966      6997      6998      6967      6966      6997      7002
      6967      6969      6972      6973      6967      6969      6972      6974
      6967      6969      6972      6995      6968      6967      6966      6997
      6968      6967      6969      6970      6968      6967      6969      6971
      6968      6967      6969      6972      6969      6967      6966      6997
      6969      6972      6974      6975      6969      6972      6974      6976
      6969      6972      6974      6984      6969      6972      6995      6992
      6969      6972      6995      6996      6969      6972      6995      6997
      6970      6969      6972      6973      6970      6969      6972      6974
      6970      6969      6972      6995      6971      6969      6972      6973
      6971      6969      6972      6974      6971      6969      6972      6995
      6972      6974      6976      6977      6972      6974      6976      6978
      6972      6974      6976      6979      6972      6974      6984      6982
      6972      6974      6984      6985      6972      6974      6984      6989
      6972      6995      6992      6989      6972      6995      6992      6993
      6972      6995      6992      6994      6972      6995      6997      6998
      6972      6995      6997      7002      6973      6972      6974      6975
      6973      6972      6974      6976      6973      6972      6974      6984
      6973      6972      6995      6992      6973      6972      6995      6996
      6973      6972      6995      6997      6974      6972      6995      6992
      6974      6972      6995      6996      6974      6972      6995      6997
      6974      6976      6979      6980      6974      6976      6979      6981
      6974      6976      6979      6982      6974      6984      6982      6979
      6974      6984      6982      6983      6974      6984      6982      7008
      6974      6984      6985      6986      6974      6984      6985      6987
      6974      6984      6985      6988      6974      6984      6989      6990
      6974      6984      6989      6991      6974      6984      6989      6992
      6975      6974      6972      6995      6975      6974      6976      6977
      6975      6974      6976      6978      6975      6974      6976      6979
      6975      6974      6984      6982      6975      6974      6984      6985
      6975      6974      6984      6989      6976      6974      6972      6995
      6976      6974      6984      6982      6976      6974      6984      6985
      6976      6974      6984      6989      6976      6979      6982      6983
      6976      6979      6982      6984      6976      6979      6982      7008
      6977      6976      6974      6984      6977      6976      6979      6980
      6977      6976      6979      6981      6977      6976      6979      6982
      6978      6976      6974      6984      6978      6976      6979      6980
      6978      6976      6979      6981      6978      6976      6979      6982
      6979      6976      6974      6984      6979      6982      6984      6985
      6979      6982      6984      6989      6979      6982      7008      7009
      6979      6982      7008      7010      6979      6982      7008      7014
      6980      6979      6982      6983      6980      6979      6982      6984
      6980      6979      6982      7008      6981      6979      6982      6983
      6981      6979      6982      6984      6981      6979      6982      7008
      6982      6984      6985      6986      6982      6984      6985      6987
      6982      6984      6985      6988      6982      6984      6989      6990
      6982      6984      6989      6991      6982      6984      6989      6992
      6982      7008      7010      7011      6982      7008      7010      7012
      6982      7008      7010      7013      6982      7008      7014      7015
      6982      7008      7014      7016      6982      7008      7014      7017
      6983      6982      6984      6985      6983      6982      6984      6989
      6983      6982      7008      7009      6983      6982      7008      7010
      6983      6982      7008      7014      6984      6974      6972      6995
      6984      6982      7008      7009      6984      6982      7008      7010
      6984      6982      7008      7014      6984      6989      6992      6993
      6984      6989      6992      6994      6984      6989      6992      6995
      6985      6984      6982      7008      6985      6984      6989      6990
      6985      6984      6989      6991      6985      6984      6989      6992
      6986      6985      6984      6989      6987      6985      6984      6989
      6988      6985      6984      6989      6989      6984      6982      7008
      6989      6992      6995      6996      6989      6992      6995      6997
      6990      6989      6992      6993      6990      6989      6992      6994
      6990      6989      6992      6995      6991      6989      6992      6993
      6991      6989      6992      6994      6991      6989      6992      6995
      6992      6995      6997      6998      6992      6995      6997      7002
      6993      6992      6995      6996      6993      6992      6995      6997
      6994      6992      6995      6996      6994      6992      6995      6997
      6995      6997      6998      6999      6995      6997      6998      7000
      6995      6997      6998      7001      6995      6997      7002      7003
      6995      6997      7002      7004      6995      6997      7002      7005
      6996      6995      6997      6998      6996      6995      6997      7002
      6997      7002      7005      7006      6997      7002      7005      7007
      6998      6997      7002      7003      6998      6997      7002      7004
      6998      6997      7002      7005      6999      6998      6997      7002
      7000      6998      6997      7002      7001      6998      6997      7002
      7003      7002      7005      7006      7003      7002      7005      7007
      7004      7002      7005      7006      7004      7002      7005      7007
      7008      7014      7017      7018      7008      7014      7017      7019
      7008      7014      7017      7020      7009      7008      7010      7011
      7009      7008      7010      7012      7009      7008      7010      7013
      7009      7008      7014      7015      7009      7008      7014      7016
      7009      7008      7014      7017      7010      7008      7014      7015
      7010      7008      7014      7016      7010      7008      7014      7017
      7011      7010      7008      7014      7012      7010      7008      7014
      7013      7010      7008      7014      7014      7017      7020      7021
      7014      7017      7020      7022      7014      7017      7020      7023
      7015      7014      7017      7018      7015      7014      7017      7019
      7015      7014      7017      7020      7016      7014      7017      7018
      7016      7014      7017      7019      7016      7014      7017      7020
      7017      7020      7023      7024      7017      7020      7023      7025
      7017      7020      7023      7029      7018      7017      7020      7021
      7018      7017      7020      7022      7018      7017      7020      7023
      7019      7017      7020      7021      7019      7017      7020      7022
      7019      7017      7020      7023      7020      7023      7025      7026
      7020      7023      7025      7027      7020      7023      7025      7028
      7020      7023      7029      7030      7020      7023      7029      7031
      7020      7023      7029      7032      7021      7020      7023      7024
      7021      7020      7023      7025      7021      7020      7023      7029
      7022      7020      7023      7024      7022      7020      7023      7025
      7022      7020      7023      7029      7024      7023      7025      7026
      7024      7023      7025      7027      7024      7023      7025      7028
      7024      7023      7029      7030      7024      7023      7029      7031
      7024      7023      7029      7032      7025      7023      7029      7030
      7025      7023      7029      7031      7025      7023      7029      7032
      7026      7025      7023      7029      7027      7025      7023      7029
      7028      7025      7023      7029     10744     10748     10751     10752
     10744     10748     10751     10753     10744     10748     10751     10757
     10745     10744     10748     10749     10745     10744     10748     10750
     10745     10744     10748     10751     10746     10744     10748     10749
     10746     10744     10748     10750     10746     10744     10748     10751
     10747     10744     10748     10749     10747     10744     10748     10750
     10747     10744     10748     10751     10748     10751     10757     10754
     10749     10748     10751     10752     10749     10748     10751     10753
     10749     10748     10751     10757     10750     10748     10751     10752
     10750     10748     10751     10753     10750     10748     10751     10757
     10751     10757     10754     10755     10751     10757     10754     10756
     10751     10757     10754     10758     10752     10751     10757     10754
     10753     10751     10757     10754     10754     10758     10759     10760
     10754     10758     10759     10761     10754     10758     10759     10762
     10755     10754     10758     10759     10756     10754     10758     10759
     10757     10754     10758     10759     10758     10759     10762     10763
     10758     10759     10762     10764     10758     10759     10762     10770
     10759     10762     10764     10765     10759     10762     10770     10771
     10759     10762     10770     10772     10759     10762     10770     10773
     10760     10759     10762     10763     10760     10759     10762     10764
     10760     10759     10762     10770     10761     10759     10762     10763
     10761     10759     10762     10764     10761     10759     10762     10770
     10762     10764     10765     10766     10762     10764     10765     10767
     10762     10770     10773     10774     10763     10762     10764     10765
     10763     10762     10770     10771     10763     10762     10770     10772
     10763     10762     10770     10773     10764     10762     10770     10771
     10764     10762     10770     10772     10764     10762     10770     10773
     10764     10765     10767     10768     10764     10765     10767     10769
     10764     10765     10767     10779     10765     10764     10762     10770
     10765     10767     10779     10780     10765     10767     10779     10781
     10765     10767     10779     10782     10766     10765     10767     10768
     10766     10765     10767     10769     10766     10765     10767     10779
     10767     10779     10782     10783     10767     10779     10782     10784
     10767     10779     10782     10785     10768     10767     10779     10780
     10768     10767     10779     10781     10768     10767     10779     10782
     10769     10767     10779     10780     10769     10767     10779     10781
     10769     10767     10779     10782     10770     10773     10774     10775
     10770     10773     10774     10776     10771     10770     10773     10774
     10772     10770     10773     10774     10773     10774     10776     10777
     10773     10774     10776     10778     10773     10774     10776     10826
     10774     10776     10826     10827     10774     10776     10826     10828
     10774     10776     10826     10829     10775     10774     10776     10777
     10775     10774     10776     10778     10775     10774     10776     10826
     10776     10826     10829     10830     10776     10826     10829     10831
     10776     10826     10829     10832     10777     10776     10826     10827
     10777     10776     10826     10828     10777     10776     10826     10829
     10778     10776     10826     10827     10778     10776     10826     10828
     10778     10776     10826     10829     10779     10782     10785     10786
     10779     10782     10785     10787     10779     10782     10785     10788
     10780     10779     10782     10783     10780     10779     10782     10784
     10780     10779     10782     10785     10781     10779     10782     10783
     10781     10779     10782     10784     10781     10779     10782     10785
     10782     10785     10788     10789     10782     10785     10788     10790
     10782     10785     10788     10791     10783     10782     10785     10786
     10783     10782     10785     10787     10783     10782     10785     10788
     10784     10782     10785     10786     10784     10782     10785     10787
     10784     10782     10785     10788     10785     10788     10791     10792
     10785     10788     10791     10793     10785     10788     10791     10794
     10786     10785     10788     10789     10786     10785     10788     10790
     10786     10785     10788     10791     10787     10785     10788     10789
     10787     10785     10788     10790     10787     10785     10788     10791
     10788     10791     10794     10795     10788     10791     10794     10796
     10788     10791     10794     10797     10789     10788     10791     10792
     10789     10788     10791     10793     10789     10788     10791     10794
     10790     10788     10791     10792     10790     10788     10791     10793
     10790     10788     10791     10794     10791     10794     10797     10798
     10791     10794     10797     10799     10792     10791     10794     10795
     10792     10791     10794     10796     10792     10791     10794     10797
     10793     10791     10794     10795     10793     10791     10794     10796
     10793     10791     10794     10797     10794     10797     10799     10800
     10794     10797     10799     10801     10795     10794     10797     10798
     10795     10794     10797     10799     10796     10794     10797     10798
     10796     10794     10797     10799     10797     10799     10801     10802
     10797     10799     10801     10803     10797     10799     10801     10804
     10798     10797     10799     10800     10798     10797     10799     10801
     10799     10801     10804     10805     10799     10801     10804     10806
     10799     10801     10804     10807     10800     10799     10801     10802
     10800     10799     10801     10803     10800     10799     10801     10804
     10801     10804     10807     10808     10801     10804     10807     10809
     10801     10804     10807     10810     10802     10801     10804     10805
     10802     10801     10804     10806     10802     10801     10804     10807
     10803     10801     10804     10805     10803     10801     10804     10806
     10803     10801     10804     10807     10804     10807     10810     10811
     10804     10807     10810     10812     10804     10807     10810     10813
     10805     10804     10807     10808     10805     10804     10807     10809
     10805     10804     10807     10810     10806     10804     10807     10808
     10806     10804     10807     10809     10806     10804     10807     10810
     10807     10810     10813     10814     10807     10810     10813     10815
     10807     10810     10813     10816     10808     10807     10810     10811
     10808     10807     10810     10812     10808     10807     10810     10813
     10809     10807     10810     10811     10809     10807     10810     10812
     10809     10807     10810     10813     10810     10813     10816     10817
     10810     10813     10816     10818     10810     10813     10816     10819
     10811     10810     10813     10814     10811     10810     10813     10815
     10811     10810     10813     10816     10812     10810     10813     10814
     10812     10810     10813     10815     10812     10810     10813     10816
     10813     10816     10819     10820     10813     10816     10819     10821
     10813     10816     10819     10822     10814     10813     10816     10817
     10814     10813     10816     10818     10814     10813     10816     10819
     10815     10813     10816     10817     10815     10813     10816     10818
     10815     10813     10816     10819     10816     10819     10822     10823
     10816     10819     10822     10824     10816     10819     10822     10825
     10817     10816     10819     10820     10817     10816     10819     10821
     10817     10816     10819     10822     10818     10816     10819     10820
     10818     10816     10819     10821     10818     10816     10819     10822
     10820     10819     10822     10823     10820     10819     10822     10824
     10820     10819     10822     10825     10821     10819     10822     10823
     10821     10819     10822     10824     10821     10819     10822     10825
     10826     10829     10832     10833     10826     10829     10832     10834
     10826     10829     10832     10835     10827     10826     10829     10830
     10827     10826     10829     10831     10827     10826     10829     10832
     10828     10826     10829     10830     10828     10826     10829     10831
     10828     10826     10829     10832     10829     10832     10835     10836
     10829     10832     10835     10837     10829     10832     10835     10838
     10830     10829     10832     10833     10830     10829     10832     10834
     10830     10829     10832     10835     10831     10829     10832     10833
     10831     10829     10832     10834     10831     10829     10832     10835
     10832     10835     10838     10839     10832     10835     10838     10840
     10832     10835     10838     10841     10833     10832     10835     10836
     10833     10832     10835     10837     10833     10832     10835     10838
     10834     10832     10835     10836     10834     10832     10835     10837
     10834     10832     10835     10838     10835     10838     10841     10842
     10835     10838     10841     10843     10835     10838     10841     10844
     10836     10835     10838     10839     10836     10835     10838     10840
     10836     10835     10838     10841     10837     10835     10838     10839
     10837     10835     10838     10840     10837     10835     10838     10841
     10838     10841     10844     10845     10838     10841     10844     10846
     10838     10841     10844     10847     10839     10838     10841     10842
     10839     10838     10841     10843     10839     10838     10841     10844
     10840     10838     10841     10842     10840     10838     10841     10843
     10840     10838     10841     10844     10841     10844     10847     10848
     10841     10844     10847     10849     10841     10844     10847     10850
     10842     10841     10844     10845     10842     10841     10844     10846
     10842     10841     10844     10847     10843     10841     10844     10845
     10843     10841     10844     10846     10843     10841     10844     10847
     10844     10847     10850     10851     10844     10847     10850     10852
     10844     10847     10850     10853     10845     10844     10847     10848
     10845     10844     10847     10849     10845     10844     10847     10850
     10846     10844     10847     10848     10846     10844     10847     10849
     10846     10844     10847     10850     10847     10850     10853     10854
     10847     10850     10853     10855     10847     10850     10853     10856
     10848     10847     10850     10851     10848     10847     10850     10852
     10848     10847     10850     10853     10849     10847     10850     10851
     10849     10847     10850     10852     10849     10847     10850     10853
     10850     10853     10856     10857     10850     10853     10856     10858
     10850     10853     10856     10859     10851     10850     10853     10854
     10851     10850     10853     10855     10851     10850     10853     10856
     10852     10850     10853     10854     10852     10850     10853     10855
     10852     10850     10853     10856     10853     10856     10859     10860
     10853     10856     10859     10861     10853     10856     10859     10862
     10854     10853     10856     10857     10854     10853     10856     10858
     10854     10853     10856     10859     10855     10853     10856     10857
     10855     10853     10856     10858     10855     10853     10856     10859
     10856     10859     10862     10863     10856     10859     10862     10864
     10856     10859     10862     10865     10857     10856     10859     10860
     10857     10856     10859     10861     10857     10856     10859     10862
     10858     10856     10859     10860     10858     10856     10859     10861
     10858     10856     10859     10862     10859     10862     10865     10866
     10859     10862     10865     10867     10859     10862     10865     10868
     10860     10859     10862     10863     10860     10859     10862     10864
     10860     10859     10862     10865     10861     10859     10862     10863
     10861     10859     10862     10864     10861     10859     10862     10865
     10862     10865     10868     10869     10862     10865     10868     10870
     10862     10865     10868     10871     10863     10862     10865     10866
     10863     10862     10865     10867     10863     10862     10865     10868
     10864     10862     10865     10866     10864     10862     10865     10867
     10864     10862     10865     10868     10865     10868     10871     10872
     10865     10868     10871     10873     10865     10868     10871     10874
     10866     10865     10868     10869     10866     10865     10868     10870
     10866     10865     10868     10871     10867     10865     10868     10869
     10867     10865     10868     10870     10867     10865     10868     10871
     10869     10868     10871     10872     10869     10868     10871     10873
     10869     10868     10871     10874     10870     10868     10871     10872
     10870     10868     10871     10873     10870     10868     10871     10874
      2228      2241      2244      2245      2228      2241      2244      2246
      2228      2241      2244      2251      2229      2228      2233      2234
      2229      2228      2233      2235      2229      2228      2233      2236
      2229      2228      2237      2238      2229      2228      2237      2239
      2229      2228      2237      2240      2229      2228      2241      2242
      2229      2228      2241      2243      2229      2228      2241      2244
      2230      2229      2228      2233      2230      2229      2228      2237
      2230      2229      2228      2241      2231      2229      2228      2233
      2231      2229      2228      2237      2231      2229      2228      2241
      2232      2229      2228      2233      2232      2229      2228      2237
      2232      2229      2228      2241      2233      2228      2237      2238
      2233      2228      2237      2239      2233      2228      2237      2240
      2233      2228      2241      2242      2233      2228      2241      2243
      2233      2228      2241      2244      2234      2233      2228      2237
      2234      2233      2228      2241      2235      2233      2228      2237
      2235      2233      2228      2241      2236      2233      2228      2237
      2236      2233      2228      2241      2237      2228      2241      2242
      2237      2228      2241      2243      2237      2228      2241      2244
      2238      2237      2228      2241      2239      2237      2228      2241
      2240      2237      2228      2241      2241      2244      2251      2247
      2242      2241      2244      2245      2242      2241      2244      2246
      2242      2241      2244      2251      2243      2241      2244      2245
      2243      2241      2244      2246      2243      2241      2244      2251
      2244      2251      2247      2248      2244      2251      2247      2249
      2244      2251      2247      2250      2245      2244      2251      2247
      2246      2244      2251      2247      2247      2250      2252      2253
      2247      2250      2252      2254      2247      2250      2252      2257
      2248      2247      2250      2252      2249      2247      2250      2252
      2250      2252      2257      2255      2250      2252      2257      2258
      2250      2252      2257      2259      2251      2247      2250      2252
      2252      2257      2255      2256      2252      2257      2255      2307
      2252      2257      2259      2260      2252      2257      2259      2261
      2252      2257      2259      2263      2253      2252      2257      2255
      2253      2252      2257      2258      2253      2252      2257      2259
      2254      2252      2257      2255      2254      2252      2257      2258
      2254      2252      2257      2259      2255      2257      2259      2260
      2255      2257      2259      2261      2255      2257      2259      2263
      2255      2307      2309      2310      2255      2307      2309      2311
      2255      2307      2309      2312      2256      2255      2257      2258
      2256      2255      2257      2259      2256      2255      2307      2308
      2256      2255      2307      2309      2257      2255      2307      2308
      2257      2255      2307      2309      2257      2259      2261      2262
      2257      2259      2263      2264      2257      2259      2263      2265
      2258      2257      2255      2307      2258      2257      2259      2260
      2258      2257      2259      2261      2258      2257      2259      2263
      2259      2257      2255      2307      2259      2263      2265      2266
      2259      2263      2265      2267      2260      2259      2261      2262
      2260      2259      2263      2264      2260      2259      2263      2265
      2261      2259      2263      2264      2261      2259      2263      2265
      2262      2261      2259      2263      2263      2265      2267      2268
      2263      2265      2267      2269      2263      2265      2267      2270
      2264      2263      2265      2266      2264      2263      2265      2267
      2265      2267      2270      2271      2265      2267      2270      2272
      2265      2267      2270      2273      2266      2265      2267      2268
      2266      2265      2267      2269      2266      2265      2267      2270
      2267      2270      2273      2274      2267      2270      2273      2275
      2267      2270      2273      2276      2268      2267      2270      2271
      2268      2267      2270      2272      2268      2267      2270      2273
      2269      2267      2270      2271      2269      2267      2270      2272
      2269      2267      2270      2273      2270      2273      2276      2277
      2270      2273      2276      2278      2270      2273      2276      2279
      2271      2270      2273      2274      2271      2270      2273      2275
      2271      2270      2273      2276      2272      2270      2273      2274
      2272      2270      2273      2275      2272      2270      2273      2276
      2273      2276      2279      2280      2273      2276      2279      2281
      2273      2276      2279      2282      2274      2273      2276      2277
      2274      2273      2276      2278      2274      2273      2276      2279
      2275      2273      2276      2277      2275      2273      2276      2278
      2275      2273      2276      2279      2276      2279      2282      2283
      2276      2279      2282      2284      2276      2279      2282      2285
      2277      2276      2279      2280      2277      2276      2279      2281
      2277      2276      2279      2282      2278      2276      2279      2280
      2278      2276      2279      2281      2278      2276      2279      2282
      2279      2282      2285      2286      2279      2282      2285      2287
      2279      2282      2285      2288      2280      2279      2282      2283
      2280      2279      2282      2284      2280      2279      2282      2285
      2281      2279      2282      2283      2281      2279      2282      2284
      2281      2279      2282      2285      2282      2285      2288      2289
      2282      2285      2288      2290      2282      2285      2288      2291
      2283      2282      2285      2286      2283      2282      2285      2287
      2283      2282      2285      2288      2284      2282      2285      2286
      2284      2282      2285      2287      2284      2282      2285      2288
      2285      2288      2291      2292      2285      2288      2291      2293
      2285      2288      2291      2294      2286      2285      2288      2289
      2286      2285      2288      2290      2286      2285      2288      2291
      2287      2285      2288      2289      2287      2285      2288      2290
      2287      2285      2288      2291      2288      2291      2294      2295
      2288      2291      2294      2296      2288      2291      2294      2297
      2289      2288      2291      2292      2289      2288      2291      2293
      2289      2288      2291      2294      2290      2288      2291      2292
      2290      2288      2291      2293      2290      2288      2291      2294
      2291      2294      2297      2298      2291      2294      2297      2299
      2291      2294      2297      2300      2292      2291      2294      2295
      2292      2291      2294      2296      2292      2291      2294      2297
      2293      2291      2294      2295      2293      2291      2294      2296
      2293      2291      2294      2297      2294      2297      2300      2301
      2294      2297      2300      2302      2294      2297      2300      2303
      2295      2294      2297      2298      2295      2294      2297      2299
      2295      2294      2297      2300      2296      2294      2297      2298
      2296      2294      2297      2299      2296      2294      2297      2300
      2297      2300      2303      2304      2297      2300      2303      2305
      2297      2300      2303      2306      2298      2297      2300      2301
      2298      2297      2300      2302      2298      2297      2300      2303
      2299      2297      2300      2301      2299      2297      2300      2302
      2299      2297      2300      2303      2301      2300      2303      2304
      2301      2300      2303      2305      2301      2300      2303      2306
      2302      2300      2303      2304      2302      2300      2303      2305
      2302      2300      2303      2306      2307      2309      2312      2313
      2307      2309      2312      2314      2307      2309      2312      2315
      2308      2307      2309      2310      2308      2307      2309      2311
      2308      2307      2309      2312      2309      2312      2315      2316
      2309      2312      2315      2317      2309      2312      2315      2318
      2310      2309      2312      2313      2310      2309      2312      2314
      2310      2309      2312      2315      2311      2309      2312      2313
      2311      2309      2312      2314      2311      2309      2312      2315
      2312      2315      2318      2319      2312      2315      2318      2320
      2312      2315      2318      2321      2313      2312      2315      2316
      2313      2312      2315      2317      2313      2312      2315      2318
      2314      2312      2315      2316      2314      2312      2315      2317
      2314      2312      2315      2318      2315      2318      2321      2322
      2315      2318      2321      2323      2315      2318      2321      2324
      2316      2315      2318      2319      2316      2315      2318      2320
      2316      2315      2318      2321      2317      2315      2318      2319
      2317      2315      2318      2320      2317      2315      2318      2321
      2318      2321      2324      2325      2318      2321      2324      2326
      2318      2321      2324      2327      2319      2318      2321      2322
      2319      2318      2321      2323      2319      2318      2321      2324
      2320      2318      2321      2322      2320      2318      2321      2323
      2320      2318      2321      2324      2321      2324      2327      2328
      2321      2324      2327      2329      2321      2324      2327      2330
      2322      2321      2324      2325      2322      2321      2324      2326
      2322      2321      2324      2327      2323      2321      2324      2325
      2323      2321      2324      2326      2323      2321      2324      2327
      2324      2327      2330      2331      2324      2327      2330      2332
      2325      2324      2327      2328      2325      2324      2327      2329
      2325      2324      2327      2330      2326      2324      2327      2328
      2326      2324      2327      2329      2326      2324      2327      2330
      2327      2330      2332      2333      2327      2330      2332      2334
      2328      2327      2330      2331      2328      2327      2330      2332
      2329      2327      2330      2331      2329      2327      2330      2332
      2330      2332      2334      2335      2330      2332      2334      2336
      2330      2332      2334      2337      2331      2330      2332      2333
      2331      2330      2332      2334      2332      2334      2337      2338
      2332      2334      2337      2339      2332      2334      2337      2340
      2333      2332      2334      2335      2333      2332      2334      2336
      2333      2332      2334      2337      2334      2337      2340      2341
      2334      2337      2340      2342      2334      2337      2340      2343
      2335      2334      2337      2338      2335      2334      2337      2339
      2335      2334      2337      2340      2336      2334      2337      2338
      2336      2334      2337      2339      2336      2334      2337      2340
      2337      2340      2343      2344      2337      2340      2343      2345
      2337      2340      2343      2346      2338      2337      2340      2341
      2338      2337      2340      2342      2338      2337      2340      2343
      2339      2337      2340      2341      2339      2337      2340      2342
      2339      2337      2340      2343      2340      2343      2346      2347
      2340      2343      2346      2348      2340      2343      2346      2349
      2341      2340      2343      2344      2341      2340      2343      2345
      2341      2340      2343      2346      2342      2340      2343      2344
      2342      2340      2343      2345      2342      2340      2343      2346
      2343      2346      2349      2350      2343      2346      2349      2351
      2343      2346      2349      2352      2344      2343      2346      2347
      2344      2343      2346      2348      2344      2343      2346      2349
      2345      2343      2346      2347      2345      2343      2346      2348
      2345      2343      2346      2349      2346      2349      2352      2353
      2346      2349      2352      2354      2346      2349      2352      2355
      2347      2346      2349      2350      2347      2346      2349      2351
      2347      2346      2349      2352      2348      2346      2349      2350
      2348      2346      2349      2351      2348      2346      2349      2352
      2349      2352      2355      2356      2349      2352      2355      2357
      2349      2352      2355      2358      2350      2349      2352      2353
      2350      2349      2352      2354      2350      2349      2352      2355
      2351      2349      2352      2353      2351      2349      2352      2354
      2351      2349      2352      2355      2353      2352      2355      2356
      2353      2352      2355      2357      2353      2352      2355      2358
      2354      2352      2355      2356      2354      2352      2355      2357
      2354      2352      2355      2358      3157      3161      3163      3164
      3157      3161      3163      3165      3157      3161      3166      3167
      3157      3161      3166      3168      3157      3161      3166      3172
      3158      3157      3161      3162      3158      3157      3161      3163
      3158      3157      3161      3166      3159      3157      3161      3162
      3159      3157      3161      3163      3159      3157      3161      3166
      3160      3157      3161      3162      3160      3157      3161      3163
      3160      3157      3161      3166      3161      3166      3172      3169
      3162      3161      3163      3164      3162      3161      3163      3165
      3162      3161      3166      3167      3162      3161      3166      3168
      3162      3161      3166      3172      3163      3161      3166      3167
      3163      3161      3166      3168      3163      3161      3166      3172
      3164      3163      3161      3166      3165      3163      3161      3166
      3166      3172      3169      3170      3166      3172      3169      3171
      3166      3172      3169      3173      3167      3166      3172      3169
      3168      3166      3172      3169      3169      3173      3174      3175
      3169      3173      3174      3176      3169      3173      3174      3177
      3170      3169      3173      3174      3171      3169      3173      3174
      3172      3169      3173      3174      3173      3174      3177      3178
      3173      3174      3177      3179      3173      3174      3177      3185
      3174      3177      3179      3180      3174      3177      3185      3186
      3174      3177      3185      3187      3174      3177      3185      3188
      3175      3174      3177      3178      3175      3174      3177      3179
      3175      3174      3177      3185      3176      3174      3177      3178
      3176      3174      3177      3179      3176      3174      3177      3185
      3177      3179      3180      3181      3177      3179      3180      3182
      3177      3185      3188      3189      3178      3177      3179      3180
      3178      3177      3185      3186      3178      3177      3185      3187
      3178      3177      3185      3188      3179      3177      3185      3186
      3179      3177      3185      3187      3179      3177      3185      3188
      3179      3180      3182      3183      3179      3180      3182      3184
      3179      3180      3182      3194      3180      3179      3177      3185
      3180      3182      3194      3195      3180      3182      3194      3196
      3180      3182      3194      3197      3181      3180      3182      3183
      3181      3180      3182      3184      3181      3180      3182      3194
      3182      3194      3197      3198      3182      3194      3197      3199
      3182      3194      3197      3200      3183      3182      3194      3195
      3183      3182      3194      3196      3183      3182      3194      3197
      3184      3182      3194      3195      3184      3182      3194      3196
      3184      3182      3194      3197      3185      3188      3189      3190
      3185      3188      3189      3191      3186      3185      3188      3189
      3187      3185      3188      3189      3188      3189      3191      3192
      3188      3189      3191      3193      3188      3189      3191      3241
      3189      3191      3241      3242      3189      3191      3241      3243
      3189      3191      3241      3244      3190      3189      3191      3192
      3190      3189      3191      3193      3190      3189      3191      3241
      3191      3241      3244      3245      3191      3241      3244      3246
      3191      3241      3244      3247      3192      3191      3241      3242
      3192      3191      3241      3243      3192      3191      3241      3244
      3193      3191      3241      3242      3193      3191      3241      3243
      3193      3191      3241      3244      3194      3197      3200      3201
      3194      3197      3200      3202      3195      3194      3197      3198
      3195      3194      3197      3199      3195      3194      3197      3200
      3196      3194      3197      3198      3196      3194      3197      3199
      3196      3194      3197      3200      3197      3200      3202      3203
      3197      3200      3202      3204      3198      3197      3200      3201
      3198      3197      3200      3202      3199      3197      3200      3201
      3199      3197      3200      3202      3200      3202      3204      3205
      3200      3202      3204      3206      3200      3202      3204      3207
      3201      3200      3202      3203      3201      3200      3202      3204
      3202      3204      3207      3208      3202      3204      3207      3209
      3203      3202      3204      3205      3203      3202      3204      3206
      3203      3202      3204      3207      3204      3207      3209      3210
      3204      3207      3209      3211      3205      3204      3207      3208
      3205      3204      3207      3209      3206      3204      3207      3208
      3206      3204      3207      3209      3207      3209      3211      3212
      3207      3209      3211      3213      3207      3209      3211      3214
      3208      3207      3209      3210      3208      3207      3209      3211
      3209      3211      3214      3215      3209      3211      3214      3216
      3210      3209      3211      3212      3210      3209      3211      3213
      3210      3209      3211      3214      3211      3214      3216      3217
      3211      3214      3216      3218      3212      3211      3214      3215
      3212      3211      3214      3216      3213      3211      3214      3215
      3213      3211      3214      3216      3214      3216      3218      3219
      3214      3216      3218      3220      3214      3216      3218      3221
      3215      3214      3216      3217      3215      3214      3216      3218
      3216      3218      3221      3222      3216      3218      3221      3223
      3217      3216      3218      3219      3217      3216      3218      3220
      3217      3216      3218      3221      3218      3221      3223      3224
      3218      3221      3223      3225      3219      3218      3221      3222
      3219      3218      3221      3223      3220      3218      3221      3222
      3220      3218      3221      3223      3221      3223      3225      3226
      3221      3223      3225      3227      3221      3223      3225      3228
      3222      3221      3223      3224      3222      3221      3223      3225
      3223      3225      3228      3229      3223      3225      3228      3230
      3223      3225      3228      3231      3224      3223      3225      3226
      3224      3223      3225      3227      3224      3223      3225      3228
      3225      3228      3231      3232      3225      3228      3231      3233
      3225      3228      3231      3234      3226      3225      3228      3229
      3226      3225      3228      3230      3226      3225      3228      3231
      3227      3225      3228      3229      3227      3225      3228      3230
      3227      3225      3228      3231      3228      3231      3234      3235
      3228      3231      3234      3236      3228      3231      3234      3237
      3229      3228      3231      3232      3229      3228      3231      3233
      3229      3228      3231      3234      3230      3228      3231      3232
      3230      3228      3231      3233      3230      3228      3231      3234
      3231      3234      3237      3238      3231      3234      3237      3239
      3231      3234      3237      3240      3232      3231      3234      3235
      3232      3231      3234      3236      3232      3231      3234      3237
      3233      3231      3234      3235      3233      3231      3234      3236
      3233      3231      3234      3237      3235      3234      3237      3238
      3235      3234      3237      3239      3235      3234      3237      3240
      3236      3234      3237      3238      3236      3234      3237      3239
      3236      3234      3237      3240      3241      3244      3247      3248
      3241      3244      3247      3249      3241      3244      3247      3250
      3242      3241      3244      3245      3242      3241      3244      3246
      3242      3241      3244      3247      3243      3241      3244      3245
      3243      3241      3244      3246      3243      3241      3244      3247
      3244      3247      3250      3251      3244      3247      3250      3252
      3244      3247      3250      3253      3245      3244      3247      3248
      3245      3244      3247      3249      3245      3244      3247      3250
      3246      3244      3247      3248      3246      3244      3247      3249
      3246      3244      3247      3250      3247      3250      3253      3254
      3247      3250      3253      3255      3247      3250      3253      3256
      3248      3247      3250      3251      3248      3247      3250      3252
      3248      3247      3250      3253      3249      3247      3250      3251
      3249      3247      3250      3252      3249      3247      3250      3253
      3250      3253      3256      3257      3250      3253      3256      3258
      3250      3253      3256      3259      3251      3250      3253      3254
      3251      3250      3253      3255      3251      3250      3253      3256
      3252      3250      3253      3254      3252      3250      3253      3255
      3252      3250      3253      3256      3253      3256      3259      3260
      3253      3256      3259      3261      3253      3256      3259      3262
      3254      3253      3256      3257      3254      3253      3256      3258
      3254      3253      3256      3259      3255      3253      3256      3257
      3255      3253      3256      3258      3255      3253      3256      3259
      3256      3259      3262      3263      3256      3259      3262      3264
      3256      3259      3262      3265      3257      3256      3259      3260
      3257      3256      3259      3261      3257      3256      3259      3262
      3258      3256      3259      3260      3258      3256      3259      3261
      3258      3256      3259      3262      3259      3262      3265      3266
      3259      3262      3265      3267      3259      3262      3265      3268
      3260      3259      3262      3263      3260      3259      3262      3264
      3260      3259      3262      3265      3261      3259      3262      3263
      3261      3259      3262      3264      3261      3259      3262      3265
      3262      3265      3268      3269      3262      3265      3268      3270
      3262      3265      3268      3271      3263      3262      3265      3266
      3263      3262      3265      3267      3263      3262      3265      3268
      3264      3262      3265      3266      3264      3262      3265      3267
      3264      3262      3265      3268      3265      3268      3271      3272
      3265      3268      3271      3273      3265      3268      3271      3274
      3266      3265      3268      3269      3266      3265      3268      3270
      3266      3265      3268      3271      3267      3265      3268      3269
      3267      3265      3268      3270      3267      3265      3268      3271
      3268      3271      3274      3275      3268      3271      3274      3276
      3268      3271      3274      3277      3269      3268      3271      3272
      3269      3268      3271      3273      3269      3268      3271      3274
      3270      3268      3271      3272      3270      3268      3271      3273
      3270      3268      3271      3274      3271      3274      3277      3278
      3271      3274      3277      3279      3271      3274      3277      3280
      3272      3271      3274      3275      3272      3271      3274      3276
      3272      3271      3274      3277      3273      3271      3274      3275
      3273      3271      3274      3276      3273      3271      3274      3277
      3274      3277      3280      3281      3274      3277      3280      3282
      3274      3277      3280      3283      3275      3274      3277      3278
      3275      3274      3277      3279      3275      3274      3277      3280
      3276      3274      3277      3278      3276      3274      3277      3279
      3276      3274      3277      3280      3277      3280      3283      3284
      3277      3280      3283      3285      3277      3280      3283      3286
      3278      3277      3280      3281      3278      3277      3280      3282
      3278      3277      3280      3283      3279      3277      3280      3281
      3279      3277      3280      3282      3279      3277      3280      3283
      3280      3283      3286      3287      3280      3283      3286      3288
      3280      3283      3286      3289      3281      3280      3283      3284
      3281      3280      3283      3285      3281      3280      3283      3286
      3282      3280      3283      3284      3282      3280      3283      3285
      3282      3280      3283      3286      3284      3283      3286      3287
      3284      3283      3286      3288      3284      3283      3286      3289
      3285      3283      3286      3287      3285      3283      3286      3288
      3285      3283      3286      3289      7033      7037      7040      7041
      7033      7037      7040      7071      7033      7079      7076      7071
      7033      7079      7076      7077      7033      7079      7076      7078
      7034      7033      7035      7036      7034      7033      7037      7038
      7034      7033      7037      7039      7034      7033      7037      7040
      7034      7033      7079      7076      7034      7033      7079      7080
      7034      7033      7079      7081      7035      7033      7037      7038
      7035      7033      7037      7039      7035      7033      7037      7040
      7035      7033      7079      7076      7035      7033      7079      7080
      7035      7033      7079      7081      7036      7035      7033      7037
      7036      7035      7033      7079      7037      7033      7079      7076
      7037      7033      7079      7080      7037      7033      7079      7081
      7037      7040      7041      7042      7037      7040      7041      7043
      7037      7040      7071      7069      7037      7040      7071      7072
      7037      7040      7071      7076      7038      7037      7033      7079
      7038      7037      7040      7041      7038      7037      7040      7071
      7039      7037      7033      7079      7039      7037      7040      7041
      7039      7037      7040      7071      7040      7037      7033      7079
      7040      7041      7043      7044      7040      7041      7043      7045
      7040      7041      7043      7046      7040      7071      7069      7046
      7040      7071      7069      7066      7040      7071      7069      7070
      7040      7071      7072      7073      7040      7071      7072      7074
      7040      7071      7072      7075      7040      7071      7076      7077
      7040      7071      7076      7078      7040      7071      7076      7079
      7041      7040      7071      7069      7041      7040      7071      7072
      7041      7040      7071      7076      7041      7043      7046      7047
      7041      7043      7046      7048      7041      7043      7046      7069
      7042      7041      7040      7071      7042      7041      7043      7044
      7042      7041      7043      7045      7042      7041      7043      7046
      7043      7041      7040      7071      7043      7046      7048      7049
      7043      7046      7048      7050      7043      7046      7048      7058
      7043      7046      7069      7066      7043      7046      7069      7070
      7043      7046      7069      7071      7044      7043      7046      7047
      7044      7043      7046      7048      7044      7043      7046      7069
      7045      7043      7046      7047      7045      7043      7046      7048
      7045      7043      7046      7069      7046      7048      7050      7051
      7046      7048      7050      7052      7046      7048      7050      7053
      7046      7048      7058      7056      7046      7048      7058      7059
      7046      7048      7058      7063      7046      7069      7066      7063
      7046      7069      7066      7067      7046      7069      7066      7068
      7046      7069      7071      7072      7046      7069      7071      7076
      7047      7046      7048      7049      7047      7046      7048      7050
      7047      7046      7048      7058      7047      7046      7069      7066
      7047      7046      7069      7070      7047      7046      7069      7071
      7048      7046      7069      7066      7048      7046      7069      7070
      7048      7046      7069      7071      7048      7050      7053      7054
      7048      7050      7053      7055      7048      7050      7053      7056
      7048      7058      7056      7053      7048      7058      7056      7057
      7048      7058      7056      7082      7048      7058      7059      7060
      7048      7058      7059      7061      7048      7058      7059      7062
      7048      7058      7063      7064      7048      7058      7063      7065
      7048      7058      7063      7066      7049      7048      7046      7069
      7049      7048      7050      7051      7049      7048      7050      7052
      7049      7048      7050      7053      7049      7048      7058      7056
      7049      7048      7058      7059      7049      7048      7058      7063
      7050      7048      7046      7069      7050      7048      7058      7056
      7050      7048      7058      7059      7050      7048      7058      7063
      7050      7053      7056      7057      7050      7053      7056      7058
      7050      7053      7056      7082      7051      7050      7048      7058
      7051      7050      7053      7054      7051      7050      7053      7055
      7051      7050      7053      7056      7052      7050      7048      7058
      7052      7050      7053      7054      7052      7050      7053      7055
      7052      7050      7053      7056      7053      7050      7048      7058
      7053      7056      7058      7059      7053      7056      7058      7063
      7053      7056      7082      7083      7053      7056      7082      7084
      7053      7056      7082      7088      7054      7053      7056      7057
      7054      7053      7056      7058      7054      7053      7056      7082
      7055      7053      7056      7057      7055      7053      7056      7058
      7055      7053      7056      7082      7056      7058      7059      7060
      7056      7058      7059      7061      7056      7058      7059      7062
      7056      7058      7063      7064      7056      7058      7063      7065
      7056      7058      7063      7066      7056      7082      7084      7085
      7056      7082      7084      7086      7056      7082      7084      7087
      7056      7082      7088      7089      7056      7082      7088      7090
      7056      7082      7088      7091      7057      7056      7058      7059
      7057      7056      7058      7063      7057      7056      7082      7083
      7057      7056      7082      7084      7057      7056      7082      7088
      7058      7048      7046      7069      7058      7056      7082      7083
      7058      7056      7082      7084      7058      7056      7082      7088
      7058      7063      7066      7067      7058      7063      7066      7068
      7058      7063      7066      7069      7059      7058      7056      7082
      7059      7058      7063      7064      7059      7058      7063      7065
      7059      7058      7063      7066      7060      7059      7058      7063
      7061      7059      7058      7063      7062      7059      7058      7063
      7063      7058      7056      7082      7063      7066      7069      7070
      7063      7066      7069      7071      7064      7063      7066      7067
      7064      7063      7066      7068      7064      7063      7066      7069
      7065      7063      7066      7067      7065      7063      7066      7068
      7065      7063      7066      7069      7066      7069      7071      7072
      7066      7069      7071      7076      7067      7066      7069      7070
      7067      7066      7069      7071      7068      7066      7069      7070
      7068      7066      7069      7071      7069      7071      7072      7073
      7069      7071      7072      7074      7069      7071      7072      7075
      7069      7071      7076      7077      7069      7071      7076      7078
      7069      7071      7076      7079      7070      7069      7071      7072
      7070      7069      7071      7076      7071      7076      7079      7080
      7071      7076      7079      7081      7072      7071      7076      7077
      7072      7071      7076      7078      7072      7071      7076      7079
      7073      7072      7071      7076      7074      7072      7071      7076
      7075      7072      7071      7076      7077      7076      7079      7080
      7077      7076      7079      7081      7078      7076      7079      7080
      7078      7076      7079      7081      7082      7088      7091      7092
      7082      7088      7091      7093      7082      7088      7091      7094
      7083      7082      7084      7085      7083      7082      7084      7086
      7083      7082      7084      7087      7083      7082      7088      7089
      7083      7082      7088      7090      7083      7082      7088      7091
      7084      7082      7088      7089      7084      7082      7088      7090
      7084      7082      7088      7091      7085      7084      7082      7088
      7086      7084      7082      7088      7087      7084      7082      7088
      7088      7091      7094      7095      7088      7091      7094      7096
      7088      7091      7094      7097      7089      7088      7091      7092
      7089      7088      7091      7093      7089      7088      7091      7094
      7090      7088      7091      7092      7090      7088      7091      7093
      7090      7088      7091      7094      7091      7094      7097      7098
      7091      7094      7097      7099      7091      7094      7097      7103
      7092      7091      7094      7095      7092      7091      7094      7096
      7092      7091      7094      7097      7093      7091      7094      7095
      7093      7091      7094      7096      7093      7091      7094      7097
      7094      7097      7099      7100      7094      7097      7099      7101
      7094      7097      7099      7102      7094      7097      7103      7104
      7094      7097      7103      7105      7094      7097      7103      7106
      7095      7094      7097      7098      7095      7094      7097      7099
      7095      7094      7097      7103      7096      7094      7097      7098
      7096      7094      7097      7099      7096      7094      7097      7103
      7098      7097      7099      7100      7098      7097      7099      7101
      7098      7097      7099      7102      7098      7097      7103      7104
      7098      7097      7103      7105      7098      7097      7103      7106
      7099      7097      7103      7104      7099      7097      7103      7105
      7099      7097      7103      7106      7100      7099      7097      7103
      7101      7099      7097      7103      7102      7099      7097      7103
      4995      4999      5002      5003      4995      4999      5002      5004
      4995      4999      5002      5008      4996      4995      4999      5000
      4996      4995      4999      5001      4996      4995      4999      5002
      4997      4995      4999      5000      4997      4995      4999      5001
      4997      4995      4999      5002      4998      4995      4999      5000
      4998      4995      4999      5001      4998      4995      4999      5002
      4999      5002      5008      5005      5000      4999      5002      5003
      5000      4999      5002      5004      5000      4999      5002      5008
      5001      4999      5002      5003      5001      4999      5002      5004
      5001      4999      5002      5008      5002      5008      5005      5006
      5002      5008      5005      5007      5002      5008      5005      5009
      5003      5002      5008      5005      5004      5002      5008      5005
      5005      5009      5010      5011      5005      5009      5010      5012
      5005      5009      5010      5013      5006      5005      5009      5010
      5007      5005      5009      5010      5008      5005      5009      5010
      5009      5010      5013      5014      5009      5010      5013      5015
      5009      5010      5013      5021      5010      5013      5015      5016
      5010      5013      5021      5022      5010      5013      5021      5023
      5010      5013      5021      5024      5011      5010      5013      5014
      5011      5010      5013      5015      5011      5010      5013      5021
      5012      5010      5013      5014      5012      5010      5013      5015
      5012      5010      5013      5021      5013      5015      5016      5017
      5013      5015      5016      5018      5013      5021      5024      5025
      5014      5013      5015      5016      5014      5013      5021      5022
      5014      5013      5021      5023      5014      5013      5021      5024
      5015      5013      5021      5022      5015      5013      5021      5023
      5015      5013      5021      5024      5015      5016      5018      5019
      5015      5016      5018      5020      5015      5016      5018      5030
      5016      5015      5013      5021      5016      5018      5030      5031
      5016      5018      5030      5032      5016      5018      5030      5033
      5017      5016      5018      5019      5017      5016      5018      5020
      5017      5016      5018      5030      5018      5030      5033      5034
      5018      5030      5033      5035      5018      5030      5033      5036
      5019      5018      5030      5031      5019      5018      5030      5032
      5019      5018      5030      5033      5020      5018      5030      5031
      5020      5018      5030      5032      5020      5018      5030      5033
      5021      5024      5025      5026      5021      5024      5025      5027
      5022      5021      5024      5025      5023      5021      5024      5025
      5024      5025      5027      5028      5024      5025      5027      5029
      5024      5025      5027      5077      5025      5027      5077      5078
      5025      5027      5077      5079      5025      5027      5077      5080
      5026      5025      5027      5028      5026      5025      5027      5029
      5026      5025      5027      5077      5027      5077      5080      5081
      5027      5077      5080      5082      5027      5077      5080      5083
      5028      5027      5077      5078      5028      5027      5077      5079
      5028      5027      5077      5080      5029      5027      5077      5078
      5029      5027      5077      5079      5029      5027      5077      5080
      5030      5033      5036      5037      5030      5033      5036      5038
      5031      5030      5033      5034      5031      5030      5033      5035
      5031      5030      5033      5036      5032      5030      5033      5034
      5032      5030      5033      5035      5032      5030      5033      5036
      5033      5036      5038      5039      5033      5036      5038      5040
      5034      5033      5036      5037      5034      5033      5036      5038
      5035      5033      5036      5037      5035      5033      5036      5038
      5036      5038      5040      5041      5036      5038      5040      5042
      5036      5038      5040      5043      5037      5036      5038      5039
      5037      5036      5038      5040      5038      5040      5043      5044
      5038      5040      5043      5045      5039      5038      5040      5041
      5039      5038      5040      5042      5039      5038      5040      5043
      5040      5043      5045      5046      5040      5043      5045      5047
      5041      5040      5043      5044      5041      5040      5043      5045
      5042      5040      5043      5044      5042      5040      5043      5045
      5043      5045      5047      5048      5043      5045      5047      5049
      5043      5045      5047      5050      5044      5043      5045      5046
      5044      5043      5045      5047      5045      5047      5050      5051
      5045      5047      5050      5052      5046      5045      5047      5048
      5046      5045      5047      5049      5046      5045      5047      5050
      5047      5050      5052      5053      5047      5050      5052      5054
      5048      5047      5050      5051      5048      5047      5050      5052
      5049      5047      5050      5051      5049      5047      5050      5052
      5050      5052      5054      5055      5050      5052      5054      5056
      5050      5052      5054      5057      5051      5050      5052      5053
      5051      5050      5052      5054      5052      5054      5057      5058
      5052      5054      5057      5059      5053      5052      5054      5055
      5053      5052      5054      5056      5053      5052      5054      5057
      5054      5057      5059      5060      5054      5057      5059      5061
      5055      5054      5057      5058      5055      5054      5057      5059
      5056      5054      5057      5058      5056      5054      5057      5059
      5057      5059      5061      5062      5057      5059      5061      5063
      5057      5059      5061      5064      5058      5057      5059      5060
      5058      5057      5059      5061      5059      5061      5064      5065
      5059      5061      5064      5066      5059      5061      5064      5067
      5060      5059      5061      5062      5060      5059      5061      5063
      5060      5059      5061      5064      5061      5064      5067      5068
      5061      5064      5067      5069      5061      5064      5067      5070
      5062      5061      5064      5065      5062      5061      5064      5066
      5062      5061      5064      5067      5063      5061      5064      5065
      5063      5061      5064      5066      5063      5061      5064      5067
      5064      5067      5070      5071      5064      5067      5070      5072
      5064      5067      5070      5073      5065      5064      5067      5068
      5065      5064      5067      5069      5065      5064      5067      5070
      5066      5064      5067      5068      5066      5064      5067      5069
      5066      5064      5067      5070      5067      5070      5073      5074
      5067      5070      5073      5075      5067      5070      5073      5076
      5068      5067      5070      5071      5068      5067      5070      5072
      5068      5067      5070      5073      5069      5067      5070      5071
      5069      5067      5070      5072      5069      5067      5070      5073
      5071      5070      5073      5074      5071      5070      5073      5075
      5071      5070      5073      5076      5072      5070      5073      5074
      5072      5070      5073      5075      5072      5070      5073      5076
      5077      5080      5083      5084      5077      5080      5083      5085
      5077      5080      5083      5086      5078      5077      5080      5081
      5078      5077      5080      5082      5078      5077      5080      5083
      5079      5077      5080      5081      5079      5077      5080      5082
      5079      5077      5080      5083      5080      5083      5086      5087
      5080      5083      5086      5088      5080      5083      5086      5089
      5081      5080      5083      5084      5081      5080      5083      5085
      5081      5080      5083      5086      5082      5080      5083      5084
      5082      5080      5083      5085      5082      5080      5083      5086
      5083      5086      5089      5090      5083      5086      5089      5091
      5083      5086      5089      5092      5084      5083      5086      5087
      5084      5083      5086      5088      5084      5083      5086      5089
      5085      5083      5086      5087      5085      5083      5086      5088
      5085      5083      5086      5089      5086      5089      5092      5093
      5086      5089      5092      5094      5086      5089      5092      5095
      5087      5086      5089      5090      5087      5086      5089      5091
      5087      5086      5089      5092      5088      5086      5089      5090
      5088      5086      5089      5091      5088      5086      5089      5092
      5089      5092      5095      5096      5089      5092      5095      5097
      5089      5092      5095      5098      5090      5089      5092      5093
      5090      5089      5092      5094      5090      5089      5092      5095
      5091      5089      5092      5093      5091      5089      5092      5094
      5091      5089      5092      5095      5092      5095      5098      5099
      5092      5095      5098      5100      5092      5095      5098      5101
      5093      5092      5095      5096      5093      5092      5095      5097
      5093      5092      5095      5098      5094      5092      5095      5096
      5094      5092      5095      5097      5094      5092      5095      5098
      5095      5098      5101      5102      5095      5098      5101      5103
      5095      5098      5101      5104      5096      5095      5098      5099
      5096      5095      5098      5100      5096      5095      5098      5101
      5097      5095      5098      5099      5097      5095      5098      5100
      5097      5095      5098      5101      5098      5101      5104      5105
      5098      5101      5104      5106      5098      5101      5104      5107
      5099      5098      5101      5102      5099      5098      5101      5103
      5099      5098      5101      5104      5100      5098      5101      5102
      5100      5098      5101      5103      5100      5098      5101      5104
      5101      5104      5107      5108      5101      5104      5107      5109
      5101      5104      5107      5110      5102      5101      5104      5105
      5102      5101      5104      5106      5102      5101      5104      5107
      5103      5101      5104      5105      5103      5101      5104      5106
      5103      5101      5104      5107      5104      5107      5110      5111
      5104      5107      5110      5112      5104      5107      5110      5113
      5105      5104      5107      5108      5105      5104      5107      5109
      5105      5104      5107      5110      5106      5104      5107      5108
      5106      5104      5107      5109      5106      5104      5107      5110
      5107      5110      5113      5114      5107      5110      5113      5115
      5107      5110      5113      5116      5108      5107      5110      5111
      5108      5107      5110      5112      5108      5107      5110      5113
      5109      5107      5110      5111      5109      5107      5110      5112
      5109      5107      5110      5113      5110      5113      5116      5117
      5110      5113      5116      5118      5110      5113      5116      5119
      5111      5110      5113      5114      5111      5110      5113      5115
      5111      5110      5113      5116      5112      5110      5113      5114
      5112      5110      5113      5115      5112      5110      5113      5116
      5113      5116      5119      5120      5113      5116      5119      5121
      5113      5116      5119      5122      5114      5113      5116      5117
      5114      5113      5116      5118      5114      5113      5116      5119
      5115      5113      5116      5117      5115      5113      5116      5118
      5115      5113      5116      5119      5116      5119      5122      5123
      5116      5119      5122      5124      5116      5119      5122      5125
      5117      5116      5119      5120      5117      5116      5119      5121
      5117      5116      5119      5122      5118      5116      5119      5120
      5118      5116      5119      5121      5118      5116      5119      5122
      5120      5119      5122      5123      5120      5119      5122      5124
      5120      5119      5122      5125      5121      5119      5122      5123
      5121      5119      5122      5124      5121      5119      5122      5125
      7107      7111      7114      7115      7107      7111      7114      7145
      7107      7153      7150      7145      7107      7153      7150      7151
      7107      7153      7150      7152      7108      7107      7109      7110
      7108      7107      7111      7112      7108      7107      7111      7113
      7108      7107      7111      7114      7108      7107      7153      7150
      7108      7107      7153      7154      7108      7107      7153      7155
      7109      7107      7111      7112      7109      7107      7111      7113
      7109      7107      7111      7114      7109      7107      7153      7150
      7109      7107      7153      7154      7109      7107      7153      7155
      7110      7109      7107      7111      7110      7109      7107      7153
      7111      7107      7153      7150      7111      7107      7153      7154
      7111      7107      7153      7155      7111      7114      7115      7116
      7111      7114      7115      7117      7111      7114      7145      7143
      7111      7114      7145      7146      7111      7114      7145      7150
      7112      7111      7107      7153      7112      7111      7114      7115
      7112      7111      7114      7145      7113      7111      7107      7153
      7113      7111      7114      7115      7113      7111      7114      7145
      7114      7111      7107      7153      7114      7115      7117      7118
      7114      7115      7117      7119      7114      7115      7117      7120
      7114      7145      7143      7120      7114      7145      7143      7140
      7114      7145      7143      7144      7114      7145      7146      7147
      7114      7145      7146      7148      7114      7145      7146      7149
      7114      7145      7150      7151      7114      7145      7150      7152
      7114      7145      7150      7153      7115      7114      7145      7143
      7115      7114      7145      7146      7115      7114      7145      7150
      7115      7117      7120      7121      7115      7117      7120      7122
      7115      7117      7120      7143      7116      7115      7114      7145
      7116      7115      7117      7118      7116      7115      7117      7119
      7116      7115      7117      7120      7117      7115      7114      7145
      7117      7120      7122      7123      7117      7120      7122      7124
      7117      7120      7122      7132      7117      7120      7143      7140
      7117      7120      7143      7144      7117      7120      7143      7145
      7118      7117      7120      7121      7118      7117      7120      7122
      7118      7117      7120      7143      7119      7117      7120      7121
      7119      7117      7120      7122      7119      7117      7120      7143
      7120      7122      7124      7125      7120      7122      7124      7126
      7120      7122      7124      7127      7120      7122      7132      7130
      7120      7122      7132      7133      7120      7122      7132      7137
      7120      7143      7140      7137      7120      7143      7140      7141
      7120      7143      7140      7142      7120      7143      7145      7146
      7120      7143      7145      7150      7121      7120      7122      7123
      7121      7120      7122      7124      7121      7120      7122      7132
      7121      7120      7143      7140      7121      7120      7143      7144
      7121      7120      7143      7145      7122      7120      7143      7140
      7122      7120      7143      7144      7122      7120      7143      7145
      7122      7124      7127      7128      7122      7124      7127      7129
      7122      7124      7127      7130      7122      7132      7130      7127
      7122      7132      7130      7131      7122      7132      7130      7156
      7122      7132      7133      7134      7122      7132      7133      7135
      7122      7132      7133      7136      7122      7132      7137      7138
      7122      7132      7137      7139      7122      7132      7137      7140
      7123      7122      7120      7143      7123      7122      7124      7125
      7123      7122      7124      7126      7123      7122      7124      7127
      7123      7122      7132      7130      7123      7122      7132      7133
      7123      7122      7132      7137      7124      7122      7120      7143
      7124      7122      7132      7130      7124      7122      7132      7133
      7124      7122      7132      7137      7124      7127      7130      7131
      7124      7127      7130      7132      7124      7127      7130      7156
      7125      7124      7122      7132      7125      7124      7127      7128
      7125      7124      7127      7129      7125      7124      7127      7130
      7126      7124      7122      7132      7126      7124      7127      7128
      7126      7124      7127      7129      7126      7124      7127      7130
      7127      7124      7122      7132      7127      7130      7132      7133
      7127      7130      7132      7137      7127      7130      7156      7157
      7127      7130      7156      7158      7127      7130      7156      7162
      7128      7127      7130      7131      7128      7127      7130      7132
      7128      7127      7130      7156      7129      7127      7130      7131
      7129      7127      7130      7132      7129      7127      7130      7156
      7130      7132      7133      7134      7130      7132      7133      7135
      7130      7132      7133      7136      7130      7132      7137      7138
      7130      7132      7137      7139      7130      7132      7137      7140
      7130      7156      7158      7159      7130      7156      7158      7160
      7130      7156      7158      7161      7130      7156      7162      7163
      7130      7156      7162      7164      7130      7156      7162      7165
      7131      7130      7132      7133      7131      7130      7132      7137
      7131      7130      7156      7157      7131      7130      7156      7158
      7131      7130      7156      7162      7132      7122      7120      7143
      7132      7130      7156      7157      7132      7130      7156      7158
      7132      7130      7156      7162      7132      7137      7140      7141
      7132      7137      7140      7142      7132      7137      7140      7143
      7133      7132      7130      7156      7133      7132      7137      7138
      7133      7132      7137      7139      7133      7132      7137      7140
      7134      7133      7132      7137      7135      7133      7132      7137
      7136      7133      7132      7137      7137      7132      7130      7156
      7137      7140      7143      7144      7137      7140      7143      7145
      7138      7137      7140      7141      7138      7137      7140      7142
      7138      7137      7140      7143      7139      7137      7140      7141
      7139      7137      7140      7142      7139      7137      7140      7143
      7140      7143      7145      7146      7140      7143      7145      7150
      7141      7140      7143      7144      7141      7140      7143      7145
      7142      7140      7143      7144      7142      7140      7143      7145
      7143      7145      7146      7147      7143      7145      7146      7148
      7143      7145      7146      7149      7143      7145      7150      7151
      7143      7145      7150      7152      7143      7145      7150      7153
      7144      7143      7145      7146      7144      7143      7145      7150
      7145      7150      7153      7154      7145      7150      7153      7155
      7146      7145      7150      7151      7146      7145      7150      7152
      7146      7145      7150      7153      7147      7146      7145      7150
      7148      7146      7145      7150      7149      7146      7145      7150
      7151      7150      7153      7154      7151      7150      7153      7155
      7152      7150      7153      7154      7152      7150      7153      7155
      7156      7162      7165      7166      7156      7162      7165      7167
      7156      7162      7165      7168      7157      7156      7158      7159
      7157      7156      7158      7160      7157      7156      7158      7161
      7157      7156      7162      7163      7157      7156      7162      7164
      7157      7156      7162      7165      7158      7156      7162      7163
      7158      7156      7162      7164      7158      7156      7162      7165
      7159      7158      7156      7162      7160      7158      7156      7162
      7161      7158      7156      7162      7162      7165      7168      7169
      7162      7165      7168      7170      7162      7165      7168      7171
      7163      7162      7165      7166      7163      7162      7165      7167
      7163      7162      7165      7168      7164      7162      7165      7166
      7164      7162      7165      7167      7164      7162      7165      7168
      7165      7168      7171      7172      7165      7168      7171      7173
      7165      7168      7171      7177      7166      7165      7168      7169
      7166      7165      7168      7170      7166      7165      7168      7171
      7167      7165      7168      7169      7167      7165      7168      7170
      7167      7165      7168      7171      7168      7171      7173      7174
      7168      7171      7173      7175      7168      7171      7173      7176
      7168      7171      7177      7178      7168      7171      7177      7179
      7168      7171      7177      7180      7169      7168      7171      7172
      7169      7168      7171      7173      7169      7168      7171      7177
      7170      7168      7171      7172      7170      7168      7171      7173
      7170      7168      7171      7177      7172      7171      7173      7174
      7172      7171      7173      7175      7172      7171      7173      7176
      7172      7171      7177      7178      7172      7171      7177      7179
      7172      7171      7177      7180      7173      7171      7177      7178
      7173      7171      7177      7179      7173      7171      7177      7180
      7174      7173      7171      7177      7175      7173      7171      7177
      7176      7173      7171      7177      8157      8170      8173      8174
      8157      8170      8173      8175      8157      8170      8173      8179
      8158      8157      8162      8163      8158      8157      8162      8164
      8158      8157      8162      8165      8158      8157      8166      8167
      8158      8157      8166      8168      8158      8157      8166      8169
      8158      8157      8170      8171      8158      8157      8170      8172
      8158      8157      8170      8173      8159      8158      8157      8162
      8159      8158      8157      8166      8159      8158      8157      8170
      8160      8158      8157      8162      8160      8158      8157      8166
      8160      8158      8157      8170      8161      8158      8157      8162
      8161      8158      8157      8166      8161      8158      8157      8170
      8162      8157      8166      8167      8162      8157      8166      8168
      8162      8157      8166      8169      8162      8157      8170      8171
      8162      8157      8170      8172      8162      8157      8170      8173
      8163      8162      8157      8166      8163      8162      8157      8170
      8164      8162      8157      8166      8164      8162      8157      8170
      8165      8162      8157      8166      8165      8162      8157      8170
      8166      8157      8170      8171      8166      8157      8170      8172
      8166      8157      8170      8173      8167      8166      8157      8170
      8168      8166      8157      8170      8169      8166      8157      8170
      8170      8173      8179      8176      8171      8170      8173      8174
      8171      8170      8173      8175      8171      8170      8173      8179
      8172      8170      8173      8174      8172      8170      8173      8175
      8172      8170      8173      8179      8173      8179      8176      8177
      8173      8179      8176      8178      8173      8179      8176      8180
      8174      8173      8179      8176      8175      8173      8179      8176
      8176      8180      8181      8182      8176      8180      8181      8183
      8176      8180      8181      8184      8177      8176      8180      8181
      8178      8176      8180      8181      8179      8176      8180      8181
      8180      8181      8184      8185      8180      8181      8184      8186
      8180      8181      8184      8192      8181      8184      8186      8187
      8181      8184      8192      8193      8181      8184      8192      8194
      8181      8184      8192      8195      8182      8181      8184      8185
      8182      8181      8184      8186      8182      8181      8184      8192
      8183      8181      8184      8185      8183      8181      8184      8186
      8183      8181      8184      8192      8184      8186      8187      8188
      8184      8186      8187      8189      8184      8192      8195      8196
      8185      8184      8186      8187      8185      8184      8192      8193
      8185      8184      8192      8194      8185      8184      8192      8195
      8186      8184      8192      8193      8186      8184      8192      8194
      8186      8184      8192      8195      8186      8187      8189      8190
      8186      8187      8189      8191      8186      8187      8189      8201
      8187      8186      8184      8192      8187      8189      8201      8202
      8187      8189      8201      8203      8187      8189      8201      8204
      8188      8187      8189      8190      8188      8187      8189      8191
      8188      8187      8189      8201      8189      8201      8204      8205
      8189      8201      8204      8206      8189      8201      8204      8207
      8190      8189      8201      8202      8190      8189      8201      8203
      8190      8189      8201      8204      8191      8189      8201      8202
      8191      8189      8201      8203      8191      8189      8201      8204
      8192      8195      8196      8197      8192      8195      8196      8198
      8193      8192      8195      8196      8194      8192      8195      8196
      8195      8196      8198      8199      8195      8196      8198      8200
      8195      8196      8198      8246      8196      8198      8246      8247
      8196      8198      8246      8248      8196      8198      8246      8249
      8197      8196      8198      8199      8197      8196      8198      8200
      8197      8196      8198      8246      8198      8246      8249      8250
      8198      8246      8249      8251      8198      8246      8249      8252
      8199      8198      8246      8247      8199      8198      8246      8248
      8199      8198      8246      8249      8200      8198      8246      8247
      8200      8198      8246      8248      8200      8198      8246      8249
      8201      8204      8207      8208      8201      8204      8207      8209
      8201      8204      8207      8210      8202      8201      8204      8205
      8202      8201      8204      8206      8202      8201      8204      8207
      8203      8201      8204      8205      8203      8201      8204      8206
      8203      8201      8204      8207      8204      8207      8210      8211
      8204      8207      8210      8212      8204      8207      8210      8213
      8205      8204      8207      8208      8205      8204      8207      8209
      8205      8204      8207      8210      8206      8204      8207      8208
      8206      8204      8207      8209      8206      8204      8207      8210
      8207      8210      8213      8214      8207      8210      8213      8215
      8207      8210      8213      8216      8208      8207      8210      8211
      8208      8207      8210      8212      8208      8207      8210      8213
      8209      8207      8210      8211      8209      8207      8210      8212
      8209      8207      8210      8213      8210      8213      8216      8217
      8210      8213      8216      8218      8210      8213      8216      8219
      8211      8210      8213      8214      8211      8210      8213      8215
      8211      8210      8213      8216      8212      8210      8213      8214
      8212      8210      8213      8215      8212      8210      8213      8216
      8213      8216      8219      8220      8213      8216      8219      8221
      8214      8213      8216      8217      8214      8213      8216      8218
      8214      8213      8216      8219      8215      8213      8216      8217
      8215      8213      8216      8218      8215      8213      8216      8219
      8216      8219      8221      8222      8216      8219      8221      8223
      8217      8216      8219      8220      8217      8216      8219      8221
      8218      8216      8219      8220      8218      8216      8219      8221
      8219      8221      8223      8224      8219      8221      8223      8225
      8219      8221      8223      8226      8220      8219      8221      8222
      8220      8219      8221      8223      8221      8223      8226      8227
      8221      8223      8226      8228      8222      8221      8223      8224
      8222      8221      8223      8225      8222      8221      8223      8226
      8223      8226      8228      8229      8223      8226      8228      8230
      8224      8223      8226      8227      8224      8223      8226      8228
      8225      8223      8226      8227      8225      8223      8226      8228
      8226      8228      8230      8231      8226      8228      8230      8232
      8226      8228      8230      8233      8227      8226      8228      8229
      8227      8226      8228      8230      8228      8230      8233      8234
      8228      8230      8233      8235      8228      8230      8233      8236
      8229      8228      8230      8231      8229      8228      8230      8232
      8229      8228      8230      8233      8230      8233      8236      8237
      8230      8233      8236      8238      8230      8233      8236      8239
      8231      8230      8233      8234      8231      8230      8233      8235
      8231      8230      8233      8236      8232      8230      8233      8234
      8232      8230      8233      8235      8232      8230      8233      8236
      8233      8236      8239      8240      8233      8236      8239      8241
      8233      8236      8239      8242      8234      8233      8236      8237
      8234      8233      8236      8238      8234      8233      8236      8239
      8235      8233      8236      8237      8235      8233      8236      8238
      8235      8233      8236      8239      8236      8239      8242      8243
      8236      8239      8242      8244      8236      8239      8242      8245
      8237      8236      8239      8240      8237      8236      8239      8241
      8237      8236      8239      8242      8238      8236      8239      8240
      8238      8236      8239      8241      8238      8236      8239      8242
      8240      8239      8242      8243      8240      8239      8242      8244
      8240      8239      8242      8245      8241      8239      8242      8243
      8241      8239      8242      8244      8241      8239      8242      8245
      8246      8249      8252      8253      8246      8249      8252      8254
      8246      8249      8252      8255      8247      8246      8249      8250
      8247      8246      8249      8251      8247      8246      8249      8252
      8248      8246      8249      8250      8248      8246      8249      8251
      8248      8246      8249      8252      8249      8252      8255      8256
      8249      8252      8255      8257      8249      8252      8255      8258
      8250      8249      8252      8253      8250      8249      8252      8254
      8250      8249      8252      8255      8251      8249      8252      8253
      8251      8249      8252      8254      8251      8249      8252      8255
      8252      8255      8258      8259      8252      8255      8258      8260
      8252      8255      8258      8261      8253      8252      8255      8256
      8253      8252      8255      8257      8253      8252      8255      8258
      8254      8252      8255      8256      8254      8252      8255      8257
      8254      8252      8255      8258      8255      8258      8261      8262
      8255      8258      8261      8263      8255      8258      8261      8264
      8256      8255      8258      8259      8256      8255      8258      8260
      8256      8255      8258      8261      8257      8255      8258      8259
      8257      8255      8258      8260      8257      8255      8258      8261
      8258      8261      8264      8265      8258      8261      8264      8266
      8258      8261      8264      8267      8259      8258      8261      8262
      8259      8258      8261      8263      8259      8258      8261      8264
      8260      8258      8261      8262      8260      8258      8261      8263
      8260      8258      8261      8264      8261      8264      8267      8268
      8261      8264      8267      8269      8261      8264      8267      8270
      8262      8261      8264      8265      8262      8261      8264      8266
      8262      8261      8264      8267      8263      8261      8264      8265
      8263      8261      8264      8266      8263      8261      8264      8267
      8264      8267      8270      8271      8264      8267      8270      8272
      8264      8267      8270      8273      8265      8264      8267      8268
      8265      8264      8267      8269      8265      8264      8267      8270
      8266      8264      8267      8268      8266      8264      8267      8269
      8266      8264      8267      8270      8267      8270      8273      8274
      8267      8270      8273      8275      8267      8270      8273      8276
      8268      8267      8270      8271      8268      8267      8270      8272
      8268      8267      8270      8273      8269      8267      8270      8271
      8269      8267      8270      8272      8269      8267      8270      8273
      8270      8273      8276      8277      8270      8273      8276      8278
      8270      8273      8276      8279      8271      8270      8273      8274
      8271      8270      8273      8275      8271      8270      8273      8276
      8272      8270      8273      8274      8272      8270      8273      8275
      8272      8270      8273      8276      8273      8276      8279      8280
      8273      8276      8279      8281      8273      8276      8279      8282
      8274      8273      8276      8277      8274      8273      8276      8278
      8274      8273      8276      8279      8275      8273      8276      8277
      8275      8273      8276      8278      8275      8273      8276      8279
      8276      8279      8282      8283      8276      8279      8282      8284
      8276      8279      8282      8285      8277      8276      8279      8280
      8277      8276      8279      8281      8277      8276      8279      8282
      8278      8276      8279      8280      8278      8276      8279      8281
      8278      8276      8279      8282      8279      8282      8285      8286
      8279      8282      8285      8287      8279      8282      8285      8288
      8280      8279      8282      8283      8280      8279      8282      8284
      8280      8279      8282      8285      8281      8279      8282      8283
      8281      8279      8282      8284      8281      8279      8282      8285
      8282      8285      8288      8289      8282      8285      8288      8290
      8282      8285      8288      8291      8283      8282      8285      8286
      8283      8282      8285      8287      8283      8282      8285      8288
      8284      8282      8285      8286      8284      8282      8285      8287
      8284      8282      8285      8288      8285      8288      8291      8292
      8285      8288      8291      8293      8285      8288      8291      8294
      8286      8285      8288      8289      8286      8285      8288      8290
      8286      8285      8288      8291      8287      8285      8288      8289
      8287      8285      8288      8290      8287      8285      8288      8291
      8289      8288      8291      8292      8289      8288      8291      8293
      8289      8288      8291      8294      8290      8288      8291      8292
      8290      8288      8291      8293      8290      8288      8291      8294
      9413      9414      9429      9430      9413      9414      9429      9431
      9413      9414      9429      9435      9414      9413      9417      9418
      9414      9413      9417      9419      9414      9413      9417      9420
      9414      9413      9421      9422      9414      9413      9421      9423
      9414      9413      9421      9424      9414      9413      9425      9426
      9414      9413      9425      9427      9414      9413      9425      9428
      9414      9429      9435      9432      9415      9414      9413      9417
      9415      9414      9413      9421      9415      9414      9413      9425
      9415      9414      9429      9430      9415      9414      9429      9431
      9415      9414      9429      9435      9416      9414      9413      9417
      9416      9414      9413      9421      9416      9414      9413      9425
      9416      9414      9429      9430      9416      9414      9429      9431
      9416      9414      9429      9435      9417      9413      9414      9429
      9417      9413      9421      9422      9417      9413      9421      9423
      9417      9413      9421      9424      9417      9413      9425      9426
      9417      9413      9425      9427      9417      9413      9425      9428
      9418      9417      9413      9421      9418      9417      9413      9425
      9419      9417      9413      9421      9419      9417      9413      9425
      9420      9417      9413      9421      9420      9417      9413      9425
      9421      9413      9414      9429      9421      9413      9425      9426
      9421      9413      9425      9427      9421      9413      9425      9428
      9422      9421      9413      9425      9423      9421      9413      9425
      9424      9421      9413      9425      9425      9413      9414      9429
      9429      9435      9432      9433      9429      9435      9432      9434
      9429      9435      9432      9436      9430      9429      9435      9432
      9431      9429      9435      9432      9432      9436      9437      9438
      9432      9436      9437      9439      9432      9436      9437      9440
      9433      9432      9436      9437      9434      9432      9436      9437
      9435      9432      9436      9437      9436      9437      9440      9441
      9436      9437      9440      9442      9436      9437      9440      9448
      9437      9440      9442      9443      9437      9440      9448      9449
      9437      9440      9448      9450      9437      9440      9448      9451
      9438      9437      9440      9441      9438      9437      9440      9442
      9438      9437      9440      9448      9439      9437      9440      9441
      9439      9437      9440      9442      9439      9437      9440      9448
      9440      9442      9443      9444      9440      9442      9443      9445
      9440      9448      9451      9452      9441      9440      9442      9443
      9441      9440      9448      9449      9441      9440      9448      9450
      9441      9440      9448      9451      9442      9440      9448      9449
      9442      9440      9448      9450      9442      9440      9448      9451
      9442      9443      9445      9446      9442      9443      9445      9447
      9442      9443      9445      9457      9443      9442      9440      9448
      9443      9445      9457      9458      9443      9445      9457      9459
      9443      9445      9457      9460      9444      9443      9445      9446
      9444      9443      9445      9447      9444      9443      9445      9457
      9445      9457      9460      9461      9445      9457      9460      9462
      9445      9457      9460      9463      9446      9445      9457      9458
      9446      9445      9457      9459      9446      9445      9457      9460
      9447      9445      9457      9458      9447      9445      9457      9459
      9447      9445      9457      9460      9448      9451      9452      9453
      9448      9451      9452      9454      9449      9448      9451      9452
      9450      9448      9451      9452      9451      9452      9454      9455
      9451      9452      9454      9456      9451      9452      9454      9504
      9452      9454      9504      9505      9452      9454      9504      9506
      9452      9454      9504      9507      9453      9452      9454      9455
      9453      9452      9454      9456      9453      9452      9454      9504
      9454      9504      9507      9508      9454      9504      9507      9509
      9454      9504      9507      9510      9455      9454      9504      9505
      9455      9454      9504      9506      9455      9454      9504      9507
      9456      9454      9504      9505      9456      9454      9504      9506
      9456      9454      9504      9507      9457      9460      9463      9464
      9457      9460      9463      9465      9458      9457      9460      9461
      9458      9457      9460      9462      9458      9457      9460      9463
      9459      9457      9460      9461      9459      9457      9460      9462
      9459      9457      9460      9463      9460      9463      9465      9466
      9460      9463      9465      9467      9461      9460      9463      9464
      9461      9460      9463      9465      9462      9460      9463      9464
      9462      9460      9463      9465      9463      9465      9467      9468
      9463      9465      9467      9469      9463      9465      9467      9470
      9464      9463      9465      9466      9464      9463      9465      9467
      9465      9467      9470      9471      9465      9467      9470      9472
      9466      9465      9467      9468      9466      9465      9467      9469
      9466      9465      9467      9470      9467      9470      9472      9473
      9467      9470      9472      9474      9468      9467      9470      9471
      9468      9467      9470      9472      9469      9467      9470      9471
      9469      9467      9470      9472      9470      9472      9474      9475
      9470      9472      9474      9476      9470      9472      9474      9477
      9471      9470      9472      9473      9471      9470      9472      9474
      9472      9474      9477      9478      9472      9474      9477      9479
      9473      9472      9474      9475      9473      9472      9474      9476
      9473      9472      9474      9477      9474      9477      9479      9480
      9474      9477      9479      9481      9475      9474      9477      9478
      9475      9474      9477      9479      9476      9474      9477      9478
      9476      9474      9477      9479      9477      9479      9481      9482
      9477      9479      9481      9483      9477      9479      9481      9484
      9478      9477      9479      9480      9478      9477      9479      9481
      9479      9481      9484      9485      9479      9481      9484      9486
      9480      9479      9481      9482      9480      9479      9481      9483
      9480      9479      9481      9484      9481      9484      9486      9487
      9481      9484      9486      9488      9482      9481      9484      9485
      9482      9481      9484      9486      9483      9481      9484      9485
      9483      9481      9484      9486      9484      9486      9488      9489
      9484      9486      9488      9490      9484      9486      9488      9491
      9485      9484      9486      9487      9485      9484      9486      9488
      9486      9488      9491      9492      9486      9488      9491      9493
      9486      9488      9491      9494      9487      9486      9488      9489
      9487      9486      9488      9490      9487      9486      9488      9491
      9488      9491      9494      9495      9488      9491      9494      9496
      9488      9491      9494      9497      9489      9488      9491      9492
      9489      9488      9491      9493      9489      9488      9491      9494
      9490      9488      9491      9492      9490      9488      9491      9493
      9490      9488      9491      9494      9491      9494      9497      9498
      9491      9494      9497      9499      9491      9494      9497      9500
      9492      9491      9494      9495      9492      9491      9494      9496
      9492      9491      9494      9497      9493      9491      9494      9495
      9493      9491      9494      9496      9493      9491      9494      9497
      9494      9497      9500      9501      9494      9497      9500      9502
      9494      9497      9500      9503      9495      9494      9497      9498
      9495      9494      9497      9499      9495      9494      9497      9500
      9496      9494      9497      9498      9496      9494      9497      9499
      9496      9494      9497      9500      9498      9497      9500      9501
      9498      9497      9500      9502      9498      9497      9500      9503
      9499      9497      9500      9501      9499      9497      9500      9502
      9499      9497      9500      9503      9504      9507      9510      9511
      9504      9507      9510      9512      9504      9507      9510      9513
      9505      9504      9507      9508      9505      9504      9507      9509
      9505      9504      9507      9510      9506      9504      9507      9508
      9506      9504      9507      9509      9506      9504      9507      9510
      9507      9510      9513      9514      9507      9510      9513      9515
      9507      9510      9513      9516      9508      9507      9510      9511
      9508      9507      9510      9512      9508      9507      9510      9513
      9509      9507      9510      9511      9509      9507      9510      9512
      9509      9507      9510      9513      9510      9513      9516      9517
      9510      9513      9516      9518      9510      9513      9516      9519
      9511      9510      9513      9514      9511      9510      9513      9515
      9511      9510      9513      9516      9512      9510      9513      9514
      9512      9510      9513      9515      9512      9510      9513      9516
      9513      9516      9519      9520      9513      9516      9519      9521
      9513      9516      9519      9522      9514      9513      9516      9517
      9514      9513      9516      9518      9514      9513      9516      9519
      9515      9513      9516      9517      9515      9513      9516      9518
      9515      9513      9516      9519      9516      9519      9522      9523
      9516      9519      9522      9524      9516      9519      9522      9525
      9517      9516      9519      9520      9517      9516      9519      9521
      9517      9516      9519      9522      9518      9516      9519      9520
      9518      9516      9519      9521      9518      9516      9519      9522
      9519      9522      9525      9526      9519      9522      9525      9527
      9519      9522      9525      9528      9520      9519      9522      9523
      9520      9519      9522      9524      9520      9519      9522      9525
      9521      9519      9522      9523      9521      9519      9522      9524
      9521      9519      9522      9525      9522      9525      9528      9529
      9522      9525      9528      9530      9522      9525      9528      9531
      9523      9522      9525      9526      9523      9522      9525      9527
      9523      9522      9525      9528      9524      9522      9525      9526
      9524      9522      9525      9527      9524      9522      9525      9528
      9525      9528      9531      9532      9525      9528      9531      9533
      9525      9528      9531      9534      9526      9525      9528      9529
      9526      9525      9528      9530      9526      9525      9528      9531
      9527      9525      9528      9529      9527      9525      9528      9530
      9527      9525      9528      9531      9528      9531      9534      9535
      9528      9531      9534      9536      9528      9531      9534      9537
      9529      9528      9531      9532      9529      9528      9531      9533
      9529      9528      9531      9534      9530      9528      9531      9532
      9530      9528      9531      9533      9530      9528      9531      9534
      9531      9534      9537      9538      9531      9534      9537      9539
      9531      9534      9537      9540      9532      9531      9534      9535
      9532      9531      9534      9536      9532      9531      9534      9537
      9533      9531      9534      9535      9533      9531      9534      9536
      9533      9531      9534      9537      9534      9537      9540      9541
      9534      9537      9540      9542      9534      9537      9540      9543
      9535      9534      9537      9538      9535      9534      9537      9539
      9535      9534      9537      9540      9536      9534      9537      9538
      9536      9534      9537      9539      9536      9534      9537      9540
      9537      9540      9543      9544      9537      9540      9543      9545
      9537      9540      9543      9546      9538      9537      9540      9541
      9538      9537      9540      9542      9538      9537      9540      9543
      9539      9537      9540      9541      9539      9537      9540      9542
      9539      9537      9540      9543      9540      9543      9546      9547
      9540      9543      9546      9548      9540      9543      9546      9549
      9541      9540      9543      9544      9541      9540      9543      9545
      9541      9540      9543      9546      9542      9540      9543      9544
      9542      9540      9543      9545      9542      9540      9543      9546
      9543      9546      9549      9550      9543      9546      9549      9551
      9543      9546      9549      9552      9544      9543      9546      9547
      9544      9543      9546      9548      9544      9543      9546      9549
      9545      9543      9546      9547      9545      9543      9546      9548
      9545      9543      9546      9549      9547      9546      9549      9550
      9547      9546      9549      9551      9547      9546      9549      9552
      9548      9546      9549      9550      9548      9546      9549      9551
      9548      9546      9549      9552      7181      7185      7188      7189
      7181      7185      7188      7219      7181      7227      7224      7219
      7181      7227      7224      7225      7181      7227      7224      7226
      7182      7181      7183      7184      7182      7181      7185      7186
      7182      7181      7185      7187      7182      7181      7185      7188
      7182      7181      7227      7224      7182      7181      7227      7228
      7182      7181      7227      7229      7183      7181      7185      7186
      7183      7181      7185      7187      7183      7181      7185      7188
      7183      7181      7227      7224      7183      7181      7227      7228
      7183      7181      7227      7229      7184      7183      7181      7185
      7184      7183      7181      7227      7185      7181      7227      7224
      7185      7181      7227      7228      7185      7181      7227      7229
      7185      7188      7189      7190      7185      7188      7189      7191
      7185      7188      7219      7217      7185      7188      7219      7220
      7185      7188      7219      7224      7186      7185      7181      7227
      7186      7185      7188      7189      7186      7185      7188      7219
      7187      7185      7181      7227      7187      7185      7188      7189
      7187      7185      7188      7219      7188      7185      7181      7227
      7188      7189      7191      7192      7188      7189      7191      7193
      7188      7189      7191      7194      7188      7219      7217      7194
      7188      7219      7217      7214      7188      7219      7217      7218
      7188      7219      7220      7221      7188      7219      7220      7222
      7188      7219      7220      7223      7188      7219      7224      7225
      7188      7219      7224      7226      7188      7219      7224      7227
      7189      7188      7219      7217      7189      7188      7219      7220
      7189      7188      7219      7224      7189      7191      7194      7195
      7189      7191      7194      7196      7189      7191      7194      7217
      7190      7189      7188      7219      7190      7189      7191      7192
      7190      7189      7191      7193      7190      7189      7191      7194
      7191      7189      7188      7219      7191      7194      7196      7197
      7191      7194      7196      7198      7191      7194      7196      7206
      7191      7194      7217      7214      7191      7194      7217      7218
      7191      7194      7217      7219      7192      7191      7194      7195
      7192      7191      7194      7196      7192      7191      7194      7217
      7193      7191      7194      7195      7193      7191      7194      7196
      7193      7191      7194      7217      7194      7196      7198      7199
      7194      7196      7198      7200      7194      7196      7198      7201
      7194      7196      7206      7204      7194      7196      7206      7207
      7194      7196      7206      7211      7194      7217      7214      7211
      7194      7217      7214      7215      7194      7217      7214      7216
      7194      7217      7219      7220      7194      7217      7219      7224
      7195      7194      7196      7197      7195      7194      7196      7198
      7195      7194      7196      7206      7195      7194      7217      7214
      7195      7194      7217      7218      7195      7194      7217      7219
      7196      7194      7217      7214      7196      7194      7217      7218
      7196      7194      7217      7219      7196      7198      7201      7202
      7196      7198      7201      7203      7196      7198      7201      7204
      7196      7206      7204      7201      7196      7206      7204      7205
      7196      7206      7204      7230      7196      7206      7207      7208
      7196      7206      7207      7209      7196      7206      7207      7210
      7196      7206      7211      7212      7196      7206      7211      7213
      7196      7206      7211      7214      7197      7196      7194      7217
      7197      7196      7198      7199      7197      7196      7198      7200
      7197      7196      7198      7201      7197      7196      7206      7204
      7197      7196      7206      7207      7197      7196      7206      7211
      7198      7196      7194      7217      7198      7196      7206      7204
      7198      7196      7206      7207      7198      7196      7206      7211
      7198      7201      7204      7205      7198      7201      7204      7206
      7198      7201      7204      7230      7199      7198      7196      7206
      7199      7198      7201      7202      7199      7198      7201      7203
      7199      7198      7201      7204      7200      7198      7196      7206
      7200      7198      7201      7202      7200      7198      7201      7203
      7200      7198      7201      7204      7201      7198      7196      7206
      7201      7204      7206      7207      7201      7204      7206      7211
      7201      7204      7230      7231      7201      7204      7230      7232
      7201      7204      7230      7236      7202      7201      7204      7205
      7202      7201      7204      7206      7202      7201      7204      7230
      7203      7201      7204      7205      7203      7201      7204      7206
      7203      7201      7204      7230      7204      7206      7207      7208
      7204      7206      7207      7209      7204      7206      7207      7210
      7204      7206      7211      7212      7204      7206      7211      7213
      7204      7206      7211      7214      7204      7230      7232      7233
      7204      7230      7232      7234      7204      7230      7232      7235
      7204      7230      7236      7237      7204      7230      7236      7238
      7204      7230      7236      7239      7205      7204      7206      7207
      7205      7204      7206      7211      7205      7204      7230      7231
      7205      7204      7230      7232      7205      7204      7230      7236
      7206      7196      7194      7217      7206      7204      7230      7231
      7206      7204      7230      7232      7206      7204      7230      7236
      7206      7211      7214      7215      7206      7211      7214      7216
      7206      7211      7214      7217      7207      7206      7204      7230
      7207      7206      7211      7212      7207      7206      7211      7213
      7207      7206      7211      7214      7208      7207      7206      7211
      7209      7207      7206      7211      7210      7207      7206      7211
      7211      7206      7204      7230      7211      7214      7217      7218
      7211      7214      7217      7219      7212      7211      7214      7215
      7212      7211      7214      7216      7212      7211      7214      7217
      7213      7211      7214      7215      7213      7211      7214      7216
      7213      7211      7214      7217      7214      7217      7219      7220
      7214      7217      7219      7224      7215      7214      7217      7218
      7215      7214      7217      7219      7216      7214      7217      7218
      7216      7214      7217      7219      7217      7219      7220      7221
      7217      7219      7220      7222      7217      7219      7220      7223
      7217      7219      7224      7225      7217      7219      7224      7226
      7217      7219      7224      7227      7218      7217      7219      7220
      7218      7217      7219      7224      7219      7224      7227      7228
      7219      7224      7227      7229      7220      7219      7224      7225
      7220      7219      7224      7226      7220      7219      7224      7227
      7221      7220      7219      7224      7222      7220      7219      7224
      7223      7220      7219      7224      7225      7224      7227      7228
      7225      7224      7227      7229      7226      7224      7227      7228
      7226      7224      7227      7229      7230      7236      7239      7240
      7230      7236      7239      7241      7230      7236      7239      7242
      7231      7230      7232      7233      7231      7230      7232      7234
      7231      7230      7232      7235      7231      7230      7236      7237
      7231      7230      7236      7238      7231      7230      7236      7239
      7232      7230      7236      7237      7232      7230      7236      7238
      7232      7230      7236      7239      7233      7232      7230      7236
      7234      7232      7230      7236      7235      7232      7230      7236
      7236      7239      7242      7243      7236      7239      7242      7244
      7236      7239      7242      7245      7237      7236      7239      7240
      7237      7236      7239      7241      7237      7236      7239      7242
      7238      7236      7239      7240      7238      7236      7239      7241
      7238      7236      7239      7242      7239      7242      7245      7246
      7239      7242      7245      7247      7239      7242      7245      7251
      7240      7239      7242      7243      7240      7239      7242      7244
      7240      7239      7242      7245      7241      7239      7242      7243
      7241      7239      7242      7244      7241      7239      7242      7245
      7242      7245      7247      7248      7242      7245      7247      7249
      7242      7245      7247      7250      7242      7245      7251      7252
      7242      7245      7251      7253      7242      7245      7251      7254
      7243      7242      7245      7246      7243      7242      7245      7247
      7243      7242      7245      7251      7244      7242      7245      7246
      7244      7242      7245      7247      7244      7242      7245      7251
      7246      7245      7247      7248      7246      7245      7247      7249
      7246      7245      7247      7250      7246      7245      7251      7252
      7246      7245      7251      7253      7246      7245      7251      7254
      7247      7245      7251      7252      7247      7245      7251      7253
      7247      7245      7251      7254      7248      7247      7245      7251
      7249      7247      7245      7251      7250      7247      7245      7251
      5126      5130      5133      5134      5126      5130      5133      5135
      5126      5130      5133      5139      5127      5126      5130      5131
      5127      5126      5130      5132      5127      5126      5130      5133
      5128      5126      5130      5131      5128      5126      5130      5132
      5128      5126      5130      5133      5129      5126      5130      5131
      5129      5126      5130      5132      5129      5126      5130      5133
      5130      5133      5139      5136      5131      5130      5133      5134
      5131      5130      5133      5135      5131      5130      5133      5139
      5132      5130      5133      5134      5132      5130      5133      5135
      5132      5130      5133      5139      5133      5139      5136      5137
      5133      5139      5136      5138      5133      5139      5136      5140
      5134      5133      5139      5136      5135      5133      5139      5136
      5136      5140      5141      5142      5136      5140      5141      5143
      5136      5140      5141      5144      5137      5136      5140      5141
      5138      5136      5140      5141      5139      5136      5140      5141
      5140      5141      5144      5145      5140      5141      5144      5146
      5140      5141      5144      5152      5141      5144      5146      5147
      5141      5144      5152      5153      5141      5144      5152      5154
      5141      5144      5152      5155      5142      5141      5144      5145
      5142      5141      5144      5146      5142      5141      5144      5152
      5143      5141      5144      5145      5143      5141      5144      5146
      5143      5141      5144      5152      5144      5146      5147      5148
      5144      5146      5147      5149      5144      5152      5155      5156
      5145      5144      5146      5147      5145      5144      5152      5153
      5145      5144      5152      5154      5145      5144      5152      5155
      5146      5144      5152      5153      5146      5144      5152      5154
      5146      5144      5152      5155      5146      5147      5149      5150
      5146      5147      5149      5151      5146      5147      5149      5161
      5147      5146      5144      5152      5147      5149      5161      5162
      5147      5149      5161      5163      5147      5149      5161      5164
      5148      5147      5149      5150      5148      5147      5149      5151
      5148      5147      5149      5161      5149      5161      5164      5165
      5149      5161      5164      5166      5149      5161      5164      5167
      5150      5149      5161      5162      5150      5149      5161      5163
      5150      5149      5161      5164      5151      5149      5161      5162
      5151      5149      5161      5163      5151      5149      5161      5164
      5152      5155      5156      5157      5152      5155      5156      5158
      5153      5152      5155      5156      5154      5152      5155      5156
      5155      5156      5158      5159      5155      5156      5158      5160
      5155      5156      5158      5208      5156      5158      5208      5209
      5156      5158      5208      5210      5156      5158      5208      5211
      5157      5156      5158      5159      5157      5156      5158      5160
      5157      5156      5158      5208      5158      5208      5211      5212
      5158      5208      5211      5213      5158      5208      5211      5214
      5159      5158      5208      5209      5159      5158      5208      5210
      5159      5158      5208      5211      5160      5158      5208      5209
      5160      5158      5208      5210      5160      5158      5208      5211
      5161      5164      5167      5168      5161      5164      5167      5169
      5162      5161      5164      5165      5162      5161      5164      5166
      5162      5161      5164      5167      5163      5161      5164      5165
      5163      5161      5164      5166      5163      5161      5164      5167
      5164      5167      5169      5170      5164      5167      5169      5171
      5165      5164      5167      5168      5165      5164      5167      5169
      5166      5164      5167      5168      5166      5164      5167      5169
      5167      5169      5171      5172      5167      5169      5171      5173
      5167      5169      5171      5174      5168      5167      5169      5170
      5168      5167      5169      5171      5169      5171      5174      5175
      5169      5171      5174      5176      5170      5169      5171      5172
      5170      5169      5171      5173      5170      5169      5171      5174
      5171      5174      5176      5177      5171      5174      5176      5178
      5172      5171      5174      5175      5172      5171      5174      5176
      5173      5171      5174      5175      5173      5171      5174      5176
      5174      5176      5178      5179      5174      5176      5178      5180
      5174      5176      5178      5181      5175      5174      5176      5177
      5175      5174      5176      5178      5176      5178      5181      5182
      5176      5178      5181      5183      5177      5176      5178      5179
      5177      5176      5178      5180      5177      5176      5178      5181
      5178      5181      5183      5184      5178      5181      5183      5185
      5179      5178      5181      5182      5179      5178      5181      5183
      5180      5178      5181      5182      5180      5178      5181      5183
      5181      5183      5185      5186      5181      5183      5185      5187
      5181      5183      5185      5188      5182      5181      5183      5184
      5182      5181      5183      5185      5183      5185      5188      5189
      5183      5185      5188      5190      5184      5183      5185      5186
      5184      5183      5185      5187      5184      5183      5185      5188
      5185      5188      5190      5191      5185      5188      5190      5192
      5186      5185      5188      5189      5186      5185      5188      5190
      5187      5185      5188      5189      5187      5185      5188      5190
      5188      5190      5192      5193      5188      5190      5192      5194
      5188      5190      5192      5195      5189      5188      5190      5191
      5189      5188      5190      5192      5190      5192      5195      5196
      5190      5192      5195      5197      5190      5192      5195      5198
      5191      5190      5192      5193      5191      5190      5192      5194
      5191      5190      5192      5195      5192      5195      5198      5199
      5192      5195      5198      5200      5192      5195      5198      5201
      5193      5192      5195      5196      5193      5192      5195      5197
      5193      5192      5195      5198      5194      5192      5195      5196
      5194      5192      5195      5197      5194      5192      5195      5198
      5195      5198      5201      5202      5195      5198      5201      5203
      5195      5198      5201      5204      5196      5195      5198      5199
      5196      5195      5198      5200      5196      5195      5198      5201
      5197      5195      5198      5199      5197      5195      5198      5200
      5197      5195      5198      5201      5198      5201      5204      5205
      5198      5201      5204      5206      5198      5201      5204      5207
      5199      5198      5201      5202      5199      5198      5201      5203
      5199      5198      5201      5204      5200      5198      5201      5202
      5200      5198      5201      5203      5200      5198      5201      5204
      5202      5201      5204      5205      5202      5201      5204      5206
      5202      5201      5204      5207      5203      5201      5204      5205
      5203      5201      5204      5206      5203      5201      5204      5207
      5208      5211      5214      5215      5208      5211      5214      5216
      5208      5211      5214      5217      5209      5208      5211      5212
      5209      5208      5211      5213      5209      5208      5211      5214
      5210      5208      5211      5212      5210      5208      5211      5213
      5210      5208      5211      5214      5211      5214      5217      5218
      5211      5214      5217      5219      5211      5214      5217      5220
      5212      5211      5214      5215      5212      5211      5214      5216
      5212      5211      5214      5217      5213      5211      5214      5215
      5213      5211      5214      5216      5213      5211      5214      5217
      5214      5217      5220      5221      5214      5217      5220      5222
      5214      5217      5220      5223      5215      5214      5217      5218
      5215      5214      5217      5219      5215      5214      5217      5220
      5216      5214      5217      5218      5216      5214      5217      5219
      5216      5214      5217      5220      5217      5220      5223      5224
      5217      5220      5223      5225      5217      5220      5223      5226
      5218      5217      5220      5221      5218      5217      5220      5222
      5218      5217      5220      5223      5219      5217      5220      5221
      5219      5217      5220      5222      5219      5217      5220      5223
      5220      5223      5226      5227      5220      5223      5226      5228
      5220      5223      5226      5229      5221      5220      5223      5224
      5221      5220      5223      5225      5221      5220      5223      5226
      5222      5220      5223      5224      5222      5220      5223      5225
      5222      5220      5223      5226      5223      5226      5229      5230
      5223      5226      5229      5231      5223      5226      5229      5232
      5224      5223      5226      5227      5224      5223      5226      5228
      5224      5223      5226      5229      5225      5223      5226      5227
      5225      5223      5226      5228      5225      5223      5226      5229
      5226      5229      5232      5233      5226      5229      5232      5234
      5226      5229      5232      5235      5227      5226      5229      5230
      5227      5226      5229      5231      5227      5226      5229      5232
      5228      5226      5229      5230      5228      5226      5229      5231
      5228      5226      5229      5232      5229      5232      5235      5236
      5229      5232      5235      5237      5229      5232      5235      5238
      5230      5229      5232      5233      5230      5229      5232      5234
      5230      5229      5232      5235      5231      5229      5232      5233
      5231      5229      5232      5234      5231      5229      5232      5235
      5232      5235      5238      5239      5232      5235      5238      5240
      5232      5235      5238      5241      5233      5232      5235      5236
      5233      5232      5235      5237      5233      5232      5235      5238
      5234      5232      5235      5236      5234      5232      5235      5237
      5234      5232      5235      5238      5235      5238      5241      5242
      5235      5238      5241      5243      5235      5238      5241      5244
      5236      5235      5238      5239      5236      5235      5238      5240
      5236      5235      5238      5241      5237      5235      5238      5239
      5237      5235      5238      5240      5237      5235      5238      5241
      5238      5241      5244      5245      5238      5241      5244      5246
      5238      5241      5244      5247      5239      5238      5241      5242
      5239      5238      5241      5243      5239      5238      5241      5244
      5240      5238      5241      5242      5240      5238      5241      5243
      5240      5238      5241      5244      5241      5244      5247      5248
      5241      5244      5247      5249      5241      5244      5247      5250
      5242      5241      5244      5245      5242      5241      5244      5246
      5242      5241      5244      5247      5243      5241      5244      5245
      5243      5241      5244      5246      5243      5241      5244      5247
      5244      5247      5250      5251      5244      5247      5250      5252
      5244      5247      5250      5253      5245      5244      5247      5248
      5245      5244      5247      5249      5245      5244      5247      5250
      5246      5244      5247      5248      5246      5244      5247      5249
      5246      5244      5247      5250      5247      5250      5253      5254
      5247      5250      5253      5255      5247      5250      5253      5256
      5248      5247      5250      5251      5248      5247      5250      5252
      5248      5247      5250      5253      5249      5247      5250      5251
      5249      5247      5250      5252      5249      5247      5250      5253
      5251      5250      5253      5254      5251      5250      5253      5255
      5251      5250      5253      5256      5252      5250      5253      5254
      5252      5250      5253      5255      5252      5250      5253      5256
      7255      7259      7262      7263      7255      7259      7262      7293
      7255      7301      7298      7293      7255      7301      7298      7299
      7255      7301      7298      7300      7256      7255      7257      7258
      7256      7255      7259      7260      7256      7255      7259      7261
      7256      7255      7259      7262      7256      7255      7301      7298
      7256      7255      7301      7302      7256      7255      7301      7303
      7257      7255      7259      7260      7257      7255      7259      7261
      7257      7255      7259      7262      7257      7255      7301      7298
      7257      7255      7301      7302      7257      7255      7301      7303
      7258      7257      7255      7259      7258      7257      7255      7301
      7259      7255      7301      7298      7259      7255      7301      7302
      7259      7255      7301      7303      7259      7262      7263      7264
      7259      7262      7263      7265      7259      7262      7293      7291
      7259      7262      7293      7294      7259      7262      7293      7298
      7260      7259      7255      7301      7260      7259      7262      7263
      7260      7259      7262      7293      7261      7259      7255      7301
      7261      7259      7262      7263      7261      7259      7262      7293
      7262      7259      7255      7301      7262      7263      7265      7266
      7262      7263      7265      7267      7262      7263      7265      7268
      7262      7293      7291      7268      7262      7293      7291      7288
      7262      7293      7291      7292      7262      7293      7294      7295
      7262      7293      7294      7296      7262      7293      7294      7297
      7262      7293      7298      7299      7262      7293      7298      7300
      7262      7293      7298      7301      7263      7262      7293      7291
      7263      7262      7293      7294      7263      7262      7293      7298
      7263      7265      7268      7269      7263      7265      7268      7270
      7263      7265      7268      7291      7264      7263      7262      7293
      7264      7263      7265      7266      7264      7263      7265      7267
      7264      7263      7265      7268      7265      7263      7262      7293
      7265      7268      7270      7271      7265      7268      7270      7272
      7265      7268      7270      7280      7265      7268      7291      7288
      7265      7268      7291      7292      7265      7268      7291      7293
      7266      7265      7268      7269      7266      7265      7268      7270
      7266      7265      7268      7291      7267      7265      7268      7269
      7267      7265      7268      7270      7267      7265      7268      7291
      7268      7270      7272      7273      7268      7270      7272      7274
      7268      7270      7272      7275      7268      7270      7280      7278
      7268      7270      7280      7281      7268      7270      7280      7285
      7268      7291      7288      7285      7268      7291      7288      7289
      7268      7291      7288      7290      7268      7291      7293      7294
      7268      7291      7293      7298      7269      7268      7270      7271
      7269      7268      7270      7272      7269      7268      7270      7280
      7269      7268      7291      7288      7269      7268      7291      7292
      7269      7268      7291      7293      7270      7268      7291      7288
      7270      7268      7291      7292      7270      7268      7291      7293
      7270      7272      7275      7276      7270      7272      7275      7277
      7270      7272      7275      7278      7270      7280      7278      7275
      7270      7280      7278      7279      7270      7280      7278      7304
      7270      7280      7281      7282      7270      7280      7281      7283
      7270      7280      7281      7284      7270      7280      7285      7286
      7270      7280      7285      7287      7270      7280      7285      7288
      7271      7270      7268      7291      7271      7270      7272      7273
      7271      7270      7272      7274      7271      7270      7272      7275
      7271      7270      7280      7278      7271      7270      7280      7281
      7271      7270      7280      7285      7272      7270      7268      7291
      7272      7270      7280      7278      7272      7270      7280      7281
      7272      7270      7280      7285      7272      7275      7278      7279
      7272      7275      7278      7280      7272      7275      7278      7304
      7273      7272      7270      7280      7273      7272      7275      7276
      7273      7272      7275      7277      7273      7272      7275      7278
      7274      7272      7270      7280      7274      7272      7275      7276
      7274      7272      7275      7277      7274      7272      7275      7278
      7275      7272      7270      7280      7275      7278      7280      7281
      7275      7278      7280      7285      7275      7278      7304      7305
      7275      7278      7304      7306      7275      7278      7304      7310
      7276      7275      7278      7279      7276      7275      7278      7280
      7276      7275      7278      7304      7277      7275      7278      7279
      7277      7275      7278      7280      7277      7275      7278      7304
      7278      7280      7281      7282      7278      7280      7281      7283
      7278      7280      7281      7284      7278      7280      7285      7286
      7278      7280      7285      7287      7278      7280      7285      7288
      7278      7304      7306      7307      7278      7304      7306      7308
      7278      7304      7306      7309      7278      7304      7310      7311
      7278      7304      7310      7312      7278      7304      7310      7313
      7279      7278      7280      7281      7279      7278      7280      7285
      7279      7278      7304      7305      7279      7278      7304      7306
      7279      7278      7304      7310      7280      7270      7268      7291
      7280      7278      7304      7305      7280      7278      7304      7306
      7280      7278      7304      7310      7280      7285      7288      7289
      7280      7285      7288      7290      7280      7285      7288      7291
      7281      7280      7278      7304      7281      7280      7285      7286
      7281      7280      7285      7287      7281      7280      7285      7288
      7282      7281      7280      7285      7283      7281      7280      7285
      7284      7281      7280      7285      7285      7280      7278      7304
      7285      7288      7291      7292      7285      7288      7291      7293
      7286      7285      7288      7289      7286      7285      7288      7290
      7286      7285      7288      7291      7287      7285      7288      7289
      7287      7285      7288      7290      7287      7285      7288      7291
      7288      7291      7293      7294      7288      7291      7293      7298
      7289      7288      7291      7292      7289      7288      7291      7293
      7290      7288      7291      7292      7290      7288      7291      7293
      7291      7293      7294      7295      7291      7293      7294      7296
      7291      7293      7294      7297      7291      7293      7298      7299
      7291      7293      7298      7300      7291      7293      7298      7301
      7292      7291      7293      7294      7292      7291      7293      7298
      7293      7298      7301      7302      7293      7298      7301      7303
      7294      7293      7298      7299      7294      7293      7298      7300
      7294      7293      7298      7301      7295      7294      7293      7298
      7296      7294      7293      7298      7297      7294      7293      7298
      7299      7298      7301      7302      7299      7298      7301      7303
      7300      7298      7301      7302      7300      7298      7301      7303
      7304      7310      7313      7314      7304      7310      7313      7315
      7304      7310      7313      7316      7305      7304      7306      7307
      7305      7304      7306      7308      7305      7304      7306      7309
      7305      7304      7310      7311      7305      7304      7310      7312
      7305      7304      7310      7313      7306      7304      7310      7311
      7306      7304      7310      7312      7306      7304      7310      7313
      7307      7306      7304      7310      7308      7306      7304      7310
      7309      7306      7304      7310      7310      7313      7316      7317
      7310      7313      7316      7318      7310      7313      7316      7319
      7311      7310      7313      7314      7311      7310      7313      7315
      7311      7310      7313      7316      7312      7310      7313      7314
      7312      7310      7313      7315      7312      7310      7313      7316
      7313      7316      7319      7320      7313      7316      7319      7321
      7313      7316      7319      7325      7314      7313      7316      7317
      7314      7313      7316      7318      7314      7313      7316      7319
      7315      7313      7316      7317      7315      7313      7316      7318
      7315      7313      7316      7319      7316      7319      7321      7322
      7316      7319      7321      7323      7316      7319      7321      7324
      7316      7319      7325      7326      7316      7319      7325      7327
      7316      7319      7325      7328      7317      7316      7319      7320
      7317      7316      7319      7321      7317      7316      7319      7325
      7318      7316      7319      7320      7318      7316      7319      7321
      7318      7316      7319      7325      7320      7319      7321      7322
      7320      7319      7321      7323      7320      7319      7321      7324
      7320      7319      7325      7326      7320      7319      7325      7327
      7320      7319      7325      7328      7321      7319      7325      7326
      7321      7319      7325      7327      7321      7319      7325      7328
      7322      7321      7319      7325      7323      7321      7319      7325
      7324      7321      7319      7325      9955      9956      9971      9972
      9955      9956      9971      9973      9955      9956      9971      9977
      9956      9955      9959      9960      9956      9955      9959      9961
      9956      9955      9959      9962      9956      9955      9963      9964
      9956      9955      9963      9965      9956      9955      9963      9966
      9956      9955      9967      9968      9956      9955      9967      9969
      9956      9955      9967      9970      9956      9971      9977      9974
      9957      9956      9955      9959      9957      9956      9955      9963
      9957      9956      9955      9967      9957      9956      9971      9972
      9957      9956      9971      9973      9957      9956      9971      9977
      9958      9956      9955      9959      9958      9956      9955      9963
      9958      9956      9955      9967      9958      9956      9971      9972
      9958      9956      9971      9973      9958      9956      9971      9977
      9959      9955      9956      9971      9959      9955      9963      9964
      9959      9955      9963      9965      9959      9955      9963      9966
      9959      9955      9967      9968      9959      9955      9967      9969
      9959      9955      9967      9970      9960      9959      9955      9963
      9960      9959      9955      9967      9961      9959      9955      9963
      9961      9959      9955      9967      9962      9959      9955      9963
      9962      9959      9955      9967      9963      9955      9956      9971
      9963      9955      9967      9968      9963      9955      9967      9969
      9963      9955      9967      9970      9964      9963      9955      9967
      9965      9963      9955      9967      9966      9963      9955      9967
      9967      9955      9956      9971      9971      9977      9974      9975
      9971      9977      9974      9976      9971      9977      9974      9978
      9972      9971      9977      9974      9973      9971      9977      9974
      9974      9978      9979      9980      9974      9978      9979      9981
      9974      9978      9979      9982      9975      9974      9978      9979
      9976      9974      9978      9979      9977      9974      9978      9979
      9978      9979      9982      9983      9978      9979      9982      9984
      9978      9979      9982      9990      9979      9982      9984      9985
      9979      9982      9990      9991      9979      9982      9990      9992
      9979      9982      9990      9993      9980      9979      9982      9983
      9980      9979      9982      9984      9980      9979      9982      9990
      9981      9979      9982      9983      9981      9979      9982      9984
      9981      9979      9982      9990      9982      9984      9985      9986
      9982      9984      9985      9987      9982      9990      9993      9994
      9983      9982      9984      9985      9983      9982      9990      9991
      9983      9982      9990      9992      9983      9982      9990      9993
      9984      9982      9990      9991      9984      9982      9990      9992
      9984      9982      9990      9993      9984      9985      9987      9988
      9984      9985      9987      9989      9984      9985      9987      9999
      9985      9984      9982      9990      9985      9987      9999     10000
      9985      9987      9999     10001      9985      9987      9999     10002
      9986      9985      9987      9988      9986      9985      9987      9989
      9986      9985      9987      9999      9987      9999     10002     10003
      9987      9999     10002     10004      9987      9999     10002     10005
      9988      9987      9999     10000      9988      9987      9999     10001
      9988      9987      9999     10002      9989      9987      9999     10000
      9989      9987      9999     10001      9989      9987      9999     10002
      9990      9993      9994      9995      9990      9993      9994      9996
      9991      9990      9993      9994      9992      9990      9993      9994
      9993      9994      9996      9997      9993      9994      9996      9998
      9993      9994      9996     10046      9994      9996     10046     10047
      9994      9996     10046     10048      9994      9996     10046     10049
      9995      9994      9996      9997      9995      9994      9996      9998
      9995      9994      9996     10046      9996     10046     10049     10050
      9996     10046     10049     10051      9996     10046     10049     10052
      9997      9996     10046     10047      9997      9996     10046     10048
      9997      9996     10046     10049      9998      9996     10046     10047
      9998      9996     10046     10048      9998      9996     10046     10049
      9999     10002     10005     10006      9999     10002     10005     10007
      9999     10002     10005     10008     10000      9999     10002     10003
     10000      9999     10002     10004     10000      9999     10002     10005
     10001      9999     10002     10003     10001      9999     10002     10004
     10001      9999     10002     10005     10002     10005     10008     10009
     10002     10005     10008     10010     10002     10005     10008     10011
     10003     10002     10005     10006     10003     10002     10005     10007
     10003     10002     10005     10008     10004     10002     10005     10006
     10004     10002     10005     10007     10004     10002     10005     10008
     10005     10008     10011     10012     10005     10008     10011     10013
     10005     10008     10011     10014     10006     10005     10008     10009
     10006     10005     10008     10010     10006     10005     10008     10011
     10007     10005     10008     10009     10007     10005     10008     10010
     10007     10005     10008     10011     10008     10011     10014     10015
     10008     10011     10014     10016     10008     10011     10014     10017
     10009     10008     10011     10012     10009     10008     10011     10013
     10009     10008     10011     10014     10010     10008     10011     10012
     10010     10008     10011     10013     10010     10008     10011     10014
     10011     10014     10017     10018     10011     10014     10017     10019
     10012     10011     10014     10015     10012     10011     10014     10016
     10012     10011     10014     10017     10013     10011     10014     10015
     10013     10011     10014     10016     10013     10011     10014     10017
     10014     10017     10019     10020     10014     10017     10019     10021
     10015     10014     10017     10018     10015     10014     10017     10019
     10016     10014     10017     10018     10016     10014     10017     10019
     10017     10019     10021     10022     10017     10019     10021     10023
     10017     10019     10021     10024     10018     10017     10019     10020
     10018     10017     10019     10021     10019     10021     10024     10025
     10019     10021     10024     10026     10019     10021     10024     10027
     10020     10019     10021     10022     10020     10019     10021     10023
     10020     10019     10021     10024     10021     10024     10027     10028
     10021     10024     10027     10029     10021     10024     10027     10030
     10022     10021     10024     10025     10022     10021     10024     10026
     10022     10021     10024     10027     10023     10021     10024     10025
     10023     10021     10024     10026     10023     10021     10024     10027
     10024     10027     10030     10031     10024     10027     10030     10032
     10024     10027     10030     10033     10025     10024     10027     10028
     10025     10024     10027     10029     10025     10024     10027     10030
     10026     10024     10027     10028     10026     10024     10027     10029
     10026     10024     10027     10030     10027     10030     10033     10034
     10027     10030     10033     10035     10027     10030     10033     10036
     10028     10027     10030     10031     10028     10027     10030     10032
     10028     10027     10030     10033     10029     10027     10030     10031
     10029     10027     10030     10032     10029     10027     10030     10033
     10030     10033     10036     10037     10030     10033     10036     10038
     10030     10033     10036     10039     10031     10030     10033     10034
     10031     10030     10033     10035     10031     10030     10033     10036
     10032     10030     10033     10034     10032     10030     10033     10035
     10032     10030     10033     10036     10033     10036     10039     10040
     10033     10036     10039     10041     10033     10036     10039     10042
     10034     10033     10036     10037     10034     10033     10036     10038
     10034     10033     10036     10039     10035     10033     10036     10037
     10035     10033     10036     10038     10035     10033     10036     10039
     10036     10039     10042     10043     10036     10039     10042     10044
     10036     10039     10042     10045     10037     10036     10039     10040
     10037     10036     10039     10041     10037     10036     10039     10042
     10038     10036     10039     10040     10038     10036     10039     10041
     10038     10036     10039     10042     10040     10039     10042     10043
     10040     10039     10042     10044     10040     10039     10042     10045
     10041     10039     10042     10043     10041     10039     10042     10044
     10041     10039     10042     10045     10046     10049     10052     10053
     10046     10049     10052     10054     10046     10049     10052     10055
     10047     10046     10049     10050     10047     10046     10049     10051
     10047     10046     10049     10052     10048     10046     10049     10050
     10048     10046     10049     10051     10048     10046     10049     10052
     10049     10052     10055     10056     10049     10052     10055     10057
     10049     10052     10055     10058     10050     10049     10052     10053
     10050     10049     10052     10054     10050     10049     10052     10055
     10051     10049     10052     10053     10051     10049     10052     10054
     10051     10049     10052     10055     10052     10055     10058     10059
     10052     10055     10058     10060     10052     10055     10058     10061
     10053     10052     10055     10056     10053     10052     10055     10057
     10053     10052     10055     10058     10054     10052     10055     10056
     10054     10052     10055     10057     10054     10052     10055     10058
     10055     10058     10061     10062     10055     10058     10061     10063
     10055     10058     10061     10064     10056     10055     10058     10059
     10056     10055     10058     10060     10056     10055     10058     10061
     10057     10055     10058     10059     10057     10055     10058     10060
     10057     10055     10058     10061     10058     10061     10064     10065
     10058     10061     10064     10066     10058     10061     10064     10067
     10059     10058     10061     10062     10059     10058     10061     10063
     10059     10058     10061     10064     10060     10058     10061     10062
     10060     10058     10061     10063     10060     10058     10061     10064
     10061     10064     10067     10068     10061     10064     10067     10069
     10061     10064     10067     10070     10062     10061     10064     10065
     10062     10061     10064     10066     10062     10061     10064     10067
     10063     10061     10064     10065     10063     10061     10064     10066
     10063     10061     10064     10067     10064     10067     10070     10071
     10064     10067     10070     10072     10064     10067     10070     10073
     10065     10064     10067     10068     10065     10064     10067     10069
     10065     10064     10067     10070     10066     10064     10067     10068
     10066     10064     10067     10069     10066     10064     10067     10070
     10067     10070     10073     10074     10067     10070     10073     10075
     10067     10070     10073     10076     10068     10067     10070     10071
     10068     10067     10070     10072     10068     10067     10070     10073
     10069     10067     10070     10071     10069     10067     10070     10072
     10069     10067     10070     10073     10070     10073     10076     10077
     10070     10073     10076     10078     10070     10073     10076     10079
     10071     10070     10073     10074     10071     10070     10073     10075
     10071     10070     10073     10076     10072     10070     10073     10074
     10072     10070     10073     10075     10072     10070     10073     10076
     10073     10076     10079     10080     10073     10076     10079     10081
     10073     10076     10079     10082     10074     10073     10076     10077
     10074     10073     10076     10078     10074     10073     10076     10079
     10075     10073     10076     10077     10075     10073     10076     10078
     10075     10073     10076     10079     10076     10079     10082     10083
     10076     10079     10082     10084     10076     10079     10082     10085
     10077     10076     10079     10080     10077     10076     10079     10081
     10077     10076     10079     10082     10078     10076     10079     10080
     10078     10076     10079     10081     10078     10076     10079     10082
     10079     10082     10085     10086     10079     10082     10085     10087
     10079     10082     10085     10088     10080     10079     10082     10083
     10080     10079     10082     10084     10080     10079     10082     10085
     10081     10079     10082     10083     10081     10079     10082     10084
     10081     10079     10082     10085     10083     10082     10085     10086
     10083     10082     10085     10087     10083     10082     10085     10088
     10084     10082     10085     10086     10084     10082     10085     10087
     10084     10082     10085     10088      3290      3294      3296      3297
      3290      3294      3296      3298      3290      3294      3299      3300
      3290      3294      3299      3301      3290      3294      3299      3305
      3291      3290      3294      3295      3291      3290      3294      3296
      3291      3290      3294      3299      3292      3290      3294      3295
      3292      3290      3294      3296      3292      3290      3294      3299
      3293      3290      3294      3295      3293      3290      3294      3296
      3293      3290      3294      3299      3294      3299      3305      3302
      3295      3294      3296      3297      3295      3294      3296      3298
      3295      3294      3299      3300      3295      3294      3299      3301
      3295      3294      3299      3305      3296      3294      3299      3300
      3296      3294      3299      3301      3296      3294      3299      3305
      3297      3296      3294      3299      3298      3296      3294      3299
      3299      3305      3302      3303      3299      3305      3302      3304
      3299      3305      3302      3306      3300      3299      3305      3302
      3301      3299      3305      3302      3302      3306      3307      3308
      3302      3306      3307      3309      3302      3306      3307      3310
      3303      3302      3306      3307      3304      3302      3306      3307
      3305      3302      3306      3307      3306      3307      3310      3311
      3306      3307      3310      3312      3306      3307      3310      3318
      3307      3310      3312      3313      3307      3310      3318      3319
      3307      3310      3318      3320      3307      3310      3318      3321
      3308      3307      3310      3311      3308      3307      3310      3312
      3308      3307      3310      3318      3309      3307      3310      3311
      3309      3307      3310      3312      3309      3307      3310      3318
      3310      3312      3313      3314      3310      3312      3313      3315
      3310      3318      3321      3322      3311      3310      3312      3313
      3311      3310      3318      3319      3311      3310      3318      3320
      3311      3310      3318      3321      3312      3310      3318      3319
      3312      3310      3318      3320      3312      3310      3318      3321
      3312      3313      3315      3316      3312      3313      3315      3317
      3312      3313      3315      3327      3313      3312      3310      3318
      3313      3315      3327      3328      3313      3315      3327      3329
      3313      3315      3327      3330      3314      3313      3315      3316
      3314      3313      3315      3317      3314      3313      3315      3327
      3315      3327      3330      3331      3315      3327      3330      3332
      3315      3327      3330      3333      3316      3315      3327      3328
      3316      3315      3327      3329      3316      3315      3327      3330
      3317      3315      3327      3328      3317      3315      3327      3329
      3317      3315      3327      3330      3318      3321      3322      3323
      3318      3321      3322      3324      3319      3318      3321      3322
      3320      3318      3321      3322      3321      3322      3324      3325
      3321      3322      3324      3326      3321      3322      3324      3374
      3322      3324      3374      3375      3322      3324      3374      3376
      3322      3324      3374      3377      3323      3322      3324      3325
      3323      3322      3324      3326      3323      3322      3324      3374
      3324      3374      3377      3378      3324      3374      3377      3379
      3324      3374      3377      3380      3325      3324      3374      3375
      3325      3324      3374      3376      3325      3324      3374      3377
      3326      3324      3374      3375      3326      3324      3374      3376
      3326      3324      3374      3377      3327      3330      3333      3334
      3327      3330      3333      3335      3328      3327      3330      3331
      3328      3327      3330      3332      3328      3327      3330      3333
      3329      3327      3330      3331      3329      3327      3330      3332
      3329      3327      3330      3333      3330      3333      3335      3336
      3330      3333      3335      3337      3331      3330      3333      3334
      3331      3330      3333      3335      3332      3330      3333      3334
      3332      3330      3333      3335      3333      3335      3337      3338
      3333      3335      3337      3339      3333      3335      3337      3340
      3334      3333      3335      3336      3334      3333      3335      3337
      3335      3337      3340      3341      3335      3337      3340      3342
      3336      3335      3337      3338      3336      3335      3337      3339
      3336      3335      3337      3340      3337      3340      3342      3343
      3337      3340      3342      3344      3338      3337      3340      3341
      3338      3337      3340      3342      3339      3337      3340      3341
      3339      3337      3340      3342      3340      3342      3344      3345
      3340      3342      3344      3346      3340      3342      3344      3347
      3341      3340      3342      3343      3341      3340      3342      3344
      3342      3344      3347      3348      3342      3344      3347      3349
      3343      3342      3344      3345      3343      3342      3344      3346
      3343      3342      3344      3347      3344      3347      3349      3350
      3344      3347      3349      3351      3345      3344      3347      3348
      3345      3344      3347      3349      3346      3344      3347      3348
      3346      3344      3347      3349      3347      3349      3351      3352
      3347      3349      3351      3353      3347      3349      3351      3354
      3348      3347      3349      3350      3348      3347      3349      3351
      3349      3351      3354      3355      3349      3351      3354      3356
      3350      3349      3351      3352      3350      3349      3351      3353
      3350      3349      3351      3354      3351      3354      3356      3357
      3351      3354      3356      3358      3352      3351      3354      3355
      3352      3351      3354      3356      3353      3351      3354      3355
      3353      3351      3354      3356      3354      3356      3358      3359
      3354      3356      3358      3360      3354      3356      3358      3361
      3355      3354      3356      3357      3355      3354      3356      3358
      3356      3358      3361      3362      3356      3358      3361      3363
      3356      3358      3361      3364      3357      3356      3358      3359
      3357      3356      3358      3360      3357      3356      3358      3361
      3358      3361      3364      3365      3358      3361      3364      3366
      3358      3361      3364      3367      3359      3358      3361      3362
      3359      3358      3361      3363      3359      3358      3361      3364
      3360      3358      3361      3362      3360      3358      3361      3363
      3360      3358      3361      3364      3361      3364      3367      3368
      3361      3364      3367      3369      3361      3364      3367      3370
      3362      3361      3364      3365      3362      3361      3364      3366
      3362      3361      3364      3367      3363      3361      3364      3365
      3363      3361      3364      3366      3363      3361      3364      3367
      3364      3367      3370      3371      3364      3367      3370      3372
      3364      3367      3370      3373      3365      3364      3367      3368
      3365      3364      3367      3369      3365      3364      3367      3370
      3366      3364      3367      3368      3366      3364      3367      3369
      3366      3364      3367      3370      3368      3367      3370      3371
      3368      3367      3370      3372      3368      3367      3370      3373
      3369      3367      3370      3371      3369      3367      3370      3372
      3369      3367      3370      3373      3374      3377      3380      3381
      3374      3377      3380      3382      3374      3377      3380      3383
      3375      3374      3377      3378      3375      3374      3377      3379
      3375      3374      3377      3380      3376      3374      3377      3378
      3376      3374      3377      3379      3376      3374      3377      3380
      3377      3380      3383      3384      3377      3380      3383      3385
      3377      3380      3383      3386      3378      3377      3380      3381
      3378      3377      3380      3382      3378      3377      3380      3383
      3379      3377      3380      3381      3379      3377      3380      3382
      3379      3377      3380      3383      3380      3383      3386      3387
      3380      3383      3386      3388      3380      3383      3386      3389
      3381      3380      3383      3384      3381      3380      3383      3385
      3381      3380      3383      3386      3382      3380      3383      3384
      3382      3380      3383      3385      3382      3380      3383      3386
      3383      3386      3389      3390      3383      3386      3389      3391
      3383      3386      3389      3392      3384      3383      3386      3387
      3384      3383      3386      3388      3384      3383      3386      3389
      3385      3383      3386      3387      3385      3383      3386      3388
      3385      3383      3386      3389      3386      3389      3392      3393
      3386      3389      3392      3394      3386      3389      3392      3395
      3387      3386      3389      3390      3387      3386      3389      3391
      3387      3386      3389      3392      3388      3386      3389      3390
      3388      3386      3389      3391      3388      3386      3389      3392
      3389      3392      3395      3396      3389      3392      3395      3397
      3389      3392      3395      3398      3390      3389      3392      3393
      3390      3389      3392      3394      3390      3389      3392      3395
      3391      3389      3392      3393      3391      3389      3392      3394
      3391      3389      3392      3395      3392      3395      3398      3399
      3392      3395      3398      3400      3392      3395      3398      3401
      3393      3392      3395      3396      3393      3392      3395      3397
      3393      3392      3395      3398      3394      3392      3395      3396
      3394      3392      3395      3397      3394      3392      3395      3398
      3395      3398      3401      3402      3395      3398      3401      3403
      3395      3398      3401      3404      3396      3395      3398      3399
      3396      3395      3398      3400      3396      3395      3398      3401
      3397      3395      3398      3399      3397      3395      3398      3400
      3397      3395      3398      3401      3398      3401      3404      3405
      3398      3401      3404      3406      3398      3401      3404      3407
      3399      3398      3401      3402      3399      3398      3401      3403
      3399      3398      3401      3404      3400      3398      3401      3402
      3400      3398      3401      3403      3400      3398      3401      3404
      3401      3404      3407      3408      3401      3404      3407      3409
      3401      3404      3407      3410      3402      3401      3404      3405
      3402      3401      3404      3406      3402      3401      3404      3407
      3403      3401      3404      3405      3403      3401      3404      3406
      3403      3401      3404      3407      3404      3407      3410      3411
      3404      3407      3410      3412      3404      3407      3410      3413
      3405      3404      3407      3408      3405      3404      3407      3409
      3405      3404      3407      3410      3406      3404      3407      3408
      3406      3404      3407      3409      3406      3404      3407      3410
      3407      3410      3413      3414      3407      3410      3413      3415
      3407      3410      3413      3416      3408      3407      3410      3411
      3408      3407      3410      3412      3408      3407      3410      3413
      3409      3407      3410      3411      3409      3407      3410      3412
      3409      3407      3410      3413      3410      3413      3416      3417
      3410      3413      3416      3418      3410      3413      3416      3419
      3411      3410      3413      3414      3411      3410      3413      3415
      3411      3410      3413      3416      3412      3410      3413      3414
      3412      3410      3413      3415      3412      3410      3413      3416
      3413      3416      3419      3420      3413      3416      3419      3421
      3413      3416      3419      3422      3414      3413      3416      3417
      3414      3413      3416      3418      3414      3413      3416      3419
      3415      3413      3416      3417      3415      3413      3416      3418
      3415      3413      3416      3419      3417      3416      3419      3420
      3417      3416      3419      3421      3417      3416      3419      3422
      3418      3416      3419      3420      3418      3416      3419      3421
      3418      3416      3419      3422      8295      8308      8311      8312
      8295      8308      8311      8313      8295      8308      8311      8317
      8296      8295      8300      8301      8296      8295      8300      8302
      8296      8295      8300      8303      8296      8295      8304      8305
      8296      8295      8304      8306      8296      8295      8304      8307
      8296      8295      8308      8309      8296      8295      8308      8310
      8296      8295      8308      8311      8297      8296      8295      8300
      8297      8296      8295      8304      8297      8296      8295      8308
      8298      8296      8295      8300      8298      8296      8295      8304
      8298      8296      8295      8308      8299      8296      8295      8300
      8299      8296      8295      8304      8299      8296      8295      8308
      8300      8295      8304      8305      8300      8295      8304      8306
      8300      8295      8304      8307      8300      8295      8308      8309
      8300      8295      8308      8310      8300      8295      8308      8311
      8301      8300      8295      8304      8301      8300      8295      8308
      8302      8300      8295      8304      8302      8300      8295      8308
      8303      8300      8295      8304      8303      8300      8295      8308
      8304      8295      8308      8309      8304      8295      8308      8310
      8304      8295      8308      8311      8305      8304      8295      8308
      8306      8304      8295      8308      8307      8304      8295      8308
      8308      8311      8317      8314      8309      8308      8311      8312
      8309      8308      8311      8313      8309      8308      8311      8317
      8310      8308      8311      8312      8310      8308      8311      8313
      8310      8308      8311      8317      8311      8317      8314      8315
      8311      8317      8314      8316      8311      8317      8314      8318
      8312      8311      8317      8314      8313      8311      8317      8314
      8314      8318      8319      8320      8314      8318      8319      8321
      8314      8318      8319      8322      8315      8314      8318      8319
      8316      8314      8318      8319      8317      8314      8318      8319
      8318      8319      8322      8323      8318      8319      8322      8324
      8318      8319      8322      8330      8319      8322      8324      8325
      8319      8322      8330      8331      8319      8322      8330      8332
      8319      8322      8330      8333      8320      8319      8322      8323
      8320      8319      8322      8324      8320      8319      8322      8330
      8321      8319      8322      8323      8321      8319      8322      8324
      8321      8319      8322      8330      8322      8324      8325      8326
      8322      8324      8325      8327      8322      8330      8333      8334
      8323      8322      8324      8325      8323      8322      8330      8331
      8323      8322      8330      8332      8323      8322      8330      8333
      8324      8322      8330      8331      8324      8322      8330      8332
      8324      8322      8330      8333      8324      8325      8327      8328
      8324      8325      8327      8329      8324      8325      8327      8339
      8325      8324      8322      8330      8325      8327      8339      8340
      8325      8327      8339      8341      8325      8327      8339      8342
      8326      8325      8327      8328      8326      8325      8327      8329
      8326      8325      8327      8339      8327      8339      8342      8343
      8327      8339      8342      8344      8327      8339      8342      8345
      8328      8327      8339      8340      8328      8327      8339      8341
      8328      8327      8339      8342      8329      8327      8339      8340
      8329      8327      8339      8341      8329      8327      8339      8342
      8330      8333      8334      8335      8330      8333      8334      8336
      8331      8330      8333      8334      8332      8330      8333      8334
      8333      8334      8336      8337      8333      8334      8336      8338
      8333      8334      8336      8384      8334      8336      8384      8385
      8334      8336      8384      8386      8334      8336      8384      8387
      8335      8334      8336      8337      8335      8334      8336      8338
      8335      8334      8336      8384      8336      8384      8387      8388
      8336      8384      8387      8389      8336      8384      8387      8390
      8337      8336      8384      8385      8337      8336      8384      8386
      8337      8336      8384      8387      8338      8336      8384      8385
      8338      8336      8384      8386      8338      8336      8384      8387
      8339      8342      8345      8346      8339      8342      8345      8347
      8339      8342      8345      8348      8340      8339      8342      8343
      8340      8339      8342      8344      8340      8339      8342      8345
      8341      8339      8342      8343      8341      8339      8342      8344
      8341      8339      8342      8345      8342      8345      8348      8349
      8342      8345      8348      8350      8342      8345      8348      8351
      8343      8342      8345      8346      8343      8342      8345      8347
      8343      8342      8345      8348      8344      8342      8345      8346
      8344      8342      8345      8347      8344      8342      8345      8348
      8345      8348      8351      8352      8345      8348      8351      8353
      8345      8348      8351      8354      8346      8345      8348      8349
      8346      8345      8348      8350      8346      8345      8348      8351
      8347      8345      8348      8349      8347      8345      8348      8350
      8347      8345      8348      8351      8348      8351      8354      8355
      8348      8351      8354      8356      8348      8351      8354      8357
      8349      8348      8351      8352      8349      8348      8351      8353
      8349      8348      8351      8354      8350      8348      8351      8352
      8350      8348      8351      8353      8350      8348      8351      8354
      8351      8354      8357      8358      8351      8354      8357      8359
      8352      8351      8354      8355      8352      8351      8354      8356
      8352      8351      8354      8357      8353      8351      8354      8355
      8353      8351      8354      8356      8353      8351      8354      8357
      8354      8357      8359      8360      8354      8357      8359      8361
      8355      8354      8357      8358      8355      8354      8357      8359
      8356      8354      8357      8358      8356      8354      8357      8359
      8357      8359      8361      8362      8357      8359      8361      8363
      8357      8359      8361      8364      8358      8357      8359      8360
      8358      8357      8359      8361      8359      8361      8364      8365
      8359      8361      8364      8366      8360      8359      8361      8362
      8360      8359      8361      8363      8360      8359      8361      8364
      8361      8364      8366      8367      8361      8364      8366      8368
      8362      8361      8364      8365      8362      8361      8364      8366
      8363      8361      8364      8365      8363      8361      8364      8366
      8364      8366      8368      8369      8364      8366      8368      8370
      8364      8366      8368      8371      8365      8364      8366      8367
      8365      8364      8366      8368      8366      8368      8371      8372
      8366      8368      8371      8373      8366      8368      8371      8374
      8367      8366      8368      8369      8367      8366      8368      8370
      8367      8366      8368      8371      8368      8371      8374      8375
      8368      8371      8374      8376      8368      8371      8374      8377
      8369      8368      8371      8372      8369      8368      8371      8373
      8369      8368      8371      8374      8370      8368      8371      8372
      8370      8368      8371      8373      8370      8368      8371      8374
      8371      8374      8377      8378      8371      8374      8377      8379
      8371      8374      8377      8380      8372      8371      8374      8375
      8372      8371      8374      8376      8372      8371      8374      8377
      8373      8371      8374      8375      8373      8371      8374      8376
      8373      8371      8374      8377      8374      8377      8380      8381
      8374      8377      8380      8382      8374      8377      8380      8383
      8375      8374      8377      8378      8375      8374      8377      8379
      8375      8374      8377      8380      8376      8374      8377      8378
      8376      8374      8377      8379      8376      8374      8377      8380
      8378      8377      8380      8381      8378      8377      8380      8382
      8378      8377      8380      8383      8379      8377      8380      8381
      8379      8377      8380      8382      8379      8377      8380      8383
      8384      8387      8390      8391      8384      8387      8390      8392
      8384      8387      8390      8393      8385      8384      8387      8388
      8385      8384      8387      8389      8385      8384      8387      8390
      8386      8384      8387      8388      8386      8384      8387      8389
      8386      8384      8387      8390      8387      8390      8393      8394
      8387      8390      8393      8395      8387      8390      8393      8396
      8388      8387      8390      8391      8388      8387      8390      8392
      8388      8387      8390      8393      8389      8387      8390      8391
      8389      8387      8390      8392      8389      8387      8390      8393
      8390      8393      8396      8397      8390      8393      8396      8398
      8390      8393      8396      8399      8391      8390      8393      8394
      8391      8390      8393      8395      8391      8390      8393      8396
      8392      8390      8393      8394      8392      8390      8393      8395
      8392      8390      8393      8396      8393      8396      8399      8400
      8393      8396      8399      8401      8393      8396      8399      8402
      8394      8393      8396      8397      8394      8393      8396      8398
      8394      8393      8396      8399      8395      8393      8396      8397
      8395      8393      8396      8398      8395      8393      8396      8399
      8396      8399      8402      8403      8396      8399      8402      8404
      8396      8399      8402      8405      8397      8396      8399      8400
      8397      8396      8399      8401      8397      8396      8399      8402
      8398      8396      8399      8400      8398      8396      8399      8401
      8398      8396      8399      8402      8399      8402      8405      8406
      8399      8402      8405      8407      8399      8402      8405      8408
      8400      8399      8402      8403      8400      8399      8402      8404
      8400      8399      8402      8405      8401      8399      8402      8403
      8401      8399      8402      8404      8401      8399      8402      8405
      8402      8405      8408      8409      8402      8405      8408      8410
      8402      8405      8408      8411      8403      8402      8405      8406
      8403      8402      8405      8407      8403      8402      8405      8408
      8404      8402      8405      8406      8404      8402      8405      8407
      8404      8402      8405      8408      8405      8408      8411      8412
      8405      8408      8411      8413      8405      8408      8411      8414
      8406      8405      8408      8409      8406      8405      8408      8410
      8406      8405      8408      8411      8407      8405      8408      8409
      8407      8405      8408      8410      8407      8405      8408      8411
      8408      8411      8414      8415      8408      8411      8414      8416
      8408      8411      8414      8417      8409      8408      8411      8412
      8409      8408      8411      8413      8409      8408      8411      8414
      8410      8408      8411      8412      8410      8408      8411      8413
      8410      8408      8411      8414      8411      8414      8417      8418
      8411      8414      8417      8419      8411      8414      8417      8420
      8412      8411      8414      8415      8412      8411      8414      8416
      8412      8411      8414      8417      8413      8411      8414      8415
      8413      8411      8414      8416      8413      8411      8414      8417
      8414      8417      8420      8421      8414      8417      8420      8422
      8414      8417      8420      8423      8415      8414      8417      8418
      8415      8414      8417      8419      8415      8414      8417      8420
      8416      8414      8417      8418      8416      8414      8417      8419
      8416      8414      8417      8420      8417      8420      8423      8424
      8417      8420      8423      8425      8417      8420      8423      8426
      8418      8417      8420      8421      8418      8417      8420      8422
      8418      8417      8420      8423      8419      8417      8420      8421
      8419      8417      8420      8422      8419      8417      8420      8423
      8420      8423      8426      8427      8420      8423      8426      8428
      8420      8423      8426      8429      8421      8420      8423      8424
      8421      8420      8423      8425      8421      8420      8423      8426
      8422      8420      8423      8424      8422      8420      8423      8425
      8422      8420      8423      8426      8423      8426      8429      8430
      8423      8426      8429      8431      8423      8426      8429      8432
      8424      8423      8426      8427      8424      8423      8426      8428
      8424      8423      8426      8429      8425      8423      8426      8427
      8425      8423      8426      8428      8425      8423      8426      8429
      8427      8426      8429      8430      8427      8426      8429      8431
      8427      8426      8429      8432      8428      8426      8429      8430
      8428      8426      8429      8431      8428      8426      8429      8432

       136 !NIMPHI: impropers
        80        82        28        81        28        80        30        29
      2382      2381      2384      2383      2391      2390      2393      2392
      3444      3443      3446      3445      3453      3452      3455      3454
      3575      3574      3577      3576      3584      3583      3586      3585
       211       213       159       212       159       211       161       160
       342       344       290       343       290       342       292       291
      3706      3705      3708      3707      3715      3714      3717      3716
      7359      7358      7361      7360      7368      7367      7370      7369
      8463      8462      8465      8464      8472      8471      8474      8473
      8603      8602      8605      8604      8612      8611      8614      8613
      7497      7496      7499      7498      7506      7505      7508      7507
      3837      3836      3839      3838      3846      3845      3848      3847
       473       475       421       474       421       473       423       422
      9583      9582      9585      9584      9592      9591      9594      9593
      2515      2514      2517      2516      2524      2523      2526      2525
       604       606       552       605       552       604       554       553
      3968      3967      3970      3969      3977      3976      3979      3978
     10110     10109     10112     10111     10119     10118     10121     10120
       735       737       683       736       683       735       685       684
       866       868       814       867       814       866       816       815
       997       999       945       998       945       997       947       946
     10241     10240     10243     10242     10250     10249     10252     10251
      1128      1130      1076      1129      1076      1128      1078      1077
      4099      4098      4101      4100      4108      4107      4110      4109
      2648      2647      2650      2649      2657      2656      2659      2658
      8743      8742      8745      8744      8752      8751      8754      8753
      9717      9716      9719      9718      9726      9725      9728      9727
      4230      4229      4232      4231      4239      4238      4241      4240
     10372     10371     10374     10373     10381     10380     10383     10382
      2781      2780      2783      2782      2790      2789      2792      2791
     10908     10907     10910     10909     10917     10916     10919     10918
      8883      8882      8885      8884      8892      8891      8894      8893
      7635      7634      7637      7636      7644      7643      7646      7645
      7773      7772      7775      7774      7782      7781      7784      7783
      1259      1261      1207      1260      1207      1259      1209      1208
      1390      1392      1338      1391      1338      1390      1340      1339
      1521      1523      1469      1522      1469      1521      1471      1470
      9023      9022      9025      9024      9032      9031      9034      9033
      1652      1654      1600      1653      1600      1652      1602      1601
      7911      7910      7913      7912      7920      7919      7922      7921
      4361      4360      4363      4362      4370      4369      4372      4371
      4492      4491      4494      4493      4501      4500      4503      4502
     10503     10502     10505     10504     10512     10511     10514     10513
      4623      4622      4625      4624      4632      4631      4634      4633
      9163      9162      9165      9164      9172      9171      9174      9173
      1783      1785      1731      1784      1731      1783      1733      1732
      4754      4753      4756      4755      4763      4762      4765      4764
     10634     10633     10636     10635     10643     10642     10645     10644
      1914      1916      1862      1915      1862      1914      1864      1863
      9303      9302      9305      9304      9312      9311      9314      9313
      2045      2047      1993      2046      1993      2045      1995      1994
      8049      8048      8051      8050      8058      8057      8060      8059
      2914      2913      2916      2915      2923      2922      2925      2924
      3047      3046      3049      3048      3056      3055      3058      3057
      9851      9850      9853      9852      9860      9859      9862      9861
      2176      2178      2124      2177      2124      2176      2126      2125
      4885      4884      4887      4886      4894      4893      4896      4895
     11051     11050     11053     11052     11060     11059     11062     11061
     10765     10764     10767     10766     10774     10773     10776     10775
      2307      2309      2255      2308      2255      2307      2257      2256
      3180      3179      3182      3181      3189      3188      3191      3190
      5016      5015      5018      5017      5025      5024      5027      5026
      8187      8186      8189      8188      8196      8195      8198      8197
      9443      9442      9445      9444      9452      9451      9454      9453
      5147      5146      5149      5148      5156      5155      5158      5157
      9985      9984      9987      9986      9994      9993      9996      9995
      3313      3312      3315      3314      3322      3321      3324      3323
      8325      8324      8327      8326      8334      8333      8336      8335

         0 !NDON: donors


         0 !NACC: acceptors


         0 !NNB

         0         0         0         0         0         0         0         0
         0         0         0         0         0         0         0         0
         0         0         0         0         0         0         0         0
         0         0         0         0         0         0         0         0
         0         0         0         0         0         0         0         0
         0         0         0         0         0         0         0         0
         0         0         0         0         0         0         0         0
         0         0         0         0         0         0         0         0
         0         0         0         0         0         0         0         0
         0         0         0         0         0         0         0         0
         0         0         0         0         0         0         0         0
         0         0         0         0         0         0         0         0
         0         0         0         0         0         0         0         0
         0         0         0         0         0         0         0         0
         0         0         0         0         0         0         0         0
         0         0         0         0         0         0         0         0
         0         0         0         0         0         0         0         0
         0         0         0         0         0         0         0         0
         0         0         0         0         0         0         0         0
         0         0         0         0         0         0         0         0
         0         0         0         0         0         0         0         0
         0         0         0         0         0         0         0         0
         0         0         0         0         0         0         0         0
         0         0         0         0         0         0         0         0
         0         0         0         0         0         0         0         0
         0         0         0         0         0         0         0         0
         0         0         0         0         0         0         0         0
         0         0         0         0         0         0         0         0
         0         0         0         0         0         0         0         0
         0         0         0         0         0         0         0         0
         0         0         0         0         0         0         0         0
         0         0         0         0         0         0         0         0
         0         0         0         0         0         0         0         0
         0         0         0         0         0         0         0         0
         0         0         0         0         0         0         0         0
         0         0         0         0         0         0         0         0
         0         0         0         0         0         0         0         0
         0         0         0         0         0         0         0         0
         0         0         0         0         0         0         0         0
         0         0         0         0         0         0         0         0
         0         0         0         0         0         0         0         0
         0         0         0         0         0         0         0         0
         0         0         0         0         0         0         0         0
         0         0         0         0         0         0         0         0
         0         0         0         0         0         0         0         0
         0         0         0         0         0         0         0         0
         0         0         0         0         0         0         0         0
         0         0         0         0         0         0         0         0
         0         0         0         0         0         0         0         0
         0         0         0         0         0         0         0         0
         0         0         0         0         0         0         0         0
         0         0         0         0         0         0         0         0
         0         0         0         0         0         0         0         0
         0         0         0         0         0         0         0         0
         0         0         0         0         0         0         0         0
         0         0         0         0         0         0         0         0
         0         0         0         0         0         0         0         0
         0         0         0         0         0         0         0         0
         0         0         0         0         0         0         0         0
         0         0         0         0         0         0         0         0
         0         0         0         0         0         0         0         0
         0         0         0         0         0         0         0         0
         0         0         0         0         0         0         0         0
         0         0         0         0         0         0         0         0
         0         0         0         0         0         0         0         0
         0         0         0         0         0         0         0         0
         0         0         0         0         0         0         0         0
         0         0         0         0         0         0         0         0
         0         0         0         0         0         0         0         0
         0         0         0         0         0         0         0         0
         0         0         0         0         0         0         0         0
         0         0         0         0         0         0         0         0
         0         0         0         0         0         0         0         0
         0         0         0         0         0         0         0         0
         0         0         0         0         0         0         0         0
         0         0         0         0         0         0         0         0
         0         0         0         0         0         0         0         0
         0         0         0         0         0         0         0         0
         0         0         0         0         0         0         0         0
         0         0         0         0         0         0         0         0
         0         0         0         0         0         0         0         0
         0         0         0         0         0         0         0         0
         0         0         0         0         0         0         0         0
         0         0         0         0         0         0         0         0
         0         0         0         0         0         0         0         0
         0         0         0         0         0         0         0         0
         0         0         0         0         0         0         0         0
         0         0         0         0         0         0         0         0
         0         0         0         0         0         0         0         0
         0         0         0         0         0         0         0         0
         0         0         0         0         0         0         0         0
         0         0         0         0         0         0         0         0
         0         0         0         0         0         0         0         0
         0         0         0         0         0         0         0         0
         0         0         0         0         0         0         0         0
         0         0         0         0         0         0         0         0
         0         0         0         0         0         0         0         0
         0         0         0         0         0         0         0         0
         0         0         0         0         0         0         0         0
         0         0         0         0         0         0         0         0
         0         0         0         0         0         0         0         0
         0         0         0         0         0         0         0         0
         0         0         0         0         0         0         0         0
         0         0         0         0         0         0         0         0
         0         0         0         0         0         0         0         0
         0         0         0         0         0         0         0         0
         0         0         0         0         0         0         0         0
         0         0         0         0         0         0         0         0
         0         0         0         0         0         0         0         0
         0         0         0         0         0         0         0         0
         0         0         0         0         0         0         0         0
         0         0         0         0         0         0         0         0
         0         0         0         0         0         0         0         0
         0         0         0         0         0         0         0         0
         0         0         0         0         0         0         0         0
         0         0         0         0         0         0         0         0
         0         0         0         0         0         0         0         0
         0         0         0         0         0         0         0         0
         0         0         0         0         0         0         0         0
         0         0         0         0         0         0         0         0
         0         0         0         0         0         0         0         0
         0         0         0         0         0         0         0         0
         0         0         0         0         0         0         0         0
         0         0         0         0         0         0         0         0
         0         0         0         0         0         0         0         0
         0         0         0         0         0         0         0         0
         0         0         0         0         0         0         0         0
         0         0         0         0         0         0         0         0
         0         0         0         0         0         0         0         0
         0         0         0         0         0         0         0         0
         0         0         0         0         0         0         0         0
         0         0         0         0         0         0         0         0
         0         0         0         0         0         0         0         0
         0         0         0         0         0         0         0         0
         0         0         0         0         0         0         0         0
         0         0         0         0         0         0         0         0
         0         0         0         0         0         0         0         0
         0         0         0         0         0         0         0         0
         0         0         0         0         0         0         0         0
         0         0         0         0         0         0         0         0
         0         0         0         0         0         0         0         0
         0         0         0         0         0         0         0         0
         0         0         0         0         0         0         0         0
         0         0         0         0         0         0         0         0
         0         0         0         0         0         0         0         0
         0         0         0         0         0         0         0         0
         0         0         0         0         0         0         0         0
         0         0         0         0         0         0         0         0
         0         0         0         0         0         0         0         0
         0         0         0         0         0         0         0         0
         0         0         0         0         0         0         0         0
         0         0         0         0         0         0         0         0
         0         0         0         0         0         0         0         0
         0         0         0         0         0         0         0         0
         0         0         0         0         0         0         0         0
         0         0         0         0         0         0         0         0
         0         0         0         0         0         0         0         0
         0         0         0         0         0         0         0         0
         0         0         0         0         0         0         0         0
         0         0         0         0         0         0         0         0
         0         0         0         0         0         0         0         0
         0         0         0         0         0         0         0         0
         0         0         0         0         0         0         0         0
         0         0         0         0         0         0         0         0
         0         0         0         0         0         0         0         0
         0         0         0         0         0         0         0         0
         0         0         0         0         0         0         0         0
         0         0         0         0         0         0         0         0
         0         0         0         0         0         0         0         0
         0         0         0         0         0         0         0         0
         0         0         0         0         0         0         0         0
         0         0         0         0         0         0         0         0
         0         0         0         0         0         0         0         0
         0         0         0         0         0         0         0         0
         0         0         0         0         0         0         0         0
         0         0         0         0         0         0         0         0
         0         0         0         0         0         0         0         0
         0         0         0         0         0         0         0         0
         0         0         0         0         0         0         0         0
         0         0         0         0         0         0         0         0
         0         0         0         0         0         0         0         0
         0         0         0         0         0         0         0         0
         0         0         0         0         0         0         0         0
         0         0         0         0         0         0         0         0
         0         0         0         0         0         0         0         0
         0         0         0         0         0         0         0         0
         0         0         0         0         0         0         0         0
         0         0         0         0         0         0         0         0
         0         0         0         0         0         0         0         0
         0         0         0         0         0         0         0         0
         0         0         0         0         0         0         0         0
         0         0         0         0         0         0         0         0
         0         0         0         0         0         0         0         0
         0         0         0         0         0         0         0         0
         0         0         0         0         0         0         0         0
         0         0         0         0         0         0         0         0
         0         0         0         0         0         0         0         0
         0         0         0         0         0         0         0         0
         0         0         0         0         0         0         0         0
         0         0         0         0         0         0         0         0
         0         0         0         0         0         0         0         0
         0         0         0         0         0         0         0         0
         0         0         0         0         0         0         0         0
         0         0         0         0         0         0         0         0
         0         0         0         0         0         0         0         0
         0         0         0         0         0         0         0         0
         0         0         0         0         0         0         0         0
         0         0         0         0         0         0         0         0
         0         0         0         0         0         0         0         0
         0         0         0         0         0         0         0         0
         0         0         0         0         0         0         0         0
         0         0         0         0         0         0         0         0
         0         0         0         0         0         0         0         0
         0         0         0         0         0         0         0         0
         0         0         0         0         0         0         0         0
         0         0         0         0         0         0         0         0
         0         0         0         0         0         0         0         0
         0         0         0         0         0         0         0         0
         0         0         0         0         0         0         0         0
         0         0         0         0         0         0         0         0
         0         0         0         0         0         0         0         0
         0         0         0         0         0         0         0         0
         0         0         0         0         0         0         0         0
         0         0         0         0         0         0         0         0
         0         0         0         0         0         0         0         0
         0         0         0         0         0         0         0         0
         0         0         0         0         0         0         0         0
         0         0         0         0         0         0         0         0
         0         0         0         0         0         0         0         0
         0         0         0         0         0         0         0         0
         0         0         0         0         0         0         0         0
         0         0         0         0         0         0         0         0
         0         0         0         0         0         0         0         0
         0         0         0         0         0         0         0         0
         0         0         0         0         0         0         0         0
         0         0         0         0         0         0         0         0
         0         0         0         0         0         0         0         0
         0         0         0         0         0         0         0         0
         0         0         0         0         0         0         0         0
         0         0         0         0         0         0         0         0
         0         0         0         0         0         0         0         0
         0         0         0         0         0         0         0         0
         0         0         0         0         0         0         0         0
         0         0         0         0         0         0         0         0
         0         0         0         0         0         0         0         0
         0         0         0         0         0         0         0         0
         0         0         0         0         0         0         0         0
         0         0         0         0         0         0         0         0
         0         0         0         0         0         0         0         0
         0         0         0         0         0         0         0         0
         0         0         0         0         0         0         0         0
         0         0         0         0         0         0         0         0
         0         0         0         0         0         0         0         0
         0         0         0         0         0         0         0         0
         0         0         0         0         0         0         0         0
         0         0         0         0         0         0         0         0
         0         0         0         0         0         0         0         0
         0         0         0         0         0         0         0         0
         0         0         0         0         0         0         0         0
         0         0         0         0         0         0         0         0
         0         0         0         0         0         0         0         0
         0         0         0         0         0         0         0         0
         0         0         0         0         0         0         0         0
         0         0         0         0         0         0         0         0
         0         0         0         0         0         0         0         0
         0         0         0         0         0         0         0         0
         0         0         0         0         0         0         0         0
         0         0         0         0         0         0         0         0
         0         0         0         0         0         0         0         0
         0         0         0         0         0         0         0         0
         0         0         0         0         0         0         0         0
         0         0         0         0         0         0         0         0
         0         0         0         0         0         0         0         0
         0         0         0         0         0         0         0         0
         0         0         0         0         0         0         0         0
         0         0         0         0         0         0         0         0
         0         0         0         0         0         0         0         0
         0         0         0         0         0         0         0         0
         0         0         0         0         0         0         0         0
         0         0         0         0         0         0         0         0
         0         0         0         0         0         0         0         0
         0         0         0         0         0         0         0         0
         0         0         0         0         0         0         0         0
         0         0         0         0         0         0         0         0
         0         0         0         0         0         0         0         0
         0         0         0         0         0         0         0         0
         0         0         0         0         0         0         0         0
         0         0         0         0         0         0         0         0
         0         0         0         0         0         0         0         0
         0         0         0         0         0         0         0         0
         0         0         0         0         0         0         0         0
         0         0         0         0         0         0         0         0
         0         0         0         0         0         0         0         0
         0         0         0         0         0         0         0         0
         0         0         0         0         0         0         0         0
         0         0         0         0         0         0         0         0
         0         0         0         0         0         0         0         0
         0         0         0         0         0         0         0         0
         0         0         0         0         0         0         0         0
         0         0         0         0         0         0         0         0
         0         0         0         0         0         0         0         0
         0         0         0         0         0         0         0         0
         0         0         0         0         0         0         0         0
         0         0         0         0         0         0         0         0
         0         0         0         0         0         0         0         0
         0         0         0         0         0         0         0         0
         0         0         0         0         0         0         0         0
         0         0         0         0         0         0         0         0
         0         0         0         0         0         0         0         0
         0         0         0         0         0         0         0         0
         0         0         0         0         0         0         0         0
         0         0         0         0         0         0         0         0
         0         0         0         0         0         0         0         0
         0         0         0         0         0         0         0         0
         0         0         0         0         0         0         0         0
         0         0         0         0         0         0         0         0
         0         0         0         0         0         0         0         0
         0         0         0         0         0         0         0         0
         0         0         0         0         0         0         0         0
         0         0         0         0         0         0         0         0
         0         0         0         0         0         0         0         0
         0         0         0         0         0         0         0         0
         0         0         0         0         0         0         0         0
         0         0         0         0         0         0         0         0
         0         0         0         0         0         0         0         0
         0         0         0         0         0         0         0         0
         0         0         0         0         0         0         0         0
         0         0         0         0         0         0         0         0
         0         0         0         0         0         0         0         0
         0         0         0         0         0         0         0         0
         0         0         0         0         0         0         0         0
         0         0         0         0         0         0         0         0
         0         0         0         0         0         0         0         0
         0         0         0         0         0         0         0         0
         0         0         0         0         0         0         0         0
         0         0         0         0         0         0         0         0
         0         0         0         0         0         0         0         0
         0         0         0         0         0         0         0         0
         0         0         0         0         0         0         0         0
         0         0         0         0         0         0         0         0
         0         0         0         0         0         0         0         0
         0         0         0         0         0         0         0         0
         0         0         0         0         0         0         0         0
         0         0         0         0         0         0         0         0
         0         0         0         0         0         0         0         0
         0         0         0         0         0         0         0         0
         0         0         0         0         0         0         0         0
         0         0         0         0         0         0         0         0
         0         0         0         0         0         0         0         0
         0         0         0         0         0         0         0         0
         0         0         0         0         0         0         0         0
         0         0         0         0         0         0         0         0
         0         0         0         0         0         0         0         0
         0         0         0         0         0         0         0         0
         0         0         0         0         0         0         0         0
         0         0         0         0         0         0         0         0
         0         0         0         0         0         0         0         0
         0         0         0         0         0         0         0         0
         0         0         0         0         0         0         0         0
         0         0         0         0         0         0         0         0
         0         0         0         0         0         0         0         0
         0         0         0         0         0         0         0         0
         0         0         0         0         0         0         0         0
         0         0         0         0         0         0         0         0
         0         0         0         0         0         0         0         0
         0         0         0         0         0         0         0         0
         0         0         0         0         0         0         0         0
         0         0         0         0         0         0         0         0
         0         0         0         0         0         0         0         0
         0         0         0         0         0         0         0         0
         0         0         0         0         0         0         0         0
         0         0         0         0         0         0         0         0
         0         0         0         0         0         0         0         0
         0         0         0         0         0         0         0         0
         0         0         0         0         0         0         0         0
         0         0         0         0         0         0         0         0
         0         0         0         0         0         0         0         0
         0         0         0         0         0         0         0         0
         0         0         0         0         0         0         0         0
         0         0         0         0         0         0         0         0
         0         0         0         0         0         0         0         0
         0         0         0         0         0         0         0         0
         0         0         0         0         0         0         0         0
         0         0         0         0         0         0         0         0
         0         0         0         0         0         0         0         0
         0         0         0         0         0         0         0         0
         0         0         0         0         0         0         0         0
         0         0         0         0         0         0         0         0
         0         0         0         0         0         0         0         0
         0         0         0         0         0         0         0         0
         0         0         0         0         0         0         0         0
         0         0         0         0         0         0         0         0
         0         0         0         0         0         0         0         0
         0         0         0         0         0         0         0         0
         0         0         0         0         0         0         0         0
         0         0         0         0         0         0         0         0
         0         0         0         0         0         0         0         0
         0         0         0         0         0         0         0         0
         0         0         0         0         0         0         0         0
         0         0         0         0         0         0         0         0
         0         0         0         0         0         0         0         0
         0         0         0         0         0         0         0         0
         0         0         0         0         0         0         0         0
         0         0         0         0         0         0         0         0
         0         0         0         0         0         0         0         0
         0         0         0         0         0         0         0         0
         0         0         0         0         0         0         0         0
         0         0         0         0         0         0         0         0
         0         0         0         0         0         0         0         0
         0         0         0         0         0         0         0         0
         0         0         0         0         0         0         0         0
         0         0         0         0         0         0         0         0
         0         0         0         0         0         0         0         0
         0         0         0         0         0         0         0         0
         0         0         0         0         0         0         0         0
         0         0         0         0         0         0         0         0
         0         0         0         0         0         0         0         0
         0         0         0         0         0         0         0         0
         0         0         0         0         0         0         0         0
         0         0         0         0         0         0         0         0
         0         0         0         0         0         0         0         0
         0         0         0         0         0         0         0         0
         0         0         0         0         0         0         0         0
         0         0         0         0         0         0         0         0
         0         0         0         0         0         0         0         0
         0         0         0         0         0         0         0         0
         0         0         0         0         0         0         0         0
         0         0         0         0         0         0         0         0
         0         0         0         0         0         0         0         0
         0         0         0         0         0         0         0         0
         0         0         0         0         0         0         0         0
         0         0         0         0         0         0         0         0
         0         0         0         0         0         0         0         0
         0         0         0         0         0         0         0         0
         0         0         0         0         0         0         0         0
         0         0         0         0         0         0         0         0
         0         0         0         0         0         0         0         0
         0         0         0         0         0         0         0         0
         0         0         0         0         0         0         0         0
         0         0         0         0         0         0         0         0
         0         0         0         0         0         0         0         0
         0         0         0         0         0         0         0         0
         0         0         0         0         0         0         0         0
         0         0         0         0         0         0         0         0
         0         0         0         0         0         0         0         0
         0         0         0         0         0         0         0         0
         0         0         0         0         0         0         0         0
         0         0         0         0         0         0         0         0
         0         0         0         0         0         0         0         0
         0         0         0         0         0         0         0         0
         0         0         0         0         0         0         0         0
         0         0         0         0         0         0         0         0
         0         0         0         0         0         0         0         0
         0         0         0         0         0         0         0         0
         0         0         0         0         0         0         0         0
         0         0         0         0         0         0         0         0
         0         0         0         0         0         0         0         0
         0         0         0         0         0         0         0         0
         0         0         0         0         0         0         0         0
         0         0         0         0         0         0         0         0
         0         0         0         0         0         0         0         0
         0         0         0         0         0         0         0         0
         0         0         0         0         0         0         0         0
         0         0         0         0         0         0         0         0
         0         0         0         0         0         0         0         0
         0         0         0         0         0         0         0         0
         0         0         0         0         0         0         0         0
         0         0         0         0         0         0         0         0
         0         0         0         0         0         0         0         0
         0         0         0         0         0         0         0         0
         0         0         0         0         0         0         0         0
         0         0         0         0         0         0         0         0
         0         0         0         0         0         0         0         0
         0         0         0         0         0         0         0         0
         0         0         0         0         0         0         0         0
         0         0         0         0         0         0         0         0
         0         0         0         0         0         0         0         0
         0         0         0         0         0         0         0         0
         0         0         0         0         0         0         0         0
         0         0         0         0         0         0         0         0
         0         0         0         0         0         0         0         0
         0         0         0         0         0         0         0         0
         0         0         0         0         0         0         0         0
         0         0         0         0         0         0         0         0
         0         0         0         0         0         0         0         0
         0         0         0         0         0         0         0         0
         0         0         0         0         0         0         0         0
         0         0         0         0         0         0         0         0
         0         0         0         0         0         0         0         0
         0         0         0         0         0         0         0         0
         0         0         0         0         0         0         0         0
         0         0         0         0         0         0         0         0
         0         0         0         0         0         0         0         0
         0         0         0         0         0         0         0         0
         0         0         0         0         0         0         0         0
         0         0         0         0         0         0         0         0
         0         0         0         0         0         0         0         0
         0         0         0         0         0         0         0         0
         0         0         0         0         0         0         0         0
         0         0         0         0         0         0         0         0
         0         0         0         0         0         0         0         0
         0         0         0         0         0         0         0         0
         0         0         0         0         0         0         0         0
         0         0         0         0         0         0         0         0
         0         0         0         0         0         0         0         0
         0         0         0         0         0         0         0         0
         0         0         0         0         0         0         0         0
         0         0         0         0         0         0         0         0
         0         0         0         0         0         0         0         0
         0         0         0         0         0         0         0         0
         0         0         0         0         0         0         0         0
         0         0         0         0         0         0         0         0
         0         0         0         0         0         0         0         0
         0         0         0         0         0         0         0         0
         0         0         0         0         0         0         0         0
         0         0         0         0         0         0         0         0
         0         0         0         0         0         0         0         0
         0         0         0         0         0         0         0         0
         0         0         0         0         0         0         0         0
         0         0         0         0         0         0         0         0
         0         0         0         0         0         0         0         0
         0         0         0         0         0         0         0         0
         0         0         0         0         0         0         0         0
         0         0         0         0         0         0         0         0
         0         0         0         0         0         0         0         0
         0         0         0         0         0         0         0         0
         0         0         0         0         0         0         0         0
         0         0         0         0         0         0         0         0
         0         0         0         0         0         0         0         0
         0         0         0         0         0         0         0         0
         0         0         0         0         0         0         0         0
         0         0         0         0         0         0         0         0
         0         0         0         0         0         0         0         0
         0         0         0         0         0         0         0         0
         0         0         0         0         0         0         0         0
         0         0         0         0         0         0         0         0
         0         0         0         0         0         0         0         0
         0         0         0         0         0         0         0         0
         0         0         0         0         0         0         0         0
         0         0         0         0         0         0         0         0
         0         0         0         0         0         0         0         0
         0         0         0         0         0         0         0         0
         0         0         0         0         0         0         0         0
         0         0         0         0         0         0         0         0
         0         0         0         0         0         0         0         0
         0         0         0         0         0         0         0         0
         0         0         0         0         0         0         0         0
         0         0         0         0         0         0         0         0
         0         0         0         0         0         0         0         0
         0         0         0         0         0         0         0         0
         0         0         0         0         0         0         0         0
         0         0         0         0         0         0         0         0
         0         0         0         0         0         0         0         0
         0         0         0         0         0         0         0         0
         0         0         0         0         0         0         0         0
         0         0         0         0         0         0         0         0
         0         0         0         0         0         0         0         0
         0         0         0         0         0         0         0         0
         0         0         0         0         0         0         0         0
         0         0         0         0         0         0         0         0
         0         0         0         0         0         0         0         0
         0         0         0         0         0         0         0         0
         0         0         0         0         0         0         0         0
         0         0         0         0         0         0         0         0
         0         0         0         0         0         0         0         0
         0         0         0         0         0         0         0         0
         0         0         0         0         0         0         0         0
         0         0         0         0         0         0         0         0
         0         0         0         0         0         0         0         0
         0         0         0         0         0         0         0         0
         0         0         0         0         0         0         0         0
         0         0         0         0         0         0         0         0
         0         0         0         0         0         0         0         0
         0         0         0         0         0         0         0         0
         0         0         0         0         0         0         0         0
         0         0         0         0         0         0         0         0
         0         0         0         0         0         0         0         0
         0         0         0         0         0         0         0         0
         0         0         0         0         0         0         0         0
         0         0         0         0         0         0         0         0
         0         0         0         0         0         0         0         0
         0         0         0         0         0         0         0         0
         0         0         0         0         0         0         0         0
         0         0         0         0         0         0         0         0
         0         0         0         0         0         0         0         0
         0         0         0         0         0         0         0         0
         0         0         0         0         0         0         0         0
         0         0         0         0         0         0         0         0
         0         0         0         0         0         0         0         0
         0         0         0         0         0         0         0         0
         0         0         0         0         0         0         0         0
         0         0         0         0         0         0         0         0
         0         0         0         0         0         0         0         0
         0         0         0         0         0         0         0         0
         0         0         0         0         0         0         0         0
         0         0         0         0         0         0         0         0
         0         0         0         0         0         0         0         0
         0         0         0         0         0         0         0         0
         0         0         0         0         0         0         0         0
         0         0         0         0         0         0         0         0
         0         0         0         0         0         0         0         0
         0         0         0         0         0         0         0         0
         0         0         0         0         0         0         0         0
         0         0         0         0         0         0         0         0
         0         0         0         0         0         0         0         0
         0         0         0         0         0         0         0         0
         0         0         0         0         0         0         0         0
         0         0         0         0         0         0         0         0
         0         0         0         0         0         0         0         0
         0         0         0         0         0         0         0         0
         0         0         0         0         0         0         0         0
         0         0         0         0         0         0         0         0
         0         0         0         0         0         0         0         0
         0         0         0         0         0         0         0         0
         0         0         0         0         0         0         0         0
         0         0         0         0         0         0         0         0
         0         0         0         0         0         0         0         0
         0         0         0         0         0         0         0         0
         0         0         0         0         0         0         0         0
         0         0         0         0         0         0         0         0
         0         0         0         0         0         0         0         0
         0         0         0         0         0         0         0         0
         0         0         0         0         0         0         0         0
         0         0         0         0         0         0         0         0
         0         0         0         0         0         0         0         0
         0         0         0         0         0         0         0         0
         0         0         0         0         0         0         0         0
         0         0         0         0         0         0         0         0
         0         0         0         0         0         0         0         0
         0         0         0         0         0         0         0         0
         0         0         0         0         0         0         0         0
         0         0         0         0         0         0         0         0
         0         0         0         0         0         0         0         0
         0         0         0         0         0         0         0         0
         0         0         0         0         0         0         0         0
         0         0         0         0         0         0         0         0
         0         0         0         0         0         0         0         0
         0         0         0         0         0         0         0         0
         0         0         0         0         0         0         0         0
         0         0         0         0         0         0         0         0
         0         0         0         0         0         0         0         0
         0         0         0         0         0         0         0         0
         0         0         0         0         0         0         0         0
         0         0         0         0         0         0         0         0
         0         0         0         0         0         0         0         0
         0         0         0         0         0         0         0         0
         0         0         0         0         0         0         0         0
         0         0         0         0         0         0         0         0
         0         0         0         0         0         0         0         0
         0         0         0         0         0         0         0         0
         0         0         0         0         0         0         0         0
         0         0         0         0         0         0         0         0
         0         0         0         0         0         0         0         0
         0         0         0         0         0         0         0         0
         0         0         0         0         0         0         0         0
         0         0         0         0         0         0         0         0
         0         0         0         0         0         0         0         0
         0         0         0         0         0         0         0         0
         0         0         0         0         0         0         0         0
         0         0         0         0         0         0         0         0
         0         0         0         0         0         0         0         0
         0         0         0         0         0         0         0         0
         0         0         0         0         0         0         0         0
         0         0         0         0         0         0         0         0
         0         0         0         0         0         0         0         0
         0         0         0         0         0         0         0         0
         0         0         0         0         0         0         0         0
         0         0         0         0         0         0         0         0
         0         0         0         0         0         0         0         0
         0         0         0         0         0         0         0         0
         0         0         0         0         0         0         0         0
         0         0         0         0         0         0         0         0
         0         0         0         0         0         0         0         0
         0         0         0         0         0         0         0         0
         0         0         0         0         0         0         0         0
         0         0         0         0         0         0         0         0
         0         0         0         0         0         0         0         0
         0         0         0         0         0         0         0         0
         0         0         0         0         0         0         0         0
         0         0         0         0         0         0         0         0
         0         0         0         0         0         0         0         0
         0         0         0         0         0         0         0         0
         0         0         0         0         0         0         0         0
         0         0         0         0         0         0         0         0
         0         0         0         0         0         0         0         0
         0         0         0         0         0         0         0         0
         0         0         0         0         0         0         0         0
         0         0         0         0         0         0         0         0
         0         0         0         0         0         0         0         0
         0         0         0         0         0         0         0         0
         0         0         0         0         0         0         0         0
         0         0         0         0         0         0         0         0
         0         0         0         0         0         0         0         0
         0         0         0         0         0         0         0         0
         0         0         0         0         0         0         0         0
         0         0         0         0         0         0         0         0
         0         0         0         0         0         0         0         0
         0         0         0         0         0         0         0         0
         0         0         0         0         0         0         0         0
         0         0         0         0         0         0         0         0
         0         0         0         0         0         0         0         0
         0         0         0         0         0         0         0         0
         0         0         0         0         0         0         0         0
         0         0         0         0         0         0         0         0
         0         0         0         0         0         0         0         0
         0         0         0         0         0         0         0         0
         0         0         0         0         0         0         0         0
         0         0         0         0         0         0         0         0
         0         0         0         0         0         0         0         0
         0         0         0         0         0         0         0         0
         0         0         0         0         0         0         0         0
         0         0         0         0         0         0         0         0
         0         0         0         0         0         0         0         0
         0         0         0         0         0         0         0         0
         0         0         0         0         0         0         0         0
         0         0         0         0         0         0         0         0
         0         0         0         0         0         0         0         0
         0         0         0         0         0         0         0         0
         0         0         0         0         0         0         0         0
         0         0         0         0         0         0         0         0
         0         0         0         0         0         0         0         0
         0         0         0         0         0         0         0         0
         0         0         0         0         0         0         0         0
         0         0         0         0         0         0         0         0
         0         0         0         0         0         0         0         0
         0         0         0         0         0         0         0         0
         0         0         0         0         0         0         0         0
         0         0         0         0         0         0         0         0
         0         0         0         0         0         0         0         0
         0         0         0         0         0         0         0         0
         0         0         0         0         0         0         0         0
         0         0         0         0         0         0         0         0
         0         0         0         0         0         0         0         0
         0         0         0         0         0         0         0         0
         0         0         0         0         0         0         0         0
         0         0         0         0         0         0         0         0
         0         0         0         0         0         0         0         0
         0         0         0         0         0         0         0         0
         0         0         0         0         0         0         0         0
         0         0         0         0         0         0         0         0
         0         0         0         0         0         0         0         0
         0         0         0         0         0         0         0         0
         0         0         0         0         0         0         0         0
         0         0         0         0         0         0         0         0
         0         0         0         0         0         0         0         0
         0         0         0         0         0         0         0         0
         0         0         0         0         0         0         0         0
         0         0         0         0         0         0         0         0
         0         0         0         0         0         0         0         0
         0         0         0         0         0         0         0         0
         0         0         0         0         0         0         0         0
         0         0         0         0         0         0         0         0
         0         0         0         0         0         0         0         0
         0         0         0         0         0         0         0         0
         0         0         0         0         0         0         0         0
         0         0         0         0         0         0         0         0
         0         0         0         0         0         0         0         0
         0         0         0         0         0         0         0         0
         0         0         0         0         0         0         0         0
         0         0         0         0         0         0         0         0
         0         0         0         0         0         0         0         0
         0         0         0         0         0         0         0         0
         0         0         0         0         0         0         0         0
         0         0         0         0         0         0         0         0
         0         0         0         0         0         0         0         0
         0         0         0         0         0         0         0         0
         0         0         0         0         0         0         0         0
         0         0         0         0         0         0         0         0
         0         0         0         0         0         0         0         0
         0         0         0         0         0         0         0         0
         0         0         0         0         0         0         0         0
         0         0         0         0         0         0         0         0
         0         0         0         0         0         0         0         0
         0         0         0         0         0         0         0         0
         0         0         0         0         0         0         0         0
         0         0         0         0         0         0         0         0
         0         0         0         0         0         0         0         0
         0         0         0         0         0         0         0         0
         0         0         0         0         0         0         0         0
         0         0         0         0         0         0         0         0
         0         0         0         0         0         0         0         0
         0         0         0         0         0         0         0         0
         0         0         0         0         0         0         0         0
         0         0         0         0         0         0         0         0
         0         0         0         0         0         0         0         0
         0         0         0         0         0         0         0         0
         0         0         0         0         0         0         0         0
         0         0         0         0         0         0         0         0
         0         0         0         0         0         0         0         0
         0         0         0         0         0         0         0         0
         0         0         0         0         0         0         0         0
         0         0         0         0         0         0         0         0
         0         0         0         0         0         0         0         0
         0         0         0         0         0         0         0         0
         0         0         0         0         0         0         0         0
         0         0         0         0         0         0         0         0
         0         0         0         0         0         0         0         0
         0         0         0         0         0         0         0         0
         0         0         0         0         0         0         0         0
         0         0         0         0         0         0         0         0
         0         0         0         0         0         0         0         0
         0         0         0         0         0         0         0         0
         0         0         0         0         0         0         0         0
         0         0         0         0         0         0         0         0
         0         0         0         0         0         0         0         0
         0         0         0         0         0         0         0         0
         0         0         0         0         0         0         0         0
         0         0         0         0         0         0         0         0
         0         0         0         0         0         0         0         0
         0         0         0         0         0         0         0         0
         0         0         0         0         0         0         0         0
         0         0         0         0         0         0         0         0
         0         0         0         0         0         0         0         0
         0         0         0         0         0         0         0         0
         0         0         0         0         0         0         0         0
         0         0         0         0         0         0         0         0
         0         0         0         0         0         0         0         0
         0         0         0         0         0         0         0         0
         0         0         0         0         0         0         0         0
         0         0         0         0         0         0         0         0
         0         0         0         0         0         0         0         0
         0         0         0         0         0         0         0         0
         0         0         0         0         0         0         0         0
         0         0         0         0         0         0         0         0
         0         0         0         0         0         0         0         0
         0         0         0         0         0         0         0         0
         0         0         0         0         0         0         0         0
         0         0         0         0         0         0         0         0
         0         0         0         0         0         0         0         0
         0         0         0         0         0         0         0         0
         0         0         0         0         0         0         0         0
         0         0         0         0         0         0         0         0
         0         0         0         0         0         0         0         0
         0         0         0         0         0         0         0         0
         0         0         0         0         0         0         0         0
         0         0         0         0         0         0         0         0
         0         0         0         0         0         0         0         0
         0         0         0         0         0         0         0         0
         0         0         0         0         0         0         0         0
         0         0         0         0         0         0         0         0
         0         0         0         0         0         0         0         0
         0         0         0         0         0         0         0         0
         0         0         0         0         0         0         0         0
         0         0         0         0         0         0         0         0
         0         0         0         0         0         0         0         0
         0         0         0         0         0         0         0         0
         0         0         0         0         0         0         0         0
         0         0         0         0         0         0         0         0
         0         0         0         0         0         0         0         0
         0         0         0         0         0         0         0         0
         0         0         0         0         0         0         0         0
         0         0         0         0         0         0         0         0
         0         0         0         0         0         0         0         0
         0         0         0         0         0         0         0         0
         0         0         0         0         0         0         0         0
         0         0         0         0         0         0         0         0
         0         0         0         0         0         0         0         0
         0         0         0         0         0         0         0         0
         0         0         0         0         0         0         0         0
         0         0         0         0         0         0         0         0
         0         0         0         0         0         0         0         0
         0         0         0         0         0         0         0         0
         0         0         0         0         0         0         0         0
         0         0         0         0         0         0         0         0
         0         0         0         0         0         0         0         0
         0         0         0         0         0         0         0         0
         0         0         0         0         0         0         0         0
         0         0         0         0         0         0         0         0
         0         0         0         0         0         0         0         0
         0         0         0         0         0         0         0         0
         0         0         0         0         0         0         0         0
         0         0         0         0         0         0         0         0
         0         0         0         0         0         0         0         0
         0         0         0         0         0         0         0         0
         0         0         0         0         0         0         0         0
         0         0         0         0         0         0         0         0
         0         0         0         0         0         0         0         0
         0         0         0         0         0         0         0         0
         0         0         0         0         0         0         0         0
         0         0         0         0         0         0         0         0
         0         0         0         0         0         0         0         0
         0         0         0         0         0         0         0         0
         0         0         0         0         0         0         0         0
         0         0         0         0         0         0         0         0
         0         0         0         0         0         0         0         0
         0         0         0         0         0         0         0         0
         0         0         0         0         0         0         0         0
         0         0         0         0         0         0         0         0
         0         0         0         0         0         0         0         0
         0         0         0         0         0         0         0         0
         0         0         0         0         0         0         0         0
         0         0         0         0         0         0         0         0
         0         0         0         0         0         0         0         0
         0         0         0         0         0         0         0         0
         0         0         0         0         0         0         0         0
         0         0         0         0         0         0         0         0
         0         0         0         0         0         0         0         0
         0         0         0         0         0         0         0         0
         0         0         0         0         0         0         0         0
         0         0         0         0         0         0         0         0
         0         0         0         0         0         0         0         0
         0         0         0         0         0         0         0         0
         0         0         0         0         0         0         0         0
         0         0         0         0         0         0         0         0
         0         0         0         0         0         0         0         0
         0         0         0         0         0         0         0         0
         0         0         0         0         0         0         0         0
         0         0         0         0         0         0         0         0
         0         0         0         0         0         0         0         0
         0         0         0         0         0         0         0         0
         0         0         0         0         0         0         0         0
         0         0         0         0         0         0         0         0
         0         0         0         0         0         0         0         0
         0         0         0         0         0         0         0         0
         0         0         0         0         0         0         0         0
         0         0         0         0         0         0         0         0
         0         0         0         0         0         0         0         0
         0         0         0         0         0         0         0         0
         0         0         0         0         0         0         0         0
         0         0         0         0         0         0         0         0
         0         0         0         0         0         0         0         0
         0         0         0         0         0         0         0         0
         0         0         0         0         0         0         0         0
         0         0         0         0         0         0         0         0
         0         0         0         0         0         0         0         0
         0         0         0         0         0         0         0         0
         0         0         0         0         0         0         0         0
         0         0         0         0         0         0         0         0
         0         0         0         0         0         0         0         0
         0         0         0         0         0         0         0         0
         0         0         0         0         0         0         0         0
         0         0         0         0         0         0         0         0
         0         0         0         0         0         0         0         0
         0         0         0         0         0         0         0         0
         0         0         0         0         0         0         0         0
         0         0         0         0         0         0         0         0
         0         0         0         0         0         0         0         0
         0         0         0         0         0         0         0         0
         0         0         0         0         0         0         0         0
         0         0         0         0         0         0         0         0
         0         0         0         0         0         0         0         0
         0         0         0         0         0         0         0         0
         0         0         0         0         0         0         0         0
         0         0         0         0         0         0         0         0
         0         0         0         0         0         0         0         0
         0         0         0         0         0         0         0         0
         0         0         0         0         0         0         0         0
         0         0         0         0         0         0         0         0
         0         0         0         0         0         0         0         0
         0         0         0         0         0         0         0         0
         0         0         0         0         0         0         0         0
         0         0         0         0         0         0         0         0
         0         0         0         0         0         0         0         0
         0         0         0         0         0         0         0         0
         0         0         0         0         0         0         0         0
         0         0         0         0         0         0         0         0
         0         0         0         0         0         0         0         0
         0         0         0         0         0         0         0         0
         0         0         0         0         0         0         0         0
         0         0         0         0         0         0         0         0
         0         0         0         0         0         0         0         0
         0         0         0         0         0         0         0         0
         0         0         0         0         0         0         0         0
         0         0         0         0         0         0         0         0
         0         0         0         0         0         0         0         0
         0         0         0         0         0         0         0         0
         0         0         0         0         0         0         0         0
         0         0         0         0         0         0         0         0
         0         0         0         0         0         0         0         0
         0         0         0         0         0         0         0         0
         0         0         0         0         0         0         0         0
         0         0         0         0         0         0         0         0
         0         0         0         0         0         0         0         0
         0         0         0         0         0         0         0         0
         0         0         0         0         0         0         0         0
         0         0         0         0         0         0         0         0
         0         0         0         0         0         0         0         0
         0         0         0         0         0         0         0         0
         0         0         0         0         0         0         0         0
         0         0         0         0         0         0         0         0
         0         0         0         0         0         0         0         0
         0         0         0         0         0         0         0         0
         0         0         0         0         0         0         0         0
         0         0         0         0         0         0         0         0
         0         0         0         0         0         0         0         0
         0         0         0         0         0         0         0         0
         0         0         0         0         0         0         0         0
         0         0         0         0         0         0         0         0
         0         0         0         0         0         0         0         0
         0         0         0         0         0         0         0         0
         0         0         0         0         0         0         0         0
         0         0         0         0         0         0         0         0
         0         0         0         0         0         0         0         0
         0         0         0         0         0         0         0         0
         0         0         0         0         0         0         0         0
         0         0         0         0         0         0         0         0
         0         0         0         0         0         0         0         0
         0         0         0         0         0         0         0         0
         0         0         0         0         0         0         0         0
         0         0         0         0         0         0         0         0
         0         0         0         0         0         0         0         0
         0         0         0         0         0         0         0         0
         0         0         0         0         0         0         0         0
         0         0         0         0         0         0         0         0
         0         0         0         0         0         0         0         0
         0         0         0         0         0         0         0         0
         0         0         0         0         0         0         0         0
         0         0         0         0         0         0         0         0
         0         0         0         0         0         0         0         0
         0         0         0         0         0         0         0         0
         0         0         0         0         0         0         0         0
         0         0         0         0         0         0         0         0
         0         0         0         0         0         0         0         0
         0         0         0         0         0         0         0         0
         0         0         0         0         0         0         0         0
         0         0         0         0         0         0         0         0
         0         0         0         0         0         0         0         0
         0         0         0         0         0         0         0         0
         0         0         0         0         0         0         0         0
         0         0         0         0         0         0         0         0
         0         0         0         0         0         0         0         0
         0         0         0         0         0         0         0         0
         0         0         0         0         0         0         0         0
         0         0         0         0         0         0         0         0
         0         0         0         0         0         0         0         0
         0         0         0         0         0         0         0         0
         0         0         0         0         0         0         0         0
         0         0         0         0         0         0         0         0
         0         0         0         0         0         0         0         0
         0         0         0         0         0         0         0         0
         0         0         0         0         0         0         0         0
         0         0         0         0         0         0         0         0
         0         0         0         0         0         0         0         0
         0         0         0         0         0         0         0         0
         0         0         0         0         0         0         0         0
         0         0         0         0         0         0         0         0
         0         0         0         0         0         0         0         0
         0         0         0         0         0         0         0         0
         0         0         0         0         0         0         0         0
         0         0         0         0         0         0         0         0
         0         0         0         0         0         0         0         0
         0         0         0         0         0         0         0         0
         0         0         0         0         0         0         0         0
         0         0         0         0         0         0         0         0
         0         0         0         0         0         0         0         0
         0         0         0         0         0         0         0         0
         0         0         0         0         0         0         0         0
         0         0         0         0         0         0         0         0
         0         0         0         0         0         0         0         0
         0         0         0         0         0         0         0         0
         0         0         0         0         0         0         0         0
         0         0         0         0         0         0         0         0
         0         0         0         0         0         0         0         0
         0         0         0         0         0         0         0         0
         0         0         0         0         0         0         0         0
         0         0         0         0         0         0         0         0
         0         0         0         0         0         0         0         0
         0         0         0         0         0         0         0         0
         0         0         0         0         0         0         0         0
         0         0         0         0         0         0         0         0
         0         0         0         0         0         0         0         0
         0         0         0         0         0         0         0         0
         0         0         0         0         0         0         0         0
         0         0         0         0         0         0         0         0
         0         0         0         0         0         0         0         0
         0         0         0         0         0         0         0         0
         0         0         0         0         0         0         0         0
         0         0         0         0         0         0         0         0
         0         0         0         0         0         0         0         0
         0         0         0         0         0         0         0         0
         0         0         0         0         0         0         0         0
         0         0         0         0         0         0         0         0
         0         0         0         0         0         0         0         0
         0         0         0         0         0         0         0         0
         0         0         0         0         0         0         0         0
         0         0         0         0         0         0         0         0
         0         0         0         0         0         0         0         0
         0         0         0         0         0         0         0         0
         0         0         0         0         0         0         0         0
         0         0         0         0         0         0         0         0
         0         0         0         0         0         0         0         0
         0         0         0         0         0         0         0         0
         0         0         0         0         0         0         0         0
         0         0         0         0         0         0         0         0
         0         0         0         0         0         0         0         0
         0         0         0         0         0         0         0         0
         0         0         0         0         0         0         0         0
         0         0         0         0         0         0         0         0
         0         0         0         0         0         0         0         0
         0         0         0         0         0         0         0         0
         0         0         0         0         0         0         0         0
         0         0         0         0         0         0         0         0
         0         0         0         0         0         0         0         0
         0         0         0         0         0         0         0         0
         0         0         0         0         0         0         0         0
         0         0         0         0         0         0         0         0
         0         0         0         0         0         0         0         0
         0         0         0         0         0         0         0         0
         0         0         0         0         0         0         0         0
         0         0         0         0         0         0         0         0
         0         0         0         0         0         0         0         0
         0         0         0         0         0         0         0         0
         0         0         0         0         0         0         0         0
         0         0         0         0         0         0         0         0
         0         0         0         0         0         0         0         0
         0         0         0         0         0         0         0         0
         0         0         0         0         0         0         0         0
         0         0         0         0         0         0         0         0
         0         0         0         0         0         0         0         0
         0         0         0         0         0         0         0         0
         0         0         0         0         0         0         0         0
         0         0         0         0         0         0         0         0
         0         0         0         0         0         0         0         0
         0         0         0         0         0         0         0         0
         0         0         0         0         0         0         0         0
         0         0         0         0         0         0         0         0
         0         0         0         0         0         0         0         0
         0         0         0         0         0         0         0         0
         0         0         0         0         0         0         0         0
         0         0         0         0         0         0         0         0
         0         0         0         0         0         0         0         0
         0         0         0         0         0         0         0         0
         0         0         0         0         0         0         0         0
         0         0         0         0         0         0         0         0
         0         0         0         0         0         0         0         0
         0         0         0         0         0         0         0         0
         0         0         0         0         0         0         0         0
         0         0         0         0         0         0         0         0
         0         0         0         0         0         0         0         0
         0         0         0         0         0         0         0         0
         0         0         0         0         0         0         0         0
         0         0         0         0         0         0         0         0
         0         0         0         0         0         0         0         0
         0         0         0         0         0         0         0         0
         0         0         0         0         0         0         0         0
         0         0         0         0         0         0         0         0
         0         0         0         0         0         0         0         0
         0         0         0         0         0         0         0         0
         0         0         0         0         0         0         0         0
         0         0         0         0         0         0         0         0
         0         0         0         0         0         0         0         0
         0         0         0         0         0         0         0         0
         0         0         0         0         0         0         0         0
         0         0         0         0         0         0         0         0
         0         0         0         0         0         0         0         0
         0         0         0         0         0         0         0         0
         0         0         0         0         0         0         0         0
         0         0         0         0         0         0         0         0
         0         0         0         0         0         0         0         0
         0         0         0         0         0         0         0         0
         0         0         0         0         0         0         0         0
         0         0         0         0         0         0         0         0
         0         0         0         0         0         0         0         0
         0         0         0         0         0         0         0         0
         0         0         0         0         0         0         0         0
         0         0         0         0         0         0         0         0
         0         0         0         0         0         0         0         0
         0         0         0         0         0         0         0         0
         0         0         0         0         0         0         0         0
         0         0         0         0         0         0         0         0
         0         0         0         0         0         0         0         0
         0         0         0         0         0         0         0         0
         0         0         0         0         0         0         0         0
         0         0         0         0         0         0         0         0
         0         0         0         0         0         0         0         0
         0         0         0         0         0         0         0         0
         0         0         0         0         0         0         0         0
         0         0         0         0         0         0         0         0
         0         0         0         0         0         0         0         0
         0         0         0         0         0         0         0         0
         0         0         0         0         0         0         0         0
         0         0         0         0         0         0         0         0
         0         0         0         0         0         0         0         0
         0         0         0         0         0         0         0         0
         0         0         0         0         0         0         0         0
         0         0         0         0         0         0         0         0
         0         0         0         0         0         0         0         0
         0         0         0         0         0         0         0         0
         0         0         0         0         0         0         0         0
         0         0         0         0         0         0         0         0
         0         0         0         0         0         0         0         0
         0         0         0         0         0         0         0         0
         0         0         0         0         0         0         0         0
         0         0         0         0         0         0         0         0
         0         0         0         0         0         0         0         0
         0         0         0         0         0         0         0         0
         0         0         0         0         0         0         0         0
         0         0         0         0         0         0         0         0
         0         0         0         0         0         0         0         0
         0         0         0         0         0         0         0         0
         0         0         0         0         0         0         0         0
         0         0         0         0         0         0         0         0
         0         0         0         0         0         0         0         0
         0         0         0         0         0         0         0         0
         0         0         0         0         0         0         0         0
         0         0         0         0         0         0         0         0
         0         0         0         0         0         0         0         0
         0         0         0         0         0         0         0         0
         0         0         0         0         0         0         0         0
         0         0         0         0         0         0         0         0
         0         0         0         0         0         0         0         0
         0         0         0         0         0         0         0         0
         0         0         0         0         0         0         0         0
         0         0         0         0         0         0         0         0
         0         0         0         0         0         0         0         0
         0         0         0         0         0         0         0         0
         0         0         0         0         0         0         0         0
         0         0         0         0         0         0         0         0
         0         0         0         0         0         0         0         0
         0         0         0         0         0         0         0         0
         0         0         0         0         0         0         0         0
         0         0         0         0         0         0         0         0
         0         0         0         0         0         0         0         0
         0         0         0         0         0         0         0         0
         0         0         0         0         0         0         0         0
         0         0         0         0         0         0         0         0
         0         0         0         0         0         0         0         0
         0         0         0         0         0         0         0         0
         0         0         0         0         0         0         0         0
         0         0         0         0         0         0         0         0
         0         0         0         0         0         0         0         0
         0         0         0         0         0         0         0         0
         0         0         0         0         0         0         0         0
         0         0         0         0         0         0         0         0
         0         0         0         0         0         0         0         0
         0         0         0         0         0         0         0         0
         0         0         0         0         0         0         0         0
         0         0         0         0         0         0         0         0
         0         0         0         0         0         0         0         0
         0         0         0         0         0         0         0         0
         0         0         0         0         0         0         0         0
         0         0         0         0         0         0         0         0
         0         0         0         0         0         0         0         0
         0         0         0         0         0         0         0         0
         0         0         0         0         0         0         0         0
         0         0         0         0         0         0         0         0
         0         0         0         0         0         0         0         0
         0         0         0         0         0         0         0         0
         0         0         0         0         0         0         0         0
         0         0         0         0         0         0         0         0
         0         0         0         0         0         0         0         0
         0         0         0         0         0         0         0         0
         0         0         0         0         0         0         0         0
         0         0         0         0         0         0         0         0
         0         0         0         0         0         0         0         0
         0         0         0         0         0         0         0         0
         0         0         0         0         0         0         0         0
         0         0         0         0         0         0         0         0
         0         0         0         0         0         0         0         0
         0         0         0         0         0         0         0         0
         0         0         0         0         0         0         0         0
         0         0         0         0         0         0         0         0
         0         0         0         0         0         0         0         0
         0         0         0         0         0         0         0         0
         0         0         0         0         0         0         0         0
         0         0         0         0         0         0         0         0
         0         0         0         0         0         0         0         0
         0         0         0         0         0         0         0         0
         0         0         0         0         0         0         0         0
         0         0         0         0         0         0         0         0
         0         0         0         0         0         0         0         0
         0         0         0         0         0         0         0         0
         0         0         0         0         0         0         0         0
         0         0         0         0         0         0         0         0
         0         0         0         0         0         0         0         0
         0         0         0         0         0         0         0         0
         0         0         0         0         0         0         0         0
         0         0         0         0         0         0         0         0
         0         0         0         0         0         0         0         0
         0         0         0         0         0         0         0         0
         0         0         0         0         0         0         0         0
         0         0         0         0         0         0         0         0
         0         0         0         0         0         0         0         0
         0         0         0         0         0         0         0         0
         0         0         0         0         0         0         0         0
         0         0         0         0         0         0         0         0
         0         0         0         0         0         0         0         0
         0         0         0         0         0         0         0         0
         0         0         0         0         0         0         0         0
         0         0         0         0         0         0         0         0
         0         0         0         0         0         0         0         0
         0         0         0         0         0         0         0         0
         0         0         0         0         0         0         0         0
         0         0         0         0         0         0         0         0
         0         0         0         0         0         0         0         0
         0         0         0         0         0         0         0         0
         0         0         0         0         0         0         0         0
         0         0         0         0         0         0         0         0
         0         0         0         0         0         0         0         0
         0         0         0         0         0         0         0         0
         0         0         0         0         0         0         0         0
         0         0         0         0         0         0         0         0
         0         0         0         0         0         0         0         0
         0         0         0         0         0         0         0         0
         0         0         0         0         0         0         0         0
         0         0         0         0         0         0         0         0
         0         0         0         0         0         0         0         0
         0         0         0         0         0         0         0         0
         0         0         0         0         0         0         0         0
         0         0         0         0         0         0         0         0
         0         0         0         0         0         0         0         0
         0         0         0         0         0         0         0         0
         0         0         0         0         0         0         0         0
         0         0         0         0         0         0         0         0
         0         0         0         0         0         0         0         0
         0         0         0         0         0         0         0         0
         0         0         0         0         0         0         0         0
         0         0         0         0         0         0         0         0
         0         0         0         0         0         0         0         0
         0         0         0         0         0         0         0         0
         0         0         0         0         0         0         0         0
         0         0         0         0         0         0         0         0
         0         0         0         0         0         0         0         0
         0         0         0         0         0         0         0         0
         0         0         0         0         0         0         0         0
         0         0         0         0         0         0         0         0
         0         0         0         0         0         0         0         0
         0         0         0         0         0         0         0         0
         0         0         0         0         0         0         0         0
         0         0         0         0         0         0         0         0
         0         0         0         0         0         0         0         0
         0         0         0         0         0         0         0         0
         0         0         0         0         0         0         0         0
         0         0         0         0         0         0         0         0
         0         0         0         0         0         0         0         0
         0         0         0         0         0         0         0         0
         0         0         0         0         0         0         0         0
         0         0         0         0         0         0         0         0
         0         0         0         0         0         0         0         0
         0         0         0         0         0         0         0         0
         0         0         0         0         0         0         0         0
         0         0         0         0         0         0         0         0
         0         0         0         0         0         0         0         0
         0         0         0         0         0         0         0         0
         0         0         0         0         0         0         0         0
         0         0         0         0         0         0         0         0
         0         0         0         0         0         0         0         0
         0         0         0         0         0         0         0         0
         0         0         0         0         0         0         0         0
         0         0         0         0         0         0         0         0
         0         0         0         0         0         0         0         0
         0         0         0         0         0         0         0         0
         0         0         0         0         0         0         0         0
         0         0         0         0         0         0         0         0
         0         0         0         0         0         0         0         0
         0         0         0         0         0         0         0         0
         0         0         0         0         0         0         0         0
         0         0         0         0         0         0         0         0
         0         0         0         0         0         0         0         0
         0         0         0         0         0         0         0         0
         0         0         0         0         0         0         0         0
         0         0         0         0         0         0         0         0
         0         0         0         0         0         0         0         0
         0         0         0         0         0         0         0         0
         0         0         0         0         0         0         0         0
         0         0         0         0         0         0         0         0
         0         0         0         0         0         0         0         0
         0         0         0         0         0         0         0         0
         0         0         0         0         0         0         0         0
         0         0         0         0         0         0         0         0
         0         0         0         0         0         0         0         0
         0         0         0         0         0         0         0         0
         0         0         0         0         0         0         0         0
         0         0         0         0         0         0         0         0
         0         0         0         0         0         0         0         0
         0         0         0         0         0         0         0         0
         0         0         0         0         0         0         0         0
         0         0         0         0         0         0         0         0
         0         0         0         0         0         0         0         0
         0         0         0         0         0         0         0         0
         0         0         0         0         0         0         0         0
         0         0         0         0         0         0         0         0
         0         0         0         0         0         0         0         0
         0         0         0         0         0         0         0         0
         0         0         0         0         0         0         0         0
         0         0         0         0         0         0         0         0
         0         0         0         0         0         0         0         0
         0         0         0         0         0         0         0         0
         0         0         0         0         0         0         0         0
         0         0         0         0         0         0         0         0
         0         0         0         0         0         0         0         0
         0         0         0         0         0         0         0         0
         0         0         0         0         0         0         0         0
         0         0         0         0         0         0         0         0
         0         0         0         0         0         0         0         0
         0         0         0         0         0         0         0         0
         0         0         0         0         0         0         0         0
         0         0         0         0         0         0         0         0
         0         0         0         0         0         0         0         0
         0         0         0         0         0         0         0         0
         0         0         0         0         0         0         0         0
         0         0         0         0         0         0         0         0
         0         0         0         0         0         0         0         0
         0         0         0         0         0         0         0         0
         0         0         0         0         0         0         0         0
         0         0         0         0         0         0         0         0
         0         0         0         0         0         0         0         0
         0         0         0         0         0         0         0         0
         0         0         0         0         0         0         0         0
         0         0         0         0         0         0         0         0
         0         0         0         0         0         0         0         0
         0         0         0         0         0         0         0         0
         0         0         0         0         0         0         0         0
         0         0         0         0         0         0         0         0
         0         0         0         0         0         0         0         0
         0         0         0         0         0         0         0         0
         0         0         0         0         0         0         0         0
         0         0         0         0         0         0         0         0
         0         0         0         0         0         0         0         0
         0         0         0         0         0         0         0         0
         0         0         0         0         0         0         0         0
         0         0         0         0         0         0         0         0
         0         0         0         0         0         0         0         0
         0         0         0         0         0         0         0         0
         0         0         0         0         0         0         0         0
         0         0         0         0         0         0         0         0
         0         0         0         0         0         0         0         0
         0         0         0         0         0         0         0         0
         0         0         0         0         0         0         0         0
         0         0         0         0         0         0         0         0
         0         0         0         0         0         0         0         0
         0         0         0         0         0         0         0         0
         0         0         0         0         0         0         0         0
         0         0         0         0         0         0         0         0
         0         0         0         0         0         0         0         0
         0         0         0         0         0         0         0         0
         0         0         0         0         0         0         0         0
         0         0         0         0         0         0         0         0
         0         0         0         0         0         0         0         0
         0         0         0         0         0         0         0         0
         0         0         0         0         0         0         0         0
         0         0         0         0         0         0         0         0
         0         0         0         0         0         0         0         0
         0         0         0         0         0         0         0         0
         0         0         0         0         0         0         0         0
         0         0         0         0         0         0         0         0
         0         0         0         0         0         0         0         0
         0         0         0         0         0         0         0         0
         0         0         0         0         0         0         0         0
         0         0         0         0         0         0         0         0
         0         0         0         0         0         0         0         0
         0         0         0         0         0         0         0         0
         0         0         0         0         0         0         0         0
         0         0         0         0         0         0         0         0
         0         0         0         0         0         0         0         0
         0         0         0         0         0         0         0         0
         0         0         0         0         0         0         0         0
         0         0         0         0         0         0         0         0
         0         0         0         0         0         0         0         0
         0         0         0         0         0         0         0         0
         0         0         0         0         0         0         0         0
         0         0         0         0         0         0         0         0
         0         0         0         0         0         0         0         0
         0         0         0         0         0         0         0         0
         0         0         0         0         0         0         0         0
         0         0         0         0         0         0         0         0
         0         0         0         0         0         0         0         0
         0         0         0         0         0         0         0         0
         0         0         0         0         0         0         0         0
         0         0         0         0         0         0         0         0
         0         0         0         0         0         0         0         0
         0         0         0         0         0         0         0         0
         0         0         0         0         0         0         0         0
         0         0         0         0         0         0         0         0
         0         0         0         0         0         0         0         0
         0         0         0         0         0         0         0         0
         0         0         0         0         0         0         0         0
         0         0         0         0         0         0         0         0
         0         0         0         0         0         0         0         0
         0         0         0         0         0         0         0         0
         0         0         0         0         0         0         0         0
         0         0         0         0         0         0         0         0
         0         0         0         0         0         0         0         0
         0         0         0         0         0         0         0         0
         0         0         0         0         0         0         0         0
         0         0         0         0         0         0         0         0
         0         0         0         0         0         0         0         0
         0         0         0         0         0         0         0         0
         0         0         0         0         0         0         0         0
         0         0         0         0         0         0         0         0
         0         0         0         0         0         0         0         0
         0         0         0         0         0         0         0         0
         0         0         0         0         0         0         0         0
         0         0         0         0         0         0         0         0
         0         0         0         0         0         0         0         0
         0         0         0         0         0         0         0         0
         0         0         0         0         0         0         0         0
         0         0         0         0         0         0         0         0
         0         0         0         0         0         0         0         0
         0         0         0         0         0         0         0         0
         0         0         0         0         0         0         0         0
         0         0         0         0         0         0         0         0
         0         0         0         0         0         0         0         0
         0         0         0         0         0         0         0         0
         0         0         0         0         0         0         0         0
         0         0         0         0         0         0         0         0
         0         0         0         0         0         0         0         0
         0         0         0         0         0         0         0         0
         0         0         0         0         0         0         0         0
         0         0         0         0         0         0         0         0
         0         0         0         0         0         0         0         0
         0         0         0         0         0         0         0         0
         0         0         0         0         0         0         0         0
         0         0         0         0         0         0         0         0
         0         0         0         0         0         0         0         0
         0         0         0         0         0         0         0         0
         0         0         0         0         0         0         0         0
         0         0         0         0         0         0         0         0
         0         0         0         0         0         0         0         0
         0         0         0         0         0         0         0         0
         0         0         0         0         0         0         0         0
         0         0         0         0         0         0         0         0
         0         0         0         0         0         0         0         0
         0         0         0         0         0         0         0         0
         0         0         0         0         0         0         0         0
         0         0         0         0         0         0         0         0
         0         0         0         0         0         0         0         0
         0         0         0         0         0         0         0         0
         0         0         0         0         0         0         0         0
         0         0         0         0         0         0         0         0
         0         0         0         0         0         0         0         0
         0         0         0         0         0         0         0         0
         0         0         0         0         0         0         0         0
         0         0         0         0         0         0         0         0
         0         0         0         0         0         0         0         0
         0         0         0         0         0         0         0         0
         0         0         0         0         0         0         0         0
         0         0         0         0         0         0         0         0
         0         0         0         0         0         0         0         0
         0         0         0         0         0         0         0         0
         0         0         0         0         0         0         0         0
         0         0         0         0         0         0         0         0
         0         0         0         0         0         0         0         0
         0         0         0         0         0         0         0         0
         0         0         0         0         0         0         0         0
         0         0         0         0         0         0         0         0
         0         0         0         0         0         0         0         0
         0         0         0         0         0         0         0         0
         0         0         0         0         0         0         0         0
         0         0         0         0         0         0         0         0
         0         0         0         0         0         0         0         0
         0         0         0         0         0         0         0         0
         0         0         0         0         0         0         0         0
         0         0         0         0         0         0         0         0
         0         0         0         0         0         0         0         0
         0         0         0         0         0         0         0         0
         0         0         0         0         0         0         0         0
         0         0         0         0         0         0         0         0
         0         0         0         0         0         0         0         0
         0         0         0         0         0         0         0         0
         0         0         0         0         0         0         0         0
         0         0         0         0         0         0         0         0
         0         0         0         0         0         0         0         0
         0         0         0         0         0         0         0         0
         0         0         0         0         0         0         0         0
         0         0         0         0         0         0         0         0
         0         0         0         0         0         0         0         0
         0         0         0         0         0         0         0         0
         0         0         0         0         0         0         0         0
         0         0         0         0         0         0         0         0
         0         0         0         0         0         0         0         0
         0         0         0         0         0         0         0         0
         0         0         0         0         0         0         0         0
         0         0         0         0         0         0         0         0
         0         0         0         0         0         0         0         0
         0         0         0         0         0         0         0         0
         0         0         0         0         0         0         0         0
         0         0         0         0         0         0         0         0
         0         0         0         0         0         0         0         0
         0         0         0         0         0         0         0         0
         0         0         0         0         0         0         0         0
         0         0         0         0         0         0         0         0
         0         0         0         0         0         0         0         0
         0         0         0         0         0         0         0         0
         0         0         0         0         0         0         0         0
         0         0         0         0         0         0         0         0
         0         0         0         0         0         0         0         0
         0         0         0         0         0         0         0         0
         0         0         0         0         0         0         0         0
         0         0         0         0         0         0         0         0
         0         0         0         0         0         0         0         0
         0         0         0         0         0         0         0         0
         0         0         0         0         0         0         0         0
         0         0         0         0         0         0         0         0
         0         0         0         0         0         0         0         0
         0         0         0         0         0         0         0         0
         0         0         0         0         0         0         0         0
         0         0         0         0         0         0         0         0
         0         0         0         0         0         0         0         0
         0         0         0         0         0         0         0         0
         0         0         0         0         0         0         0         0
         0         0         0         0         0         0         0         0
         0         0         0         0         0         0         0         0
         0         0         0         0         0         0         0         0
         0         0         0         0         0         0         0         0
         0         0         0         0         0         0         0         0
         0         0         0         0         0         0         0         0
         0         0         0         0         0         0         0         0
         0         0         0         0         0         0         0         0
         0         0         0         0         0         0         0         0
         0         0         0         0         0         0         0         0
         0         0         0         0         0         0         0         0
         0         0         0         0         0         0         0         0
         0         0         0         0         0         0         0         0
         0         0         0         0         0         0         0         0
         0         0         0         0         0         0         0         0
         0         0         0         0         0         0         0         0
         0         0         0         0         0         0         0         0
         0         0         0         0         0         0         0         0
         0         0         0         0         0         0         0         0
         0         0         0         0         0         0         0         0
         0         0         0         0         0         0         0         0
         0         0         0         0         0         0         0         0
         0         0         0         0         0         0         0         0
         0         0         0         0         0         0         0         0
         0         0         0         0         0         0         0         0
         0         0         0         0         0         0         0         0
         0         0         0         0         0         0         0         0
         0         0         0         0         0         0         0         0
         0         0         0         0         0         0         0         0
         0         0         0         0         0         0         0         0
         0         0         0         0         0         0         0         0
         0         0         0         0         0         0         0         0
         0         0         0         0         0         0         0         0
         0         0         0         0         0         0         0         0
         0         0         0         0         0         0         0         0
         0         0         0         0         0         0         0         0
         0         0         0         0         0         0         0         0
         0         0         0         0         0         0         0         0
         0         0         0         0         0         0         0         0
         0         0         0         0         0         0         0         0
         0         0         0         0         0         0         0         0
         0         0         0         0         0         0         0         0
         0         0         0         0         0         0         0         0
         0         0         0         0         0         0         0         0
         0         0         0         0         0         0         0         0
         0         0         0         0         0         0         0         0
         0         0         0         0         0         0         0         0
         0         0         0         0         0         0         0         0
         0         0         0         0         0         0         0         0
         0         0         0         0         0         0         0         0
         0         0         0         0         0         0         0         0
         0         0         0         0         0         0         0         0
         0         0         0         0         0         0         0         0
         0         0         0         0         0         0         0         0
         0         0         0         0         0         0         0         0
         0         0         0         0         0         0         0         0
         0         0         0         0         0         0         0         0
         0         0         0         0         0         0         0         0
         0         0         0         0         0         0         0         0
         0         0         0         0         0         0         0         0
         0         0         0         0         0         0         0         0
         0         0         0         0         0         0         0         0
         0         0         0         0         0         0         0         0
         0         0         0         0         0         0         0         0
         0         0         0         0         0         0         0         0
         0         0         0         0         0         0         0         0
         0         0         0         0         0         0         0         0
         0         0         0         0         0         0         0         0
         0         0         0         0         0         0         0         0
         0         0         0         0         0         0         0         0
         0         0         0         0         0         0         0         0
         0         0         0         0         0         0         0         0
         0         0         0         0         0         0         0         0
         0         0         0         0         0         0         0         0
         0         0         0         0         0         0         0         0
         0         0         0         0         0         0         0         0
         0         0         0         0         0         0         0         0
         0         0         0         0         0         0         0         0
         0         0         0         0         0         0         0         0
         0         0         0         0         0         0         0         0
         0         0         0         0         0         0         0         0
         0         0         0         0         0         0         0         0
         0         0         0         0         0         0         0         0
         0         0         0         0         0         0         0         0
         0         0         0         0         0         0         0         0
         0         0         0         0         0         0         0         0
         0         0         0         0         0         0         0         0
         0         0         0         0         0         0         0         0
         0         0         0         0         0         0         0         0
         0         0         0         0         0         0         0         0
         0         0         0         0         0         0         0         0
         0         0         0         0         0         0         0         0
         0         0         0         0         0         0         0         0
         0         0         0         0         0         0         0         0
         0         0         0         0         0         0         0         0
         0         0         0         0         0         0         0         0
         0         0         0         0         0         0         0         0
         0         0         0         0         0         0         0         0
         0         0         0         0         0         0         0         0
         0         0         0         0         0         0         0         0
         0         0         0         0         0         0         0         0
         0         0         0         0         0         0         0         0
         0         0         0         0         0         0         0         0
         0         0         0         0         0         0         0         0
         0         0         0         0         0         0         0         0
         0         0         0         0         0         0         0         0
         0         0         0         0         0         0         0         0
         0         0         0         0         0         0         0         0
         0         0         0         0         0         0         0         0
         0         0         0         0         0         0         0         0
         0         0         0         0         0         0         0         0
         0         0         0         0         0         0         0         0
         0         0         0         0         0         0         0         0
         0         0         0         0         0         0         0         0
         0         0         0         0         0         0         0         0
         0         0         0         0         0         0         0         0
         0         0         0         0         0         0         0         0
         0         0         0         0         0         0         0         0
         0         0         0         0         0         0         0         0
         0         0         0         0         0         0         0         0
         0         0         0         0         0         0         0         0
         0         0         0         0         0         0         0         0
         0         0         0         0         0         0         0         0
         0         0         0         0         0         0         0         0
         0         0         0         0         0         0         0         0
         0         0         0         0         0         0         0         0
         0         0         0         0         0         0         0         0
         0         0         0         0         0         0         0         0
         0         0         0         0         0         0         0         0
         0         0         0         0         0         0         0         0
         0         0         0         0         0         0         0         0
         0         0         0         0         0         0         0         0
         0         0         0         0         0         0         0         0
         0         0         0         0         0         0         0         0
         0         0         0         0         0         0         0         0
         0         0         0         0         0         0         0         0
         0         0         0         0         0         0         0         0
         0         0         0         0         0         0         0         0
         0         0         0         0         0         0         0         0
         0         0         0         0         0         0         0         0
         0         0         0         0         0         0         0         0
         0         0         0         0         0         0         0         0
         0         0         0         0         0         0         0         0
         0         0         0         0         0         0         0         0
         0         0         0         0         0         0         0         0
         0         0         0         0         0         0         0         0
         0         0         0         0         0         0         0         0
         0         0         0         0         0         0         0         0
         0         0         0         0         0         0         0         0
         0         0         0         0         0         0         0         0
         0         0         0         0         0         0         0         0
         0         0         0         0         0         0         0         0
         0         0         0         0         0         0         0         0
         0         0         0         0         0         0         0         0
         0         0         0         0         0         0         0         0
         0         0         0         0         0         0         0         0
         0         0         0         0         0         0         0         0
         0         0         0         0         0         0         0         0
         0         0         0         0         0         0         0         0
         0         0         0         0         0         0         0         0
         0         0         0         0         0         0         0         0
         0         0         0         0         0         0         0         0
         0         0         0         0         0         0         0         0
         0         0         0         0         0         0         0         0
         0         0         0         0         0         0         0         0
         0         0         0         0         0         0         0         0
         0         0         0         0         0         0         0         0
         0         0         0         0         0         0         0         0
         0         0         0         0         0         0         0         0
         0         0         0         0         0         0         0         0
         0         0         0         0         0         0         0         0
         0         0         0         0         0         0         0         0
         0         0         0         0         0         0         0         0
         0         0         0         0         0         0         0         0
         0         0         0         0         0         0         0         0
         0         0         0         0         0         0         0         0
         0         0         0         0         0         0         0         0
         0         0         0         0         0         0         0         0
         0         0         0         0         0         0         0         0
         0         0         0         0         0         0         0         0
         0         0         0         0         0         0         0         0
         0         0         0         0         0         0         0         0
         0         0         0         0         0         0         0         0
         0         0         0         0         0         0         0         0
         0         0         0         0         0         0         0         0
         0         0         0         0         0         0         0         0
         0         0         0         0         0         0         0         0
         0         0         0         0         0         0         0         0
         0         0         0         0         0         0         0         0
         0         0         0         0         0         0         0         0
         0         0         0         0         0         0         0         0
         0         0         0         0         0         0         0         0
         0         0         0         0         0         0         0         0
         0         0         0         0         0         0         0         0
         0         0         0         0         0         0         0         0
         0         0         0         0         0         0         0         0
         0         0         0         0         0         0         0         0
         0         0         0         0         0         0         0         0
         0         0         0         0         0         0         0         0
         0         0         0         0         0         0         0         0
         0         0         0         0         0         0         0         0
         0         0         0         0         0         0         0         0
         0         0         0         0         0         0         0         0
         0         0         0         0         0         0         0         0
         0         0         0         0         0         0         0         0
         0         0         0         0         0         0         0         0
         0         0         0         0         0         0         0         0
         0         0         0         0         0         0         0         0
         0         0         0         0         0         0         0         0
         0         0         0         0         0         0         0         0
         0         0         0         0         0         0         0         0
         0         0         0         0         0         0         0         0
         0         0         0         0         0         0         0         0
         0         0         0         0         0         0         0         0
         0         0         0         0         0         0         0         0
         0         0         0         0         0         0         0         0
         0         0         0         0         0         0         0         0
         0         0         0         0         0         0         0         0
         0         0         0         0         0         0         0         0
         0         0         0         0         0         0         0         0
         0         0         0         0         0         0         0         0
         0         0         0         0         0         0         0         0
         0         0         0         0         0         0         0         0
         0         0         0         0         0         0         0         0
         0         0         0         0         0         0         0         0
         0         0         0         0         0         0         0         0
         0         0         0         0         0         0         0         0
         0         0         0         0         0         0         0         0
         0         0         0         0         0         0         0         0
         0         0         0         0         0         0         0         0
         0         0         0         0         0         0         0         0
         0         0         0         0         0         0         0         0
         0         0         0         0         0         0         0         0
         0         0         0         0         0         0         0         0
         0         0         0         0         0         0         0         0
         0         0         0         0         0         0         0         0
         0         0         0         0         0         0         0         0
         0         0         0         0         0         0         0         0
         0         0         0         0         0         0         0         0
         0         0         0         0         0         0         0         0
         0         0         0         0         0         0         0         0
         0         0         0         0         0         0         0         0
         0         0         0         0         0         0         0         0
         0         0         0         0         0         0         0         0
         0         0         0         0         0         0         0         0
         0         0         0         0         0         0         0         0
         0         0         0         0         0         0         0         0
         0         0         0         0         0         0         0         0
         0         0         0         0         0         0         0         0
         0         0         0         0         0         0         0         0
         0         0         0         0         0         0         0         0
         0         0         0         0         0         0         0         0
         0         0         0         0         0         0         0         0
         0         0         0         0         0         0         0         0
         0         0         0         0         0         0         0         0
         0         0         0         0         0         0         0         0
         0         0         0         0         0         0         0         0
         0         0         0         0         0         0         0         0
         0         0         0         0         0         0         0         0
         0         0         0         0         0         0         0         0
         0         0         0         0         0         0         0         0
         0         0         0         0         0         0         0         0
         0         0         0         0         0         0         0         0
         0         0         0         0         0         0         0         0
         0         0         0         0         0         0         0         0
         0         0         0         0         0         0         0         0
         0         0         0         0         0         0         0         0
         0         0         0         0         0         0         0         0
         0         0         0         0         0         0         0         0
         0         0         0         0         0         0         0         0
         0         0         0         0         0         0         0         0
         0         0         0         0         0         0         0         0
         0         0         0         0         0         0         0         0
         0         0         0         0         0         0         0         0
         0         0         0         0         0         0         0         0
         0         0         0         0         0         0         0         0
         0         0         0         0         0         0         0         0
         0         0         0         0         0         0         0         0
         0         0         0         0         0         0         0         0
         0         0         0         0         0         0         0         0
         0         0         0         0         0         0         0         0
         0         0         0         0         0         0         0         0
         0         0         0         0         0         0         0         0
         0         0         0         0         0         0         0         0
         0         0         0         0         0         0         0         0
         0         0         0         0         0         0         0         0
         0         0         0         0         0         0         0         0
         0         0         0         0         0         0         0         0
         0         0         0         0         0         0         0         0
         0         0         0         0         0         0         0         0
         0         0         0         0         0         0         0         0
         0         0         0         0         0         0         0         0
         0         0         0         0         0         0         0         0
         0         0         0         0         0         0         0         0
         0         0         0         0         0         0         0         0
         0         0         0         0         0         0         0         0
         0         0         0         0         0         0         0         0
         0         0         0         0         0         0         0         0
         0         0         0         0         0         0         0         0
         0         0         0         0         0         0         0         0
         0         0         0         0         0         0         0         0
         0         0         0         0         0         0         0         0
         0         0         0         0         0         0         0         0
         0         0         0         0         0         0         0         0
         0         0         0         0         0         0         0         0
         0         0         0         0         0         0         0         0
         0         0         0         0         0         0         0         0
         0         0         0         0         0         0         0         0
         0         0         0         0         0         0         0         0
         0         0         0         0         0         0         0         0
         0         0         0         0         0         0         0         0
         0         0         0         0         0         0         0         0
         0         0         0         0         0         0         0         0
         0         0         0         0         0         0         0         0
         0         0         0         0         0         0         0         0
         0         0         0         0         0         0         0         0
         0         0         0         0         0         0         0         0
         0         0         0         0         0         0         0         0
         0         0         0         0         0         0         0         0
         0         0         0         0         0         0         0         0
         0         0         0         0         0         0         0         0
         0         0         0         0         0         0         0         0
         0         0         0         0         0         0         0         0
         0         0         0         0         0         0         0         0
         0         0         0         0         0         0         0         0
         0         0         0         0         0         0         0         0
         0         0         0         0         0         0         0         0
         0         0         0         0         0         0         0         0
         0         0         0         0         0         0         0         0
         0         0         0         0         0         0         0         0
         0         0         0         0         0         0         0         0
         0         0         0         0         0         0         0         0
         0         0         0         0         0         0         0         0
         0         0         0         0         0         0         0         0
         0         0         0         0         0         0         0         0
         0         0         0         0         0         0         0         0
         0         0         0         0         0         0         0         0
         0         0         0         0         0         0         0         0
         0         0         0         0         0         0         0         0
         0         0         0         0         0         0         0         0
         0         0         0         0         0         0         0         0
         0         0         0         0         0         0         0         0
         0         0         0         0         0         0         0         0
         0         0         0         0         0         0         0         0
         0         0         0         0         0         0         0         0
         0         0         0         0         0         0         0         0
         0         0         0         0         0         0         0         0
         0         0         0         0         0         0         0         0
         0         0         0         0         0         0         0         0
         0         0         0         0         0         0         0         0
         0         0         0         0         0         0         0         0
         0         0         0         0         0         0         0         0
         0         0         0         0         0         0         0         0
         0         0         0         0         0         0         0         0
         0         0         0         0         0         0         0         0
         0         0         0         0         0         0         0         0
         0         0         0         0         0         0         0         0
         0         0         0         0         0         0         0         0
         0         0         0         0         0         0         0         0
         0         0         0         0         0         0         0         0
         0         0         0         0         0         0         0         0
         0         0         0         0         0         0         0         0
         0         0         0         0         0         0         0         0
         0         0         0         0         0         0         0         0
         0         0         0         0         0         0         0         0
         0         0         0         0         0         0         0         0
         0         0         0         0         0         0         0         0
         0         0         0         0         0         0         0         0
         0         0         0         0         0         0         0         0
         0         0         0         0         0         0         0         0
         0         0         0         0         0         0         0         0
         0         0         0         0         0         0         0         0
         0         0         0         0         0         0         0         0
         0         0         0         0         0         0         0         0
         0         0         0         0         0         0         0         0
         0         0         0         0         0         0         0         0
         0         0         0         0         0         0         0         0
         0         0         0         0         0         0         0         0
         0         0         0         0         0         0         0         0
         0         0         0         0         0         0         0         0
         0         0         0         0         0         0         0         0
         0         0         0         0         0         0         0         0
         0         0         0         0         0         0         0         0
         0         0         0         0         0         0         0         0
         0         0         0         0         0         0         0         0
         0         0         0         0         0         0         0         0
         0         0         0         0         0         0         0         0
         0         0         0         0         0         0         0         0
         0         0         0         0         0         0         0         0
         0         0         0         0         0         0         0         0
         0         0         0         0         0         0         0         0
         0         0         0         0         0         0         0         0
         0         0         0         0         0         0         0         0
         0         0         0         0         0         0         0         0
         0         0         0         0         0         0         0         0
         0         0         0         0         0         0         0         0
         0         0         0         0         0         0         0         0
         0         0         0         0         0         0         0         0
         0         0         0         0         0         0         0         0
         0         0         0         0         0         0         0         0
         0         0         0         0         0         0         0         0
         0         0         0         0         0         0         0         0
         0         0         0         0         0         0         0         0
         0         0         0         0         0         0         0         0
         0         0         0         0         0         0         0         0
         0         0         0         0         0         0         0         0
         0         0         0         0         0         0         0         0
         0         0         0         0         0         0         0         0
         0         0         0         0         0         0         0         0
         0         0         0         0         0         0         0         0
         0         0         0         0         0         0         0         0
         0         0         0         0         0         0         0         0
         0         0         0         0         0         0         0         0
         0         0         0         0         0         0         0         0
         0         0         0         0         0         0         0         0
         0         0         0         0         0         0         0         0
         0         0         0         0         0         0         0         0
         0         0         0         0         0         0         0         0
         0         0         0         0         0         0         0         0
         0         0         0         0         0         0         0         0
         0         0         0         0         0         0         0         0
         0         0         0         0         0         0         0         0
         0         0         0         0         0         0         0         0
         0         0         0         0         0         0         0         0
         0         0         0         0         0         0         0         0
         0         0         0         0         0         0         0         0
         0         0         0         0         0         0         0         0
         0         0         0         0         0         0         0         0
         0         0         0         0         0         0         0         0
         0         0         0         0         0         0         0         0
         0         0         0         0         0         0         0         0
         0         0         0         0         0         0         0         0
         0         0         0         0         0         0         0         0
         0         0         0         0         0         0         0         0
         0         0         0         0         0         0         0         0
         0         0         0         0         0         0         0         0
         0         0         0         0         0         0         0         0
         0         0         0         0         0         0         0         0
         0         0         0         0         0         0         0         0
         0         0         0         0         0         0         0         0
         0         0         0         0         0         0         0         0
         0         0         0         0         0         0         0         0
         0         0         0         0         0         0         0         0
         0         0         0         0         0         0         0         0
         0         0         0         0         0         0         0         0
         0         0         0         0         0         0         0         0
         0         0         0         0         0         0         0         0
         0         0         0         0         0         0         0         0
         0         0         0         0         0         0         0         0
         0         0         0         0         0         0         0         0
         0         0         0         0         0         0         0         0
         0         0         0         0         0         0         0         0
         0         0         0         0         0         0         0         0
         0         0         0         0         0         0         0         0
         0         0         0         0         0         0         0         0
         0         0         0         0         0         0         0         0
         0         0         0         0         0         0         0         0
         0         0         0         0         0         0         0         0
         0         0         0         0         0         0         0         0
         0         0         0         0         0         0         0         0
         0         0         0         0         0         0         0         0
         0         0         0         0         0         0         0         0
         0         0         0         0         0         0         0         0
         0         0         0         0         0         0         0         0
         0         0         0         0         0         0         0         0
         0         0         0         0         0         0         0         0
         0         0         0         0         0         0         0         0
         0         0         0         0         0         0         0         0
         0         0         0         0         0         0         0         0
         0         0         0         0         0         0         0         0
         0         0         0         0         0         0         0         0
         0         0         0         0         0         0         0         0
         0         0         0         0         0         0         0         0
         0         0         0         0         0         0         0         0
         0         0         0         0         0         0         0         0
         0         0         0         0         0         0         0         0
         0         0         0         0         0         0         0         0
         0         0         0         0         0         0         0         0
         0         0         0         0         0         0         0         0
         0         0         0         0         0         0         0         0
         0         0         0         0         0         0         0         0
         0         0         0         0         0         0         0         0
         0         0         0         0         0         0         0         0
         0         0         0         0         0         0         0         0
         0         0         0         0         0         0         0         0
         0         0         0         0         0         0         0         0
         0         0         0         0         0         0         0         0
         0         0         0         0         0         0         0         0
         0         0         0         0         0         0         0         0
         0         0         0         0         0         0         0         0
         0         0         0         0         0         0         0         0
         0         0         0         0         0         0         0         0
         0         0         0         0         0         0         0         0
         0         0         0         0         0         0         0         0
         0         0         0         0         0         0         0         0
         0         0         0         0         0         0         0         0
         0         0         0         0         0         0         0         0
         0         0         0         0         0         0         0         0
         0         0         0         0         0         0         0         0
         0         0         0         0         0         0         0         0
         0         0         0         0         0         0         0         0
         0         0         0         0         0         0         0         0
         0         0         0         0         0         0         0         0
         0         0         0         0         0         0         0         0
         0         0         0         0         0         0         0         0
         0         0         0         0         0         0         0         0
         0         0         0         0         0         0         0         0
         0         0         0         0         0         0         0         0
         0         0         0         0         0         0         0         0
         0         0         0         0         0         0         0         0
         0         0         0         0         0         0         0         0
         0         0         0         0         0         0         0         0
         0         0         0         0         0         0         0         0
         0         0         0         0         0         0         0         0
         0         0         0         0         0         0         0         0
         0         0         0         0         0         0         0         0
         0         0         0         0         0         0         0         0
         0         0         0         0         0         0         0         0
         0         0         0         0         0         0         0         0
         0         0         0         0         0         0         0         0
         0         0         0         0         0         0         0         0
         0         0         0         0         0         0         0         0
         0         0         0         0         0         0         0         0
         0         0         0         0         0         0         0         0
         0         0         0         0         0         0         0         0
         0         0         0         0         0         0         0         0
         0         0         0         0         0         0         0         0
         0         0         0         0         0         0         0         0
         0         0         0         0         0         0         0         0
         0         0         0         0         0         0         0         0
         0         0         0         0         0         0         0         0
         0         0         0         0         0         0         0         0
         0         0         0         0         0         0         0         0
         0         0         0         0         0         0         0         0
         0         0         0         0         0         0         0         0
         0         0         0         0         0         0         0         0
         0         0         0         0         0         0         0         0
         0         0         0         0         0         0         0         0
         0         0         0         0         0         0         0         0
         0         0         0         0         0         0         0         0
         0         0         0         0         0         0         0         0
         0         0         0         0         0         0         0         0
         0         0         0         0         0         0         0         0
         0         0         0         0         0         0         0         0
         0         0         0         0         0         0         0         0
         0         0         0         0         0         0         0         0
         0         0         0         0         0         0         0         0
         0         0         0         0         0         0         0         0
         0         0         0         0         0         0         0         0
         0         0         0         0         0         0         0         0
         0         0         0         0         0         0         0         0
         0         0         0         0         0         0         0         0
         0         0         0         0         0         0         0         0
         0         0         0         0         0         0         0         0
         0         0         0         0         0         0         0         0
         0         0         0         0         0         0         0         0
         0         0         0         0         0         0         0         0
         0         0         0         0         0         0         0         0
         0         0         0         0         0         0         0         0
         0         0         0         0         0         0         0         0
         0         0         0         0         0         0         0         0
         0         0         0         0         0         0         0         0
         0         0         0         0         0         0         0         0
         0         0         0         0         0         0         0         0
         0         0         0         0         0         0         0         0
         0         0         0         0         0         0         0         0
         0         0         0         0         0         0         0         0
         0         0         0         0         0         0         0         0
         0         0         0         0         0         0         0         0
         0         0         0         0         0         0         0         0
         0         0         0         0         0         0         0         0
         0         0         0         0         0         0         0         0
         0         0         0         0         0         0         0         0
         0         0         0         0         0         0         0         0
         0         0         0         0         0         0         0         0
         0         0         0         0         0         0         0         0
         0         0         0         0         0         0         0         0
         0         0         0         0         0         0         0         0
         0         0         0         0         0         0         0         0
         0         0         0         0         0         0         0         0
         0         0         0         0         0         0         0         0
         0         0         0         0         0         0         0         0
         0         0         0         0         0         0         0         0
         0         0         0         0         0         0         0         0
         0         0         0         0         0         0         0         0
         0         0         0         0         0         0         0         0
         0         0         0         0         0         0         0         0
         0         0         0         0         0         0         0         0
         0         0         0         0         0         0         0         0
         0         0         0         0         0         0         0         0
         0         0         0         0         0         0         0         0
         0         0         0         0         0         0         0         0
         0         0         0         0         0         0         0         0
         0         0         0         0         0         0         0         0
         0         0         0         0         0         0         0         0
         0         0         0         0         0         0         0         0
         0         0         0         0         0         0         0         0
         0         0         0         0         0         0         0         0
         0         0         0         0         0         0         0         0
         0         0         0         0         0         0         0         0
         0         0         0         0         0         0         0         0
         0         0         0         0         0         0         0         0
         0         0         0         0         0         0         0         0
         0         0         0         0         0         0         0         0
         0         0         0         0         0         0         0         0
         0         0         0         0         0         0         0         0
         0         0         0         0         0         0         0         0
         0         0         0         0         0         0         0         0
         0         0         0         0         0         0         0         0
         0         0         0         0         0         0         0         0
         0         0         0         0         0         0         0         0
         0         0         0         0         0         0         0         0
         0         0         0         0         0         0         0         0
         0         0         0         0         0         0         0         0
         0         0         0         0         0         0         0         0
         0         0         0         0         0         0         0         0
         0         0         0         0         0         0         0         0
         0         0         0         0         0         0         0         0
         0         0         0         0         0         0         0         0
         0         0         0         0         0         0         0         0
         0         0         0         0         0         0         0         0
         0         0         0         0         0         0         0         0
         0         0         0         0         0         0         0         0
         0         0         0         0         0         0         0         0
         0         0         0         0         0         0         0         0
         0         0         0         0         0         0         0         0
         0         0         0         0         0         0         0         0
         0         0         0         0         0         0         0         0
         0         0         0         0         0         0         0         0
         0         0         0         0         0         0         0         0
         0         0         0         0         0         0         0         0
         0         0         0         0         0         0         0         0
         0         0         0         0         0         0         0         0
         0         0         0         0         0         0         0         0
         0         0         0         0         0         0         0         0
         0         0         0         0         0         0         0         0
         0         0         0         0         0         0         0         0
         0         0         0         0         0         0         0         0
         0         0         0         0         0         0         0         0
         0         0         0         0         0         0         0         0
         0         0         0         0         0         0         0         0
         0         0         0         0         0         0         0         0
         0         0         0         0         0         0         0         0
         0         0         0         0         0         0         0         0
         0         0         0         0         0         0         0         0
         0         0         0         0         0         0         0         0
         0         0         0         0         0         0         0         0
         0         0         0         0         0         0         0         0
         0         0         0         0         0         0         0         0
         0         0         0         0         0         0         0         0
         0         0         0         0         0         0         0         0
         0         0         0         0         0         0         0         0
         0         0         0         0         0         0         0         0
         0         0         0         0         0         0         0         0
         0         0         0         0         0         0         0         0
         0         0         0         0         0         0         0         0
         0         0         0         0         0         0         0         0
         0         0         0         0         0         0         0         0
         0         0         0         0         0         0         0         0
         0         0         0         0         0         0         0         0
         0         0         0         0         0         0         0         0
         0         0         0         0         0         0         0         0
         0         0         0         0         0         0         0         0
         0         0         0         0         0         0         0         0
         0         0         0         0         0         0         0         0
         0         0         0         0         0         0         0         0
         0         0         0         0         0         0         0         0
         0         0         0         0         0         0         0         0
         0         0         0         0         0         0         0         0
         0         0         0         0         0         0         0         0
         0         0         0         0         0         0         0         0
         0         0         0         0         0         0         0         0
         0         0         0         0         0         0         0         0
         0         0         0         0         0         0         0         0
         0         0         0         0         0         0         0         0
         0         0         0         0         0         0         0         0
         0         0         0         0         0         0         0         0
         0         0         0         0         0         0         0         0
         0         0         0         0         0         0         0         0
         0         0         0         0         0         0         0         0
         0         0         0         0         0         0         0         0
         0         0         0         0         0         0         0         0
         0         0         0         0         0         0         0         0
         0         0         0         0         0         0         0         0
         0         0         0         0         0         0         0         0
         0         0         0         0         0         0         0         0
         0         0         0         0         0         0         0         0
         0         0         0         0         0         0         0         0
         0         0         0         0         0         0         0         0
         0         0         0         0         0         0         0         0
         0         0         0         0         0         0         0         0
         0         0         0         0         0         0         0         0
         0         0         0         0         0         0         0         0
         0         0         0         0         0         0         0         0
         0         0         0         0         0         0         0         0
         0         0         0         0         0         0         0         0
         0         0         0         0         0         0         0         0
         0         0         0         0         0         0         0         0
         0         0         0         0         0         0         0         0
         0         0         0         0         0         0         0         0
         0         0         0         0         0         0         0         0
         0         0         0         0         0         0         0         0
         0         0         0         0         0         0         0         0
         0         0         0         0         0         0         0         0
         0         0         0         0         0         0         0         0
         0         0         0         0         0         0         0         0
         0         0         0         0         0         0         0         0
         0         0         0         0         0         0         0         0
         0         0         0         0         0         0         0         0
         0         0         0         0         0         0         0         0
         0         0         0         0         0         0         0         0
         0         0         0         0         0         0         0         0
         0         0         0         0         0         0         0         0
         0         0         0         0         0         0         0         0
         0         0         0         0         0         0         0         0
         0         0         0         0         0         0         0         0
         0         0         0         0         0         0         0         0
         0         0         0         0         0         0         0         0
         0         0         0         0         0         0         0         0
         0         0         0         0         0         0         0         0
         0         0         0         0         0         0         0         0
         0         0         0         0         0         0         0         0
         0         0         0         0         0         0         0         0
         0         0         0         0         0         0         0         0
         0         0         0         0         0         0         0         0
         0         0         0         0         0         0         0         0
         0         0         0         0         0         0         0         0
         0         0         0         0         0         0         0         0
         0         0         0         0         0         0         0         0
         0         0         0         0         0         0         0         0
         0         0         0         0         0         0         0         0
         0         0         0         0         0         0         0         0
         0         0         0         0         0         0         0         0
         0         0         0         0         0         0         0         0
         0         0         0         0         0         0         0         0
         0         0         0         0         0         0         0         0
         0         0         0         0         0         0         0         0
         0         0         0         0         0         0         0         0
         0         0         0         0         0         0         0         0
         0         0         0         0         0         0         0         0
         0         0         0         0         0         0         0         0
         0         0         0         0         0         0         0         0
         0         0         0         0         0         0         0         0
         0         0         0         0         0         0         0         0
         0         0         0         0         0         0         0         0
         0         0         0         0         0         0         0         0
         0         0         0         0         0         0         0         0
         0         0         0         0         0         0         0         0
         0         0         0         0         0         0         0         0
         0         0         0         0         0         0         0         0
         0         0         0         0         0         0         0         0
         0         0         0         0         0         0         0         0
         0         0         0         0         0         0         0         0
         0         0         0         0         0         0         0         0
         0         0         0         0         0         0         0         0
         0         0         0         0         0         0         0         0
         0         0         0         0         0         0         0         0
         0         0         0         0         0         0         0         0
         0         0         0         0         0         0         0         0
         0         0         0         0         0         0         0         0
         0         0         0         0         0         0         0         0
         0         0         0         0         0         0         0         0
         0         0         0         0         0         0         0         0
         0         0         0         0         0         0         0         0
         0         0         0         0         0         0         0         0
         0         0         0         0         0         0         0         0
         0         0         0         0         0         0         0         0
         0         0         0         0         0         0         0         0
         0         0         0         0         0         0         0         0
         0         0         0         0         0         0         0         0
         0         0         0         0         0         0         0         0
         0         0         0         0         0         0         0         0
         0         0         0         0         0         0         0         0
         0         0         0         0         0         0         0         0
         0         0         0         0         0         0         0         0
         0         0         0         0         0         0         0         0
         0         0         0         0         0         0         0         0
         0         0         0         0         0         0         0         0
         0         0         0         0         0         0         0         0
         0         0         0         0         0         0         0         0
         0         0         0         0         0         0         0         0
         0         0         0         0         0         0         0         0
         0         0         0         0         0         0         0         0
         0         0         0         0         0         0         0         0
         0         0         0         0         0         0         0         0
         0         0         0         0         0         0         0         0
         0         0         0         0         0         0         0         0
         0         0         0         0         0         0         0         0
         0         0         0         0         0         0         0         0
         0         0         0         0         0         0         0         0
         0         0         0         0         0         0         0         0
         0         0         0         0         0         0         0         0
         0         0         0         0         0         0         0         0
         0         0         0         0         0         0         0         0
         0         0         0         0         0         0         0         0
         0         0         0         0         0         0         0         0
         0         0         0         0         0         0         0         0
         0         0         0         0         0         0         0         0
         0         0         0         0         0         0         0         0
         0         0         0         0         0         0         0         0
         0         0         0         0         0         0         0         0
         0         0         0         0         0         0         0         0
         0         0         0         0         0         0         0         0
         0         0         0         0         0         0         0         0
         0         0         0         0         0         0         0         0
         0         0         0         0         0         0         0         0
         0         0         0         0         0         0         0         0
         0         0         0         0         0         0         0         0
         0         0         0         0         0         0         0         0
         0         0         0         0         0         0         0         0
         0         0         0         0         0         0         0         0
         0         0         0         0         0         0         0         0
         0         0         0         0         0         0         0         0
         0         0         0         0         0         0         0         0
         0         0         0         0         0         0         0         0
         0         0         0         0         0         0         0         0
         0         0         0         0         0         0         0         0
         0         0         0         0         0         0         0         0
         0         0         0         0         0         0         0         0
         0         0         0         0         0         0         0         0
         0         0         0         0         0         0         0         0
         0         0         0         0         0         0         0         0
         0         0         0         0         0         0         0         0
         0         0         0         0         0         0         0         0
         0         0         0         0         0         0         0         0
         0         0         0         0         0         0         0         0
         0         0         0         0         0         0         0         0
         0         0         0         0         0         0         0         0
         0         0         0         0         0         0         0         0
         0         0         0         0         0         0         0         0
         0         0         0         0         0         0         0         0
         0         0         0         0         0         0         0         0
         0         0         0         0         0         0         0         0
         0         0         0         0         0         0         0         0
         0         0         0         0         0         0         0         0
         0         0         0         0         0         0         0         0
         0         0         0         0         0         0         0         0
         0         0         0         0         0         0         0         0
         0         0         0         0         0         0         0         0
         0         0         0         0         0         0         0         0
         0         0         0         0         0         0         0         0
         0         0         0         0         0         0         0         0
         0         0         0         0         0         0         0         0
         0         0         0         0         0         0         0         0
         0         0         0         0         0         0         0         0
         0         0         0         0         0         0         0         0
         0         0         0         0         0         0         0         0
         0         0         0         0         0         0         0         0
         0         0         0         0         0         0         0         0
         0         0         0         0         0         0         0         0
         0         0         0         0         0         0         0         0
         0         0         0         0         0         0         0         0
         0         0         0         0         0         0         0         0
         0         0         0         0         0         0         0         0
         0         0         0         0         0         0         0         0
         0         0         0         0         0         0         0         0
         0         0         0         0         0         0         0         0
         0         0         0         0         0         0         0         0
         0         0         0         0         0         0         0         0
         0         0         0         0         0         0         0         0
         0         0         0         0         0         0         0         0
         0         0         0         0         0         0         0         0
         0         0         0         0         0         0         0         0
         0         0         0         0         0         0         0         0
         0         0         0         0         0         0         0         0
         0         0         0         0         0         0         0         0
         0         0         0         0         0         0         0         0
         0         0         0         0         0         0         0         0
         0         0         0         0         0         0         0         0
         0         0         0         0         0         0         0         0
         0         0         0         0         0         0         0         0
         0         0         0         0         0         0         0         0
         0         0         0         0         0         0         0         0
         0         0         0         0         0         0         0         0
         0         0         0         0         0         0         0         0
         0         0         0         0         0         0         0         0
         0         0         0         0         0         0         0         0
         0         0         0         0         0         0         0         0
         0         0         0         0         0         0         0         0
         0         0         0         0         0         0         0         0
         0         0         0         0         0         0         0         0
         0         0         0         0         0         0         0         0
         0         0         0         0         0         0         0         0
         0         0         0         0         0         0         0         0
         0         0         0         0         0         0         0         0
         0         0         0         0         0         0         0         0
         0         0         0         0         0         0         0         0
         0         0         0         0         0         0         0         0
         0         0         0         0         0         0         0         0
         0         0         0         0         0         0         0         0
         0         0         0         0         0         0         0         0
         0         0         0         0         0         0         0         0
         0         0         0         0         0         0         0         0
         0         0         0         0         0         0         0         0
         0         0         0         0         0         0         0         0
         0         0         0         0         0         0         0         0
         0         0         0         0         0         0         0         0
         0         0         0         0         0         0         0         0
         0         0         0         0         0         0         0         0
         0         0         0         0         0         0         0         0
         0         0         0         0         0         0         0         0
         0         0         0         0         0         0         0         0
         0         0         0         0         0         0         0         0
         0         0         0         0         0         0         0         0
         0         0         0         0         0         0         0         0
         0         0         0         0         0         0         0         0
         0         0         0         0         0         0         0         0
         0         0         0         0         0         0         0         0
         0         0         0         0         0         0         0         0
         0         0         0         0         0         0         0         0
         0         0         0         0         0         0         0         0
         0         0         0         0         0         0         0         0
         0         0         0         0         0         0         0         0
         0         0         0         0         0         0         0         0
         0         0         0         0         0         0         0         0
         0         0         0         0         0         0         0         0
         0         0         0         0         0         0         0         0
         0         0         0         0         0         0         0         0
         0         0         0         0         0         0         0         0
         0         0         0         0         0         0         0         0
         0         0         0         0         0         0         0         0
         0         0         0         0         0         0         0         0
         0         0         0         0         0         0         0         0
         0         0         0         0         0         0         0         0
         0         0         0         0         0         0         0         0
         0         0         0         0         0         0         0         0
         0         0         0         0         0         0         0         0
         0         0         0         0         0         0         0         0
         0         0         0         0         0         0         0         0
         0         0         0         0         0         0         0         0
         0         0         0         0         0         0         0         0
         0         0         0         0         0         0         0         0
         0         0         0         0         0         0         0         0
         0         0         0         0         0         0         0         0
         0         0         0         0         0         0         0         0
         0         0         0         0         0         0         0         0
         0         0         0         0         0         0         0         0
         0         0         0         0         0         0         0         0
         0         0         0         0         0         0

         0         0 !NGRP NST2


         0         0 !NUMLP NUMLPH

         0 !NCRTERM: cross-terms

