;;
;; Generated by CHARMM-GUI (http://www.charmm-gui.org) v1.7
;;
;; psf2itp_mol.py
;;
;; Correspondance:
;; jul316@lehigh.edu or wonpil@lehigh.edu
;;
;; GROMACS topology file for LIG
;;


[ moleculetype ]
; name	nrexcl
LIG	     3

[ atoms ]
; nr	type	resnr	residu	atom	cgnr	charge	mass
     1      SG311      1      LIG      S      1     -0.246    32.0600   ; qtot -0.246
     2      NG301      1      LIG     N1      2     -0.704    14.0070   ; qtot -0.950
     3      NG301      1      LIG     N2      3     -0.713    14.0070   ; qtot -1.663
     4      NG301      1      LIG     N3      4     -0.382    14.0070   ; qtot -2.045
     5      CG311      1      LIG     C1      5      0.089    12.0110   ; qtot -1.956
     6      CG321      1      LIG     C2      6      0.065    12.0110   ; qtot -1.891
     7      CG321      1      LIG     C3      7      0.065    12.0110   ; qtot -1.826
     8      CG321      1      LIG     C4      8      0.066    12.0110   ; qtot -1.760
     9      CG321      1      LIG     C5      9      0.066    12.0110   ; qtot -1.694
    10      CG321      1      LIG     C6     10      0.029    12.0110   ; qtot -1.665
    11      CG331      1      LIG     C7     11     -0.238    12.0110   ; qtot -1.903
    12      CG321      1      LIG     C8     12      0.040    12.0110   ; qtot -1.863
    13     CG2R61      1      LIG     C9     13      0.229    12.0110   ; qtot -1.634
    14     CG2R61      1      LIG    C10     14      0.229    12.0110   ; qtot -1.405
    15      CG331      1      LIG    C11     15     -0.269    12.0110   ; qtot -1.674
    16     CG2R61      1      LIG    C12     16      0.046    12.0110   ; qtot -1.628
    17     CG2R61      1      LIG    C13     17      0.046    12.0110   ; qtot -1.582
    18     CG2R61      1      LIG    C14     18     -0.201    12.0110   ; qtot -1.783
    19     CG2R61      1      LIG    C15     19     -0.201    12.0110   ; qtot -1.984
    20     CG2R61      1      LIG    C16     20     -0.108    12.0110   ; qtot -2.092
    21     CG2R61      1      LIG    C17     21     -0.108    12.0110   ; qtot -2.200
    22     CG2R61      1      LIG    C18     22     -0.099    12.0110   ; qtot -2.299
    23     CG2R61      1      LIG    C19     23     -0.099    12.0110   ; qtot -2.398
    24     CG2R61      1      LIG    C20     24     -0.116    12.0110   ; qtot -2.514
    25     CG2R61      1      LIG    C21     25     -0.116    12.0110   ; qtot -2.630
    26       HGA1      1      LIG     H1     26      0.090     1.0080   ; qtot -2.540
    27       HGA2      1      LIG     H2     27      0.090     1.0080   ; qtot -2.450
    28       HGA2      1      LIG     H3     28      0.090     1.0080   ; qtot -2.360
    29       HGA2      1      LIG     H4     29      0.090     1.0080   ; qtot -2.270
    30       HGA2      1      LIG     H5     30      0.090     1.0080   ; qtot -2.180
    31       HGA2      1      LIG     H6     31      0.090     1.0080   ; qtot -2.090
    32       HGA2      1      LIG     H7     32      0.090     1.0080   ; qtot -2.000
    33       HGA2      1      LIG     H8     33      0.090     1.0080   ; qtot -1.910
    34       HGA2      1      LIG     H9     34      0.090     1.0080   ; qtot -1.820
    35       HGA2      1      LIG    H10     35      0.090     1.0080   ; qtot -1.730
    36       HGA2      1      LIG    H11     36      0.090     1.0080   ; qtot -1.640
    37       HGA3      1      LIG    H12     37      0.090     1.0080   ; qtot -1.550
    38       HGA3      1      LIG    H13     38      0.090     1.0080   ; qtot -1.460
    39       HGA3      1      LIG    H14     39      0.090     1.0080   ; qtot -1.370
    40       HGA2      1      LIG    H15     40      0.090     1.0080   ; qtot -1.280
    41       HGA2      1      LIG    H16     41      0.090     1.0080   ; qtot -1.190
    42       HGA3      1      LIG    H17     42      0.090     1.0080   ; qtot -1.100
    43       HGA3      1      LIG    H18     43      0.090     1.0080   ; qtot -1.010
    44       HGA3      1      LIG    H19     44      0.090     1.0080   ; qtot -0.920
    45      HGR61      1      LIG    H20     45      0.115     1.0080   ; qtot -0.805
    46      HGR61      1      LIG    H21     46      0.115     1.0080   ; qtot -0.690
    47      HGR61      1      LIG    H22     47      0.115     1.0080   ; qtot -0.575
    48      HGR61      1      LIG    H23     48      0.115     1.0080   ; qtot -0.460
    49      HGR61      1      LIG    H24     49      0.115     1.0080   ; qtot -0.345
    50      HGR61      1      LIG    H25     50      0.115     1.0080   ; qtot -0.230
    51      HGR61      1      LIG    H26     51      0.115     1.0080   ; qtot -0.115
    52      HGR61      1      LIG    H27     52      0.115     1.0080   ; qtot -0.000

[ bonds ]
; ai	aj	funct	b0	Kb
    1    16     1
    1    17     1
    2     5     1
    2     6     1
    2     7     1
    3     8     1
    3     9     1
    3    12     1
    4    10     1
    4    13     1
    4    14     1
    5    10     1
    5    11     1
    5    26     1
    6     8     1
    6    27     1
    6    28     1
    7     9     1
    7    29     1
    7    30     1
    8    31     1
    8    32     1
    9    33     1
    9    34     1
   10    35     1
   10    36     1
   11    37     1
   11    38     1
   11    39     1
   12    15     1
   12    40     1
   12    41     1
   13    16     1
   13    18     1
   14    17     1
   14    19     1
   15    42     1
   15    43     1
   15    44     1
   16    20     1
   17    21     1
   18    22     1
   18    45     1
   19    23     1
   19    46     1
   20    24     1
   20    47     1
   21    25     1
   21    48     1
   22    24     1
   22    49     1
   23    25     1
   23    50     1
   24    51     1
   25    52     1

[ pairs ]
; ai	aj	funct	c6	c12
    1     4     1 
    1    18     1 
    1    19     1 
    1    24     1 
    1    25     1 
    1    47     1 
    1    48     1 
    2     3     1 
    2     4     1 
    2    31     1 
    2    32     1 
    2    33     1 
    2    34     1 
    2    35     1 
    2    36     1 
    2    37     1 
    2    38     1 
    2    39     1 
    3    27     1 
    3    28     1 
    3    29     1 
    3    30     1 
    3    42     1 
    3    43     1 
    3    44     1 
    4    11     1 
    4    20     1 
    4    21     1 
    4    22     1 
    4    23     1 
    4    26     1 
    4    45     1 
    4    46     1 
    5     8     1 
    5     9     1 
    5    13     1 
    5    14     1 
    5    27     1 
    5    28     1 
    5    29     1 
    5    30     1 
    6     9     1 
    6    10     1 
    6    11     1 
    6    12     1 
    6    26     1 
    6    29     1 
    6    30     1 
    7     8     1 
    7    10     1 
    7    11     1 
    7    12     1 
    7    26     1 
    7    27     1 
    7    28     1 
    8    15     1 
    8    33     1 
    8    34     1 
    8    40     1 
    8    41     1 
    9    15     1 
    9    31     1 
    9    32     1 
    9    40     1 
    9    41     1 
   10    16     1 
   10    17     1 
   10    18     1 
   10    19     1 
   10    37     1 
   10    38     1 
   10    39     1 
   11    35     1 
   11    36     1 
   12    31     1 
   12    32     1 
   12    33     1 
   12    34     1 
   13    17     1 
   13    19     1 
   13    24     1 
   13    35     1 
   13    36     1 
   13    47     1 
   13    49     1 
   14    16     1 
   14    18     1 
   14    25     1 
   14    35     1 
   14    36     1 
   14    48     1 
   14    50     1 
   16    21     1 
   16    22     1 
   16    45     1 
   16    51     1 
   17    20     1 
   17    23     1 
   17    46     1 
   17    52     1 
   18    20     1 
   18    51     1 
   19    21     1 
   19    52     1 
   20    49     1 
   21    50     1 
   22    47     1 
   23    48     1 
   24    45     1 
   25    46     1 
   26    35     1 
   26    36     1 
   26    37     1 
   26    38     1 
   26    39     1 
   27    31     1 
   27    32     1 
   28    31     1 
   28    32     1 
   29    33     1 
   29    34     1 
   30    33     1 
   30    34     1 
   40    42     1 
   40    43     1 
   40    44     1 
   41    42     1 
   41    43     1 
   41    44     1 
   45    49     1 
   46    50     1 
   47    51     1 
   48    52     1 
   49    51     1 
   50    52     1 

[ angles ] 
; ai	aj	ak	funct	th0	cth	S0	Kub
   16     1    17     5
    5     2     6     5
    5     2     7     5
    6     2     7     5
    8     3     9     5
    8     3    12     5
    9     3    12     5
   10     4    13     5
   10     4    14     5
   13     4    14     5
    2     5    10     5
    2     5    11     5
    2     5    26     5
   10     5    11     5
   10     5    26     5
   11     5    26     5
    2     6     8     5
    2     6    27     5
    2     6    28     5
    8     6    27     5
    8     6    28     5
   27     6    28     5
    2     7     9     5
    2     7    29     5
    2     7    30     5
    9     7    29     5
    9     7    30     5
   29     7    30     5
    3     8     6     5
    3     8    31     5
    3     8    32     5
    6     8    31     5
    6     8    32     5
   31     8    32     5
    3     9     7     5
    3     9    33     5
    3     9    34     5
    7     9    33     5
    7     9    34     5
   33     9    34     5
    4    10     5     5
    4    10    35     5
    4    10    36     5
    5    10    35     5
    5    10    36     5
   35    10    36     5
    5    11    37     5
    5    11    38     5
    5    11    39     5
   37    11    38     5
   37    11    39     5
   38    11    39     5
    3    12    15     5
    3    12    40     5
    3    12    41     5
   15    12    40     5
   15    12    41     5
   40    12    41     5
    4    13    16     5
    4    13    18     5
   16    13    18     5
    4    14    17     5
    4    14    19     5
   17    14    19     5
   12    15    42     5
   12    15    43     5
   12    15    44     5
   42    15    43     5
   42    15    44     5
   43    15    44     5
    1    16    13     5
    1    16    20     5
   13    16    20     5
    1    17    14     5
    1    17    21     5
   14    17    21     5
   13    18    22     5
   13    18    45     5
   22    18    45     5
   14    19    23     5
   14    19    46     5
   23    19    46     5
   16    20    24     5
   16    20    47     5
   24    20    47     5
   17    21    25     5
   17    21    48     5
   25    21    48     5
   18    22    24     5
   18    22    49     5
   24    22    49     5
   19    23    25     5
   19    23    50     5
   25    23    50     5
   20    24    22     5
   20    24    51     5
   22    24    51     5
   21    25    23     5
   21    25    52     5
   23    25    52     5

[ dihedrals ]
; ai	aj	ak	al	funct	phi0	cp	mult
   17     1    16    20     9
   16     1    17    21     9
    6     2     5    10     9
    6     2     5    11     9
    6     2     5    26     9
    7     2     5    10     9
    7     2     5    11     9
    7     2     5    26     9
    5     2     6     8     9
    5     2     6    27     9
    5     2     6    28     9
    7     2     6     8     9
    7     2     6    27     9
    7     2     6    28     9
    5     2     7     9     9
    5     2     7    29     9
    5     2     7    30     9
    6     2     7     9     9
    6     2     7    29     9
    6     2     7    30     9
    9     3     8    31     9
    9     3     8    32     9
   12     3     8    31     9
   12     3     8    32     9
    8     3     9    33     9
    8     3     9    34     9
   12     3     9    33     9
   12     3     9    34     9
    8     3    12    15     9
    8     3    12    40     9
    8     3    12    41     9
    9     3    12    15     9
    9     3    12    40     9
    9     3    12    41     9
   13     4    10    35     9
   13     4    10    36     9
   14     4    10    35     9
   14     4    10    36     9
   10     4    13    16     9
   10     4    13    18     9
   14     4    13    16     9
   14     4    13    18     9
   10     4    14    17     9
   10     4    14    19     9
   13     4    14    17     9
   13     4    14    19     9
    2     5    10     4     9
    2     5    10    35     9
    2     5    10    36     9
   11     5    10    35     9
   11     5    10    36     9
   26     5    10    35     9
   26     5    10    36     9
    2     5    11    37     9
    2     5    11    38     9
    2     5    11    39     9
   10     5    11    37     9
   10     5    11    38     9
   10     5    11    39     9
   26     5    11    37     9
   26     5    11    38     9
   26     5    11    39     9
    2     6     8     3     9
    2     6     8    31     9
    2     6     8    32     9
   27     6     8    31     9
   27     6     8    32     9
   28     6     8    31     9
   28     6     8    32     9
    2     7     9     3     9
    2     7     9    33     9
    2     7     9    34     9
   29     7     9    33     9
   29     7     9    34     9
   30     7     9    33     9
   30     7     9    34     9
    6     8     3     9     9
    6     8     3    12     9
    3     8     6    27     9
    3     8     6    28     9
    7     9     3     8     9
    7     9     3    12     9
    3     9     7    29     9
    3     9     7    30     9
    5    10     4    13     9
    5    10     4    14     9
    4    10     5    11     9
    4    10     5    26     9
    3    12    15    42     9
    3    12    15    43     9
    3    12    15    44     9
   40    12    15    42     9
   40    12    15    43     9
   40    12    15    44     9
   41    12    15    42     9
   41    12    15    43     9
   41    12    15    44     9
    4    13    16    20     9
   18    13    16    20     9
    4    13    18    22     9
    4    13    18    45     9
   16    13    18    22     9
   16    13    18    45     9
    4    14    17    21     9
   19    14    17    21     9
    4    14    19    23     9
    4    14    19    46     9
   17    14    19    23     9
   17    14    19    46     9
   13    16     1    17     9
    1    16    13     4     9
    1    16    13    18     9
    1    16    20    24     9
    1    16    20    47     9
   13    16    20    24     9
   13    16    20    47     9
   14    17     1    16     9
    1    17    14     4     9
    1    17    14    19     9
    1    17    21    25     9
    1    17    21    48     9
   14    17    21    25     9
   14    17    21    48     9
   13    18    22    24     9
   13    18    22    49     9
   45    18    22    49     9
   14    19    23    25     9
   14    19    23    50     9
   46    19    23    50     9
   16    20    24    22     9
   16    20    24    51     9
   47    20    24    51     9
   17    21    25    23     9
   17    21    25    52     9
   48    21    25    52     9
   24    22    18    45     9
   18    22    24    20     9
   18    22    24    51     9
   49    22    24    51     9
   25    23    19    46     9
   19    23    25    21     9
   19    23    25    52     9
   50    23    25    52     9
   22    24    20    47     9
   20    24    22    49     9
   23    25    21    48     9
   21    25    23    50     9
