* GENERATE LIGAND
*  DATE:     4/17/25      6:20:12      CREATED BY USER: charmm-gui
*
        62  EXT
         1         1  LIG       S              -0.4947326634        2.1662534204       -2.9058392419  LIG       1               0.0000000000
         2         1  LIG       O1             -3.2022097506        1.5786285799       -0.6348744420  LIG       1               0.0000000000
         3         1  LIG       O2              3.5511973709        3.6585723106        1.5382181472  LIG       1               0.0000000000
         4         1  LIG       O3              3.9279919533        1.6428555377        2.3210452300  LIG       1               0.0000000000
         5         1  LIG       N1              3.1920592262       -0.4550596145       -0.1861227982  LIG       1               0.0000000000
         6         1  LIG       N2              1.5488020861        1.3060357460       -0.5986386370  LIG       1               0.0000000000
         7         1  LIG       N3              3.7125409806        2.4492622107        1.4234061390  LIG       1               0.0000000000
         8         1  LIG       N4             -3.5092156153       -0.1166761424        2.4155977332  LIG       1               0.0000000000
         9         1  LIG       C1              2.2304835356       -1.5967635649       -0.1284585564  LIG       1               0.0000000000
        10         1  LIG       C2              3.0769850630       -2.8147053122       -0.5740385652  LIG       1               0.0000000000
        11         1  LIG       C3              1.5015545967       -1.7354361527        1.2368214588  LIG       1               0.0000000000
        12         1  LIG       C4              2.3404590553       -4.1402628229       -0.8385173201  LIG       1               0.0000000000
        13         1  LIG       C5              0.4536888436       -2.8691978633        1.3500320039  LIG       1               0.0000000000
        14         1  LIG       C6              1.0450191424       -4.0052935521       -1.6561659337  LIG       1               0.0000000000
        15         1  LIG       C7             -0.5315619305       -2.9699460859        0.1690541246  LIG       1               0.0000000000
        16         1  LIG       C8             -0.2383225169       -4.1295096523       -0.8089394771  LIG       1               0.0000000000
        17         1  LIG       C9              2.7484943097        0.9188225701       -0.2784482789  LIG       1               0.0000000000
        18         1  LIG       C10             3.8485333074        1.9165381001        0.0273589136  LIG       1               0.0000000000
        19         1  LIG       C11             1.2895485409        2.7295113416       -0.8122400255  LIG       1               0.0000000000
        20         1  LIG       C12            -0.1459357996        2.9613607806       -1.3001653952  LIG       1               0.0000000000
        21         1  LIG       C13            -2.3028559703        2.2196095584       -2.8009794412  LIG       1               0.0000000000
        22         1  LIG       C14            -2.8066836096        1.1511804139       -1.8710217919  LIG       1               0.0000000000
        23         1  LIG       C15            -3.6221239447        0.4371284045       -0.0065364541  LIG       1               0.0000000000
        24         1  LIG       C16            -4.2341435106        0.6307787324        1.3662306850  LIG       1               0.0000000000
        25         1  LIG       C17            -2.9701108442       -0.1929408096       -2.0022077382  LIG       1               0.0000000000
        26         1  LIG       C18            -3.5005824252       -0.6426513621       -0.8284425632  LIG       1               0.0000000000
        27         1  LIG       C19            -2.1876116727        0.4294593894        2.6878450407  LIG       1               0.0000000000
        28         1  LIG       C20            -4.3319834047       -0.3182404794        3.5955563003  LIG       1               0.0000000000
        29         1  LIG       H1              1.4501458059       -1.4064585924       -0.9026595783  LIG       1               0.0000000000
        30         1  LIG       H2              3.8704892890       -3.0074155595        0.1825183644  LIG       1               0.0000000000
        31         1  LIG       H3              3.5831202154       -2.5488432460       -1.5332040896  LIG       1               0.0000000000
        32         1  LIG       H4              0.9723110261       -0.7780629211        1.4495632847  LIG       1               0.0000000000
        33         1  LIG       H5              2.2525713873       -1.8870834255        2.0432083019  LIG       1               0.0000000000
        34         1  LIG       H6              2.1482148334       -4.6904088584        0.1027488367  LIG       1               0.0000000000
        35         1  LIG       H7              3.0484160109       -4.7786884811       -1.4188227972  LIG       1               0.0000000000
        36         1  LIG       H8             -0.1445136755       -2.6630074982        2.2694325590  LIG       1               0.0000000000
        37         1  LIG       H9              0.9334267599       -3.8510542736        1.5281652303  LIG       1               0.0000000000
        38         1  LIG       H10             1.0265320767       -4.8340359424       -2.4016491460  LIG       1               0.0000000000
        39         1  LIG       H11             1.0358212313       -3.0580790559       -2.2350345161  LIG       1               0.0000000000
        40         1  LIG       H12            -0.5891235255       -2.0028543759       -0.3736950544  LIG       1               0.0000000000
        41         1  LIG       H13            -1.5481534659       -3.1538545381        0.5898656168  LIG       1               0.0000000000
        42         1  LIG       H14            -0.1926059648       -5.0810850768       -0.2331667887  LIG       1               0.0000000000
        43         1  LIG       H15            -1.1008102278       -4.2099951386       -1.5091984769  LIG       1               0.0000000000
        44         1  LIG       H16             4.0110081336       -0.5138542023        0.4090001251  LIG       1               0.0000000000
        45         1  LIG       H17             4.8432237960        1.4701841803       -0.0681013632  LIG       1               0.0000000000
        46         1  LIG       H18             3.8126890165        2.7719309514       -0.6568755916  LIG       1               0.0000000000
        47         1  LIG       H19             1.9638015629        3.1369977467       -1.6036645120  LIG       1               0.0000000000
        48         1  LIG       H20             1.4219151435        3.2983821929        0.1386937864  LIG       1               0.0000000000
        49         1  LIG       H21            -0.8352930424        2.5928227412       -0.5096083173  LIG       1               0.0000000000
        50         1  LIG       H22            -0.3059047333        4.0584508894       -1.3891358964  LIG       1               0.0000000000
        51         1  LIG       H23            -2.7428214101        2.0519798155       -3.8043733499  LIG       1               0.0000000000
        52         1  LIG       H24            -2.6384938764        3.2129310516       -2.4360298287  LIG       1               0.0000000000
        53         1  LIG       H25            -4.2074525207        1.7106065193        1.6274481496  LIG       1               0.0000000000
        54         1  LIG       H26            -5.2972128458        0.3116806748        1.3279173050  LIG       1               0.0000000000
        55         1  LIG       H27            -2.7195675748       -0.7820742999       -2.8718805768  LIG       1               0.0000000000
        56         1  LIG       H28            -3.7760691858       -1.6557740146       -0.5764905462  LIG       1               0.0000000000
        57         1  LIG       H29            -2.2668822855        1.4641431096        3.0935717385  LIG       1               0.0000000000
        58         1  LIG       H30            -1.5549013755        0.4679048532        1.7732081152  LIG       1               0.0000000000
        59         1  LIG       H31            -1.6484478472       -0.1882495618        3.4408856923  LIG       1               0.0000000000
        60         1  LIG       H32            -5.1941757703       -0.9869847493        3.3721634680  LIG       1               0.0000000000
        61         1  LIG       H33            -4.7336691521        0.6510754814        3.9694097872  LIG       1               0.0000000000
        62         1  LIG       H34            -3.7459973539       -0.7864531197        4.4183170847  LIG       1               0.0000000000
