PSF EXT CMAP XPLOR

         2 !NTITLE
* GENERATE LIGAND                                                               
*  DATE:     4/17/25      6:20:12      CREATED BY USER: charmm-gui              

        62 !NATOM
         1 LIG      1        LIG      S        SG311    0.108000       32.0600           0
         2 LIG      1        LIG      O1       OG2R50  -0.258000       15.9994           0
         3 LIG      1        LIG      O2       OG2N1   -0.290000       15.9994           0
         4 LIG      1        LIG      O3       OG2N1   -0.290000       15.9994           0
         5 LIG      1        LIG      N1       NG311   -0.218000       14.0070           0
         6 LIG      1        LIG      N2       NG2D1   -0.702000       14.0070           0
         7 LIG      1        LIG      N3       NG2O1    0.118000       14.0070           0
         8 LIG      1        LIG      N4       NG301   -0.589000       14.0070           0
         9 LIG      1        LIG      C1       CG311   -0.580000E-01   12.0110           0
        10 LIG      1        LIG      C2       CG321   -0.186000       12.0110           0
        11 LIG      1        LIG      C3       CG321   -0.186000       12.0110           0
        12 LIG      1        LIG      C4       CG321   -0.190000       12.0110           0
        13 LIG      1        LIG      C5       CG321   -0.190000       12.0110           0
        14 LIG      1        LIG      C6       CG321   -0.157000       12.0110           0
        15 LIG      1        LIG      C7       CG321   -0.157000       12.0110           0
        16 LIG      1        LIG      C8       CG321   -0.180000       12.0110           0
        17 LIG      1        LIG      C9       CG2N2    0.390000       12.0110           0
        18 LIG      1        LIG      C10      CG324    0.206000       12.0110           0
        19 LIG      1        LIG      C11      CG321    0.280000E-01   12.0110           0
        20 LIG      1        LIG      C12      CG321   -0.110000       12.0110           0
        21 LIG      1        LIG      C13      CG321   -0.214000       12.0110           0
        22 LIG      1        LIG      C14      CG2R51   0.123000       12.0110           0
        23 LIG      1        LIG      C15      CG2R51   0.246000       12.0110           0
        24 LIG      1        LIG      C16      CG321    0.240000E-01   12.0110           0
        25 LIG      1        LIG      C17      CG2R51  -0.310000       12.0110           0
        26 LIG      1        LIG      C18      CG2R51  -0.241000       12.0110           0
        27 LIG      1        LIG      C19      CG331   -0.102000       12.0110           0
        28 LIG      1        LIG      C20      CG331   -0.102000       12.0110           0
        29 LIG      1        LIG      H1       HGA1     0.900000E-01   1.00800           0
        30 LIG      1        LIG      H2       HGA2     0.900000E-01   1.00800           0
        31 LIG      1        LIG      H3       HGA2     0.900000E-01   1.00800           0
        32 LIG      1        LIG      H4       HGA2     0.900000E-01   1.00800           0
        33 LIG      1        LIG      H5       HGA2     0.900000E-01   1.00800           0
        34 LIG      1        LIG      H6       HGA2     0.900000E-01   1.00800           0
        35 LIG      1        LIG      H7       HGA2     0.900000E-01   1.00800           0
        36 LIG      1        LIG      H8       HGA2     0.900000E-01   1.00800           0
        37 LIG      1        LIG      H9       HGA2     0.900000E-01   1.00800           0
        38 LIG      1        LIG      H10      HGA2     0.900000E-01   1.00800           0
        39 LIG      1        LIG      H11      HGA2     0.900000E-01   1.00800           0
        40 LIG      1        LIG      H12      HGA2     0.900000E-01   1.00800           0
        41 LIG      1        LIG      H13      HGA2     0.900000E-01   1.00800           0
        42 LIG      1        LIG      H14      HGA2     0.900000E-01   1.00800           0
        43 LIG      1        LIG      H15      HGA2     0.900000E-01   1.00800           0
        44 LIG      1        LIG      H16      HGPAM1   0.347000       1.00800           0
        45 LIG      1        LIG      H17      HGA2     0.900000E-01   1.00800           0
        46 LIG      1        LIG      H18      HGA2     0.900000E-01   1.00800           0
        47 LIG      1        LIG      H19      HGA2     0.900000E-01   1.00800           0
        48 LIG      1        LIG      H20      HGA2     0.900000E-01   1.00800           0
        49 LIG      1        LIG      H21      HGA2     0.900000E-01   1.00800           0
        50 LIG      1        LIG      H22      HGA2     0.900000E-01   1.00800           0
        51 LIG      1        LIG      H23      HGA2     0.900000E-01   1.00800           0
        52 LIG      1        LIG      H24      HGA2     0.900000E-01   1.00800           0
        53 LIG      1        LIG      H25      HGA2     0.900000E-01   1.00800           0
        54 LIG      1        LIG      H26      HGA2     0.900000E-01   1.00800           0
        55 LIG      1        LIG      H27      HGR51    0.175000       1.00800           0
        56 LIG      1        LIG      H28      HGR51    0.175000       1.00800           0
        57 LIG      1        LIG      H29      HGA3     0.900000E-01   1.00800           0
        58 LIG      1        LIG      H30      HGA3     0.900000E-01   1.00800           0
        59 LIG      1        LIG      H31      HGA3     0.900000E-01   1.00800           0
        60 LIG      1        LIG      H32      HGA3     0.900000E-01   1.00800           0
        61 LIG      1        LIG      H33      HGA3     0.900000E-01   1.00800           0
        62 LIG      1        LIG      H34      HGA3     0.900000E-01   1.00800           0

        63 !NBOND: bonds
         1        20         1        21         2        22         2        23
         3         7         4         7         5         9         5        17
         5        44         6        17         6        19         7        18
         8        24         8        27         8        28         9        10
         9        11         9        29        10        12        10        30
        10        31        11        13        11        32        11        33
        12        14        12        34        12        35        13        15
        13        36        13        37        14        16        14        38
        14        39        15        16        15        40        15        41
        16        42        16        43        17        18        18        45
        18        46        19        20        19        47        19        48
        20        49        20        50        21        22        21        51
        21        52        22        25        23        24        23        26
        24        53        24        54        25        26        25        55
        26        56        27        57        27        58        27        59
        28        60        28        61        28        62

       117 !NTHETA: angles
        20         1        21        22         2        23         9         5        17
         9         5        44        17         5        44        17         6        19
         3         7         4         3         7        18         4         7        18
        24         8        27        24         8        28        27         8        28
         5         9        10         5         9        11         5         9        29
        10         9        11        10         9        29        11         9        29
         9        10        12         9        10        30         9        10        31
        12        10        30        12        10        31        30        10        31
         9        11        13         9        11        32         9        11        33
        13        11        32        13        11        33        32        11        33
        10        12        14        10        12        34        10        12        35
        14        12        34        14        12        35        34        12        35
        11        13        15        11        13        36        11        13        37
        15        13        36        15        13        37        36        13        37
        12        14        16        12        14        38        12        14        39
        16        14        38        16        14        39        38        14        39
        13        15        16        13        15        40        13        15        41
        16        15        40        16        15        41        40        15        41
        14        16        15        14        16        42        14        16        43
        15        16        42        15        16        43        42        16        43
         5        17         6         5        17        18         6        17        18
         7        18        17         7        18        45         7        18        46
        17        18        45        17        18        46        45        18        46
         6        19        20         6        19        47         6        19        48
        20        19        47        20        19        48        47        19        48
         1        20        19         1        20        49         1        20        50
        19        20        49        19        20        50        49        20        50
         1        21        22         1        21        51         1        21        52
        22        21        51        22        21        52        51        21        52
         2        22        21         2        22        25        21        22        25
         2        23        24         2        23        26        24        23        26
         8        24        23         8        24        53         8        24        54
        23        24        53        23        24        54        53        24        54
        22        25        26        22        25        55        26        25        55
        23        26        25        23        26        56        25        26        56
         8        27        57         8        27        58         8        27        59
        57        27        58        57        27        59        58        27        59
         8        28        60         8        28        61         8        28        62
        60        28        61        60        28        62        61        28        62

       160 !NPHI: dihedrals
         1        20        19         6         1        20        19        47
         1        20        19        48         1        21        22         2
         1        21        22        25         2        22        21        51
         2        22        21        52         2        22        25        26
         2        22        25        55         2        23        24         8
         2        23        24        53         2        23        24        54
         2        23        26        25         2        23        26        56
         3         7        18        17         3         7        18        45
         3         7        18        46         4         7        18        17
         4         7        18        45         4         7        18        46
         5         9        10        12         5         9        10        30
         5         9        10        31         5         9        11        13
         5         9        11        32         5         9        11        33
         5        17         6        19         5        17        18         7
         5        17        18        45         5        17        18        46
         6        17         5         9         6        17         5        44
         6        17        18         7         6        17        18        45
         6        17        18        46         6        19        20        49
         6        19        20        50         8        24        23        26
         9         5        17        18         9        10        12        14
         9        10        12        34         9        10        12        35
         9        11        13        15         9        11        13        36
         9        11        13        37        10         9         5        17
        10         9         5        44        10         9        11        13
        10         9        11        32        10         9        11        33
        10        12        14        16        10        12        14        38
        10        12        14        39        11         9         5        17
        11         9         5        44        11         9        10        12
        11         9        10        30        11         9        10        31
        11        13        15        16        11        13        15        40
        11        13        15        41        12        10         9        29
        12        14        16        15        12        14        16        42
        12        14        16        43        13        11         9        29
        13        15        16        14        13        15        16        42
        13        15        16        43        14        12        10        30
        14        12        10        31        14        16        15        40
        14        16        15        41        15        13        11        32
        15        13        11        33        15        16        14        38
        15        16        14        39        16        14        12        34
        16        14        12        35        16        15        13        36
        16        15        13        37        17         5         9        29
        17         6        19        20        17         6        19        47
        17         6        19        48        18        17         5        44
        18        17         6        19        19        20         1        21
        20         1        21        22        20         1        21        51
        20         1        21        52        21         1        20        49
        21         1        20        50        21        22         2        23
        21        22        25        26        21        22        25        55
        22         2        23        24        22         2        23        26
        22        25        26        23        22        25        26        56
        23         2        22        25        23        24         8        27
        23        24         8        28        23        26        25        55
        24         8        27        57        24         8        27        58
        24         8        27        59        24         8        28        60
        24         8        28        61        24         8        28        62
        24        23        26        25        24        23        26        56
        25        22        21        51        25        22        21        52
        26        23        24        53        26        23        24        54
        27         8        24        53        27         8        24        54
        27         8        28        60        27         8        28        61
        27         8        28        62        28         8        24        53
        28         8        24        54        28         8        27        57
        28         8        27        58        28         8        27        59
        29         9         5        44        29         9        10        30
        29         9        10        31        29         9        11        32
        29         9        11        33        30        10        12        34
        30        10        12        35        31        10        12        34
        31        10        12        35        32        11        13        36
        32        11        13        37        33        11        13        36
        33        11        13        37        34        12        14        38
        34        12        14        39        35        12        14        38
        35        12        14        39        36        13        15        40
        36        13        15        41        37        13        15        40
        37        13        15        41        38        14        16        42
        38        14        16        43        39        14        16        42
        39        14        16        43        40        15        16        42
        40        15        16        43        41        15        16        42
        41        15        16        43        47        19        20        49
        47        19        20        50        48        19        20        49
        48        19        20        50        55        25        26        56

         1 !NIMPHI: impropers
        17        18         6         5

         0 !NDON: donors


         0 !NACC: acceptors


         0 !NNB

         0         0         0         0         0         0         0         0
         0         0         0         0         0         0         0         0
         0         0         0         0         0         0         0         0
         0         0         0         0         0         0         0         0
         0         0         0         0         0         0         0         0
         0         0         0         0         0         0         0         0
         0         0         0         0         0         0         0         0
         0         0         0         0         0         0

         1         0 !NGRP NST2
         0         1         0

         0         0 !NUMLP NUMLPH

         0 !NCRTERM: cross-terms

