* GENERATED BY CHARMM-GUI (HTTP://WWW.CHARMM-GUI.ORG)
*
        28  EXT
         1         1  LIG       S              -0.4088000000        2.1569000000       -2.8149000000  LIG       1               0.0000000000
         2         1  LIG       O1             -3.2096000000        1.5400000000       -0.6284000000  LIG       1               0.0000000000
         3         1  LIG       O2              3.4176000000        3.6546000000        1.4913000000  LIG       1               0.0000000000
         4         1  LIG       O3              3.7798000000        1.6087000000        2.2243000000  LIG       1               0.0000000000
         5         1  LIG       N1              3.0606000000       -0.4384000000       -0.0056000000  LIG       1               0.0000000000
         6         1  LIG       N2              1.5292000000        1.3024000000       -0.5979000000  LIG       1               0.0000000000
         7         1  LIG       N3              3.6459000000        2.4449000000        1.3131000000  LIG       1               0.0000000000
         8         1  LIG       N4             -3.4946000000       -0.1764000000        2.3763000000  LIG       1               0.0000000000
         9         1  LIG       C1              2.1956000000       -1.6045000000       -0.1121000000  LIG       1               0.0000000000
        10         1  LIG       C2              3.0571000000       -2.7880000000       -0.5646000000  LIG       1               0.0000000000
        11         1  LIG       C3              1.4885000000       -1.7810000000        1.2352000000  LIG       1               0.0000000000
        12         1  LIG       C4              2.3514000000       -4.1145000000       -0.8512000000  LIG       1               0.0000000000
        13         1  LIG       C5              0.4384000000       -2.8873000000        1.3480000000  LIG       1               0.0000000000
        14         1  LIG       C6              1.0497000000       -4.0054000000       -1.6451000000  LIG       1               0.0000000000
        15         1  LIG       C7             -0.5277000000       -2.9939000000        0.1681000000  LIG       1               0.0000000000
        16         1  LIG       C8             -0.2215000000       -4.1360000000       -0.8032000000  LIG       1               0.0000000000
        17         1  LIG       C9              2.6975000000        0.8737000000       -0.2357000000  LIG       1               0.0000000000
        18         1  LIG       C10             3.7436000000        1.9622000000       -0.0738000000  LIG       1               0.0000000000
        19         1  LIG       C11             1.3683000000        2.7357000000       -0.7994000000  LIG       1               0.0000000000
        20         1  LIG       C12            -0.0578000000        3.0077000000       -1.2513000000  LIG       1               0.0000000000
        21         1  LIG       C13            -2.2141000000        2.2098000000       -2.7445000000  LIG       1               0.0000000000
        22         1  LIG       C14            -2.7789000000        1.1383000000       -1.8531000000  LIG       1               0.0000000000
        23         1  LIG       C15            -3.6736000000        0.4303000000        0.0038000000  LIG       1               0.0000000000
        24         1  LIG       C16            -4.1976000000        0.6272000000        1.3629000000  LIG       1               0.0000000000
        25         1  LIG       C17            -2.9626000000       -0.2160000000       -2.0097000000  LIG       1               0.0000000000
        26         1  LIG       C18            -3.5439000000       -0.6757000000       -0.8039000000  LIG       1               0.0000000000
        27         1  LIG       C19            -2.2110000000        0.4367000000        2.7007000000  LIG       1               0.0000000000
        28         1  LIG       C20            -4.3216000000       -0.3121000000        3.5707000000  LIG       1               0.0000000000
