;;
;; Generated by CHARMM-GUI (http://www.charmm-gui.org) v1.7
;;
;; psf2itp_mol.py
;;
;; Correspondance:
;; jul316@lehigh.edu or wonpil@lehigh.edu
;;
;; GROMACS topology file for LIG
;;


[ moleculetype ]
; name	nrexcl
LIG	     3

[ atoms ]
; nr	type	resnr	residu	atom	cgnr	charge	mass
     1      SG311      1      LIG      S      1     -0.294    32.0600   ; qtot -0.294
     2     OG2R50      1      LIG      O      2     -0.081    15.9994   ; qtot -0.375
     3      NG301      1      LIG     N1      3     -0.739    14.0070   ; qtot -1.114
     4      NG311      1      LIG     N2      4     -0.494    14.0070   ; qtot -1.608
     5     NG2R50      1      LIG     N3      5     -0.389    14.0070   ; qtot -1.997
     6     NG2R50      1      LIG     N4      6     -0.329    14.0070   ; qtot -2.326
     7      CG321      1      LIG     C1      7      0.070    12.0110   ; qtot -2.256
     8      CG321      1      LIG     C2      8      0.063    12.0110   ; qtot -2.193
     9      CG321      1      LIG     C3      9      0.063    12.0110   ; qtot -2.130
    10      CG321      1      LIG     C4     10     -0.211    12.0110   ; qtot -2.341
    11      CG321      1      LIG     C5     11     -0.027    12.0110   ; qtot -2.368
    12      CG321      1      LIG     C6     12     -0.027    12.0110   ; qtot -2.395
    13     CG2R61      1      LIG     C7     13      0.012    12.0110   ; qtot -2.383
    14     CG2R61      1      LIG     C8     14     -0.111    12.0110   ; qtot -2.494
    15     CG2R61      1      LIG     C9     15     -0.111    12.0110   ; qtot -2.605
    16     CG2R61      1      LIG    C10     16      0.007    12.0110   ; qtot -2.598
    17      CG311      1      LIG    C11     17      0.076    12.0110   ; qtot -2.522
    18     CG2R61      1      LIG    C12     18     -0.110    12.0110   ; qtot -2.632
    19     CG2R61      1      LIG    C13     19     -0.110    12.0110   ; qtot -2.742
    20     CG2R53      1      LIG    C14     20      0.371    12.0110   ; qtot -2.371
    21      CG331      1      LIG    C15     21     -0.284    12.0110   ; qtot -2.655
    22     CG2R53      1      LIG    C16     22      0.335    12.0110   ; qtot -2.320
    23     CG2R61      1      LIG    C17     23      0.066    12.0110   ; qtot -2.254
    24     CG2R61      1      LIG    C18     24     -0.119    12.0110   ; qtot -2.373
    25     CG2R61      1      LIG    C19     25     -0.119    12.0110   ; qtot -2.492
    26     CG2R61      1      LIG    C20     26     -0.117    12.0110   ; qtot -2.609
    27     CG2R61      1      LIG    C21     27     -0.117    12.0110   ; qtot -2.726
    28     CG2R61      1      LIG    C22     28     -0.115    12.0110   ; qtot -2.841
    29       HGA2      1      LIG     H1     29      0.090     1.0080   ; qtot -2.751
    30       HGA2      1      LIG     H2     30      0.090     1.0080   ; qtot -2.661
    31       HGA2      1      LIG     H3     31      0.090     1.0080   ; qtot -2.571
    32       HGA2      1      LIG     H4     32      0.090     1.0080   ; qtot -2.481
    33       HGA2      1      LIG     H5     33      0.090     1.0080   ; qtot -2.391
    34       HGA2      1      LIG     H6     34      0.090     1.0080   ; qtot -2.301
    35       HGA2      1      LIG     H7     35      0.090     1.0080   ; qtot -2.211
    36       HGA2      1      LIG     H8     36      0.090     1.0080   ; qtot -2.121
    37       HGA2      1      LIG     H9     37      0.090     1.0080   ; qtot -2.031
    38       HGA2      1      LIG    H10     38      0.090     1.0080   ; qtot -1.941
    39       HGA2      1      LIG    H11     39      0.090     1.0080   ; qtot -1.851
    40       HGA2      1      LIG    H12     40      0.090     1.0080   ; qtot -1.761
    41      HGR61      1      LIG    H13     41      0.115     1.0080   ; qtot -1.646
    42      HGR61      1      LIG    H14     42      0.115     1.0080   ; qtot -1.531
    43       HGA1      1      LIG    H15     43      0.090     1.0080   ; qtot -1.441
    44      HGR61      1      LIG    H16     44      0.115     1.0080   ; qtot -1.326
    45      HGR61      1      LIG    H17     45      0.115     1.0080   ; qtot -1.211
    46     HGPAM1      1      LIG    H18     46      0.366     1.0080   ; qtot -0.845
    47       HGA3      1      LIG    H19     47      0.090     1.0080   ; qtot -0.755
    48       HGA3      1      LIG    H20     48      0.090     1.0080   ; qtot -0.665
    49       HGA3      1      LIG    H21     49      0.090     1.0080   ; qtot -0.575
    50      HGR61      1      LIG    H22     50      0.115     1.0080   ; qtot -0.460
    51      HGR61      1      LIG    H23     51      0.115     1.0080   ; qtot -0.345
    52      HGR61      1      LIG    H24     52      0.115     1.0080   ; qtot -0.230
    53      HGR61      1      LIG    H25     53      0.115     1.0080   ; qtot -0.115
    54      HGR61      1      LIG    H26     54      0.115     1.0080   ; qtot -0.000

[ bonds ]
; ai	aj	funct	b0	Kb
    1    11     1
    1    12     1
    2    20     1
    2    22     1
    3     7     1
    3     8     1
    3     9     1
    4    16     1
    4    17     1
    4    46     1
    5     6     1
    5    20     1
    6    22     1
    7    10     1
    7    29     1
    7    30     1
    8    11     1
    8    31     1
    8    32     1
    9    12     1
    9    33     1
    9    34     1
   10    13     1
   10    35     1
   10    36     1
   11    37     1
   11    38     1
   12    39     1
   12    40     1
   13    14     1
   13    15     1
   14    18     1
   14    41     1
   15    19     1
   15    42     1
   16    18     1
   16    19     1
   17    20     1
   17    21     1
   17    43     1
   18    44     1
   19    45     1
   21    47     1
   21    48     1
   21    49     1
   22    23     1
   23    24     1
   23    25     1
   24    26     1
   24    50     1
   25    27     1
   25    51     1
   26    28     1
   26    52     1
   27    28     1
   27    53     1
   28    54     1

[ pairs ]
; ai	aj	funct	c6	c12
    1     3     1 
    1    31     1 
    1    32     1 
    1    33     1 
    1    34     1 
    2     4     1 
    2    21     1 
    2    24     1 
    2    25     1 
    2    43     1 
    3    13     1 
    3    35     1 
    3    36     1 
    3    37     1 
    3    38     1 
    3    39     1 
    3    40     1 
    4     5     1 
    4    14     1 
    4    15     1 
    4    44     1 
    4    45     1 
    4    47     1 
    4    48     1 
    4    49     1 
    5    21     1 
    5    23     1 
    5    43     1 
    6    17     1 
    6    24     1 
    6    25     1 
    7    11     1 
    7    12     1 
    7    14     1 
    7    15     1 
    7    31     1 
    7    32     1 
    7    33     1 
    7    34     1 
    8    10     1 
    8    12     1 
    8    29     1 
    8    30     1 
    8    33     1 
    8    34     1 
    9    10     1 
    9    11     1 
    9    29     1 
    9    30     1 
    9    31     1 
    9    32     1 
   10    18     1 
   10    19     1 
   10    41     1 
   10    42     1 
   11    39     1 
   11    40     1 
   12    37     1 
   12    38     1 
   13    16     1 
   13    29     1 
   13    30     1 
   13    44     1 
   13    45     1 
   14    19     1 
   14    35     1 
   14    36     1 
   14    42     1 
   15    18     1 
   15    35     1 
   15    36     1 
   15    41     1 
   16    20     1 
   16    21     1 
   16    41     1 
   16    42     1 
   16    43     1 
   17    18     1 
   17    19     1 
   17    22     1 
   18    45     1 
   18    46     1 
   19    44     1 
   19    46     1 
   20    23     1 
   20    46     1 
   20    47     1 
   20    48     1 
   20    49     1 
   21    46     1 
   22    26     1 
   22    27     1 
   22    50     1 
   22    51     1 
   23    28     1 
   23    52     1 
   23    53     1 
   24    27     1 
   24    51     1 
   24    54     1 
   25    26     1 
   25    50     1 
   25    54     1 
   26    53     1 
   27    52     1 
   28    50     1 
   28    51     1 
   29    35     1 
   29    36     1 
   30    35     1 
   30    36     1 
   31    37     1 
   31    38     1 
   32    37     1 
   32    38     1 
   33    39     1 
   33    40     1 
   34    39     1 
   34    40     1 
   41    44     1 
   42    45     1 
   43    46     1 
   43    47     1 
   43    48     1 
   43    49     1 
   50    52     1 
   51    53     1 
   52    54     1 
   53    54     1 

[ angles ] 
; ai	aj	ak	funct	th0	cth	S0	Kub
   11     1    12     5
   20     2    22     5
    7     3     8     5
    7     3     9     5
    8     3     9     5
   16     4    17     5
   16     4    46     5
   17     4    46     5
    6     5    20     5
    5     6    22     5
    3     7    10     5
    3     7    29     5
    3     7    30     5
   10     7    29     5
   10     7    30     5
   29     7    30     5
    3     8    11     5
    3     8    31     5
    3     8    32     5
   11     8    31     5
   11     8    32     5
   31     8    32     5
    3     9    12     5
    3     9    33     5
    3     9    34     5
   12     9    33     5
   12     9    34     5
   33     9    34     5
    7    10    13     5
    7    10    35     5
    7    10    36     5
   13    10    35     5
   13    10    36     5
   35    10    36     5
    1    11     8     5
    1    11    37     5
    1    11    38     5
    8    11    37     5
    8    11    38     5
   37    11    38     5
    1    12     9     5
    1    12    39     5
    1    12    40     5
    9    12    39     5
    9    12    40     5
   39    12    40     5
   10    13    14     5
   10    13    15     5
   14    13    15     5
   13    14    18     5
   13    14    41     5
   18    14    41     5
   13    15    19     5
   13    15    42     5
   19    15    42     5
    4    16    18     5
    4    16    19     5
   18    16    19     5
    4    17    20     5
    4    17    21     5
    4    17    43     5
   20    17    21     5
   20    17    43     5
   21    17    43     5
   14    18    16     5
   14    18    44     5
   16    18    44     5
   15    19    16     5
   15    19    45     5
   16    19    45     5
    2    20     5     5
    2    20    17     5
    5    20    17     5
   17    21    47     5
   17    21    48     5
   17    21    49     5
   47    21    48     5
   47    21    49     5
   48    21    49     5
    2    22     6     5
    2    22    23     5
    6    22    23     5
   22    23    24     5
   22    23    25     5
   24    23    25     5
   23    24    26     5
   23    24    50     5
   26    24    50     5
   23    25    27     5
   23    25    51     5
   27    25    51     5
   24    26    28     5
   24    26    52     5
   28    26    52     5
   25    27    28     5
   25    27    53     5
   28    27    53     5
   26    28    27     5
   26    28    54     5
   27    28    54     5

[ dihedrals ]
; ai	aj	ak	al	funct	phi0	cp	mult
   12     1    11    37     9
   12     1    11    38     9
   11     1    12    39     9
   11     1    12    40     9
   20     2    22    23     9
    8     3     7    10     9
    8     3     7    29     9
    8     3     7    30     9
    9     3     7    10     9
    9     3     7    29     9
    9     3     7    30     9
    7     3     8    11     9
    7     3     8    31     9
    7     3     8    32     9
    9     3     8    11     9
    9     3     8    31     9
    9     3     8    32     9
    7     3     9    12     9
    7     3     9    33     9
    7     3     9    34     9
    8     3     9    12     9
    8     3     9    33     9
    8     3     9    34     9
   17     4    16    18     9
   17     4    16    19     9
   16     4    17    20     9
   16     4    17    21     9
   16     4    17    43     9
   20     5     6    22     9
    6     5    20    17     9
    5     6    22    23     9
    3     7    10    13     9
    3     7    10    35     9
    3     7    10    36     9
   29     7    10    35     9
   29     7    10    36     9
   30     7    10    35     9
   30     7    10    36     9
    3     8    11    37     9
    3     8    11    38     9
   31     8    11    37     9
   31     8    11    38     9
   32     8    11    37     9
   32     8    11    38     9
    3     9    12    39     9
    3     9    12    40     9
   33     9    12    39     9
   33     9    12    40     9
   34     9    12    39     9
   34     9    12    40     9
   13    10     7    29     9
   13    10     7    30     9
    7    10    13    14     9
    7    10    13    15     9
    8    11     1    12     9
    1    11     8     3     9
    1    11     8    31     9
    1    11     8    32     9
    9    12     1    11     9
    1    12     9     3     9
    1    12     9    33     9
    1    12     9    34     9
   14    13    10    35     9
   14    13    10    36     9
   15    13    10    35     9
   15    13    10    36     9
   10    13    14    18     9
   10    13    14    41     9
   15    13    14    18     9
   15    13    14    41     9
   10    13    15    19     9
   10    13    15    42     9
   14    13    15    19     9
   14    13    15    42     9
   13    14    18    16     9
   13    14    18    44     9
   41    14    18    44     9
   13    15    19    16     9
   13    15    19    45     9
   42    15    19    45     9
   18    16     4    46     9
   19    16     4    46     9
    4    16    18    14     9
    4    16    18    44     9
   19    16    18    44     9
    4    16    19    15     9
    4    16    19    45     9
   18    16    19    45     9
   20    17     4    46     9
   21    17     4    46     9
   43    17     4    46     9
    4    17    20     5     9
    4    17    21    47     9
    4    17    21    48     9
    4    17    21    49     9
   20    17    21    47     9
   20    17    21    48     9
   20    17    21    49     9
   43    17    21    47     9
   43    17    21    48     9
   43    17    21    49     9
   16    18    14    41     9
   14    18    16    19     9
   16    19    15    42     9
   15    19    16    18     9
    5    20     2    22     9
   17    20     2    22     9
    2    20     5     6     9
    2    20    17     4     9
    2    20    17    21     9
    2    20    17    43     9
    5    20    17    21     9
    5    20    17    43     9
    6    22     2    20     9
    2    22     6     5     9
    2    22    23    24     9
    2    22    23    25     9
    6    22    23    24     9
    6    22    23    25     9
   22    23    24    26     9
   22    23    24    50     9
   25    23    24    26     9
   25    23    24    50     9
   22    23    25    27     9
   22    23    25    51     9
   24    23    25    27     9
   24    23    25    51     9
   23    24    26    28     9
   23    24    26    52     9
   50    24    26    52     9
   23    25    27    28     9
   23    25    27    53     9
   51    25    27    53     9
   28    26    24    50     9
   24    26    28    27     9
   24    26    28    54     9
   52    26    28    54     9
   28    27    25    51     9
   25    27    28    26     9
   25    27    28    54     9
   53    27    28    54     9
   27    28    26    52     9
   26    28    27    53     9
