Title
42794
    1SAPS     N    1   3.096   3.620   6.233 -0.6620 -0.2825  0.4136
    1SAPS   HN1    2   3.073   3.522   6.210 -1.0270 -0.1534  0.2187
    1SAPS   HN2    3   3.009   3.677   6.223 -1.3798 -1.6213 -1.3165
    1SAPS   HN3    4   3.176   3.648   6.173 -0.6166  1.5432  1.2872
    1SAPS   C12    5   3.145   3.628   6.374  0.6293  0.1062  0.6487
    1SAPS  H12A    6   3.199   3.719   6.394 -0.2089  1.2561 -2.1226
    1SAPS   C13    7   3.037   3.628   6.486  0.3815  0.1607 -0.0251
    1SAPS  O13A    8   2.916   3.618   6.462  0.3778  0.1011  0.2905
    1SAPS  O13B    9   3.079   3.644   6.605  0.5556 -0.1819 -0.2728
    1SAPS   C11   10   3.244   3.507   6.385 -0.1868  0.0886  0.0251
    1SAPS  H11A   11   3.182   3.415   6.382  0.1220 -0.1642  1.2130
    1SAPS  H11B   12   3.297   3.512   6.482  0.1312 -1.2046 -0.0724
    1SAPS     P   13   3.473   3.413   6.274 -0.2689 -0.2467 -0.0107
    1SAPS   O13   14   3.542   3.442   6.397  0.2866 -0.1421 -0.1993
    1SAPS   O14   15   3.436   3.273   6.246 -0.0779 -0.4519 -0.2494
    1SAPS   O12   16   3.342   3.499   6.284 -0.0176 -0.1657 -0.1824
    1SAPS   O11   17   3.547   3.476   6.147  0.3536  0.1936 -0.1722
    1SAPS    C1   18   3.505   3.596   6.083  0.1815 -0.2849 -0.4834
    1SAPS    HA   19   3.403   3.578   6.043  0.3326 -1.1053 -0.5119
    1SAPS    HB   20   3.513   3.681   6.153  1.0192  0.0098 -0.9275
    1SAPS    C2   21   3.596   3.621   5.959  0.6730  0.5386  0.0940
    1SAPS    HS   22   3.696   3.638   6.003  0.4315 -1.3831  1.4686
    1SAPS   O21   23   3.539   3.736   5.890  1.0392 -0.2870 -0.0378
    1SAPS   C21   24   3.618   3.823   5.857 -0.0198  0.2297  0.6927
    1SAPS   O22   25   3.738   3.829   5.887 -0.1555 -0.5912 -0.2467
    1SAPS   C22   26   3.551   3.923   5.753 -0.0485  0.2687 -0.5881
    1SAPS   H2R   27   3.457   3.881   5.712 -0.1579 -1.9512  1.8276
    1SAPS   H2S   28   3.527   4.018   5.807  0.7425 -0.4579  1.0727
    1SAPS    C3   29   3.601   3.499   5.866 -0.0907  0.6216 -0.0437
    1SAPS    HX   30   3.512   3.496   5.799  1.7526  0.2053 -2.5638
    1SAPS    HY   31   3.608   3.402   5.918 -0.0558  0.2403 -0.7572
    1SAPS   O31   32   3.710   3.517   5.773 -0.4845  0.2591  0.1196
    1SAPS   C31   33   3.830   3.489   5.810  0.7302 -0.2941  0.2843
    1SAPS   O32   34   3.861   3.423   5.907  0.3365  0.1414 -0.2051
    1SAPS   C32   35   3.926   3.548   5.700 -0.2614 -0.1402  0.8831
    1SAPS   H2X   36   4.029   3.523   5.733 -0.4544  0.4690  1.9604
    1SAPS   H2Y   37   3.903   3.657   5.698 -1.4411 -0.3703  1.2357
    1SAPS   C23   38   3.643   3.952   5.638 -0.9045 -0.5587 -0.4076
    1SAPS   H3R   39   3.748   3.976   5.663 -0.2229 -1.6064 -2.2095
    1SAPS   H3S   40   3.608   4.047   5.592  0.5859  0.8797  1.3329
    1SAPS   C24   41   3.632   3.834   5.532  0.5411 -0.3467 -0.1174
    1SAPS   H4R   42   3.524   3.826   5.507  0.4551 -0.3709  0.2628
    1SAPS   H4S   43   3.664   3.744   5.589 -0.2870 -0.6004 -0.0511
    1SAPS   C25   44   3.712   3.849   5.407  0.0860  0.4833 -0.2839
    1SAPS   H5R   45   3.815   3.870   5.438  0.3730 -0.9973 -0.2283
    1SAPS   C26   46   3.672   3.833   5.280  0.4520  0.5624 -0.0763
    1SAPS   H6R   47   3.754   3.829   5.207  0.3591 -0.9318 -0.1087
    1SAPS   C27   48   3.538   3.791   5.217  0.3352 -0.2566  0.1533
    1SAPS   H7R   49   3.481   3.883   5.191 -0.8921 -0.8871  0.5167
    1SAPS   H7S   50   3.464   3.745   5.286 -1.1894 -0.8630 -1.8446
    1SAPS   C28   51   3.549   3.703   5.100 -0.1779 -0.8038  0.4096
    1SAPS   H8R   52   3.506   3.603   5.116  0.9993 -1.8476 -2.6638
    1SAPS   C29   53   3.593   3.728   4.973 -0.3959  0.1776  0.2177
    1SAPS   H9R   54   3.581   3.651   4.895  0.0290  1.8607 -1.5418
    1SAPS  C210   55   3.657   3.856   4.921  0.2793  1.1881 -1.0238
    1SAPS  H10R   56   3.666   3.931   5.003  0.3290  0.8287 -0.6992
    1SAPS  H10S   57   3.595   3.902   4.841 -1.1378  1.1737  0.0410
    1SAPS  C211   58   3.795   3.829   4.864  0.1682  0.0501  0.2547
    1SAPS  H11R   59   3.877   3.822   4.937 -0.0827  0.4882  0.5843
    1SAPS  C212   60   3.826   3.797   4.743 -0.3251  0.1113  0.2076
    1SAPS  H12R   61   3.928   3.766   4.719  0.1500  1.6361  0.1670
    1SAPS  C213   62   3.714   3.781   4.630  0.6262  0.6502 -0.8557
    1SAPS  H13R   63   3.627   3.848   4.645  0.4301  0.5520 -1.5859
    1SAPS  H13S   64   3.663   3.682   4.629 -1.2324  1.4843  3.1050
    1SAPS  C214   65   3.760   3.791   4.492 -0.7428 -0.0980  0.6074
    1SAPS  H14R   66   3.849   3.733   4.464  0.0691  2.1572 -1.7109
    1SAPS  C215   67   3.699   3.843   4.381 -0.5018 -0.0417 -1.4749
    1SAPS  H15R   68   3.758   3.821   4.290 -0.4308 -1.7092 -1.0303
    1SAPS  C216   69   3.568   3.918   4.364 -0.5859  0.5878 -0.6111
    1SAPS  H16R   70   3.582   4.020   4.323  0.2770  1.0207  0.6988
    1SAPS  H16S   71   3.515   3.929   4.461  0.3830 -0.2491  0.0330
    1SAPS  C217   72   3.496   3.835   4.256 -0.2717 -0.0253  0.2196
    1SAPS  H17R   73   3.473   3.730   4.284 -0.1407  0.0889  0.7648
    1SAPS  H17S   74   3.551   3.831   4.160 -0.3389 -2.4132  0.2682
    1SAPS  C218   75   3.367   3.906   4.212  0.6917 -0.1849  0.6148
    1SAPS  H18R   76   3.386   3.997   4.151  0.1453 -0.4105  0.0991
    1SAPS  H18S   77   3.311   3.941   4.301 -0.4414 -0.1754 -0.0841
    1SAPS  C219   78   3.266   3.821   4.120  0.3074 -0.1789 -0.1021
    1SAPS  H19R   79   3.164   3.862   4.130  0.4488  0.2860 -0.5663
    1SAPS  H19S   80   3.273   3.720   4.167  2.1959  0.5550  1.2514
    1SAPS  C220   81   3.310   3.807   3.975  0.0351 -0.2265 -0.2549
    1SAPS  H20R   82   3.239   3.741   3.921  0.9449 -1.4539  0.0246
    1SAPS  H20S   83   3.417   3.777   3.971  0.3479  0.5034  1.8893
    1SAPS  H20T   84   3.296   3.898   3.913  1.9310 -0.1994 -0.6727
    1SAPS   C33   85   3.898   3.495   5.558 -0.2537  0.6592 -0.7173
    1SAPS   H3X   86   3.793   3.514   5.525 -0.5811  2.4850  1.2900
    1SAPS   H3Y   87   3.900   3.385   5.542 -0.5668  0.2592  1.8741
    1SAPS   C34   88   3.992   3.553   5.444  0.3093  0.5076  0.0425
    1SAPS   H4X   89   4.082   3.489   5.452 -0.3842 -0.4843  0.1429
    1SAPS   H4Y   90   4.009   3.661   5.460  1.8623  0.5157 -1.5513
    1SAPS   C35   91   3.950   3.533   5.298 -0.4825 -0.1285  0.5090
    1SAPS   H5X   92   4.029   3.549   5.222 -1.7477 -0.1511 -0.8422
    1SAPS   H5Y   93   3.883   3.620   5.276 -0.9113 -0.1817  1.5720
    1SAPS   C36   94   3.867   3.413   5.251  0.0143 -0.1488 -0.3659
    1SAPS   H6X   95   3.777   3.406   5.316  1.3111  2.2547  1.7797
    1SAPS   H6Y   96   3.915   3.314   5.269  1.7384  0.5046 -1.2738
    1SAPS   C37   97   3.835   3.422   5.103  0.5455 -0.1874 -0.4074
    1SAPS   H7X   98   3.921   3.459   5.044 -0.5946  1.6211 -0.9901
    1SAPS   H7Y   99   3.759   3.504   5.099 -1.4898 -1.8352  2.3958
    1SAPS   C38  100   3.767   3.302   5.053 -0.2005  0.7855  0.4120
    1SAPS   H8X  101   3.694   3.273   5.132  0.3111  0.4933  0.7801
    1SAPS   H8Y  102   3.837   3.217   5.040  0.6196  1.4193  0.6337
    1SAPS   C39  103   3.689   3.303   4.917 -0.2200  0.1742  0.4561
    1SAPS   H9X  104   3.617   3.388   4.910  0.8060  0.9214 -1.2496
    1SAPS   H9Y  105   3.649   3.199   4.913  1.6052 -0.5120 -0.0811
    1SAPS  C310  106   3.789   3.329   4.801  0.1968  0.7112 -0.2051
    1SAPS  H10X  107   3.867   3.250   4.800  0.2454  0.7046  2.0708
    1SAPS  H10Y  108   3.842   3.422   4.833  1.3354  0.1907 -0.5295
    1SAPS  C311  109   3.726   3.326   4.665  0.4763 -0.9692  0.1569
    1SAPS  H11X  110   3.680   3.425   4.647  0.6809 -0.9014 -0.0002
    1SAPS  H11Y  111   3.649   3.246   4.655 -0.5267 -0.1188  1.0388
    1SAPS  C312  112   3.828   3.309   4.550 -0.0295  0.1545 -0.0347
    1SAPS  H12X  113   3.784   3.281   4.452 -2.2620 -0.3448  1.0850
    1SAPS  H12Y  114   3.894   3.222   4.567 -1.4228 -1.3381 -1.9808
    1SAPS  C313  115   3.919   3.436   4.538 -0.3036  0.7367 -0.3467
    1SAPS  H13X  116   3.996   3.431   4.619  0.6974 -1.7125 -1.3683
    1SAPS  H13Y  117   3.850   3.521   4.555  0.5559  1.4626 -0.4607
    1SAPS  C314  118   3.991   3.440   4.410 -0.7164 -0.5616 -0.0096
    1SAPS  H14X  119   3.913   3.462   4.334  0.1900  2.3864 -0.1475
    1SAPS  H14Y  120   4.014   3.334   4.386 -1.3475 -0.9514  1.0908
    1SAPS  C315  121   4.105   3.545   4.405 -0.2623 -0.0548 -0.1868
    1SAPS  H15X  122   4.193   3.524   4.469  1.5116  0.0309 -2.5124
    1SAPS  H15Y  123   4.063   3.628   4.465  1.2926 -0.6162  1.7270
    1SAPS  C316  124   4.149   3.589   4.267  0.2835 -0.4239 -1.1775
    1SAPS  H16X  125   4.199   3.688   4.276 -0.2921 -0.1671 -0.8008
    1SAPS  H16Y  126   4.069   3.602   4.191  0.1675  1.0289 -0.8219
    1SAPS  C317  127   4.261   3.504   4.201  0.5939 -0.0973 -0.4334
    1SAPS  H17X  128   4.289   3.554   4.106 -2.5552 -0.3425 -1.5428
    1SAPS  H17Y  129   4.224   3.407   4.161  1.0152  0.7994 -3.0327
    1SAPS  C318  130   4.386   3.483   4.275 -0.5845 -0.4135 -0.4302
    1SAPS  H18X  131   4.470   3.434   4.220 -1.3574 -1.6375 -0.5511
    1SAPS  H18Y  132   4.355   3.414   4.357  0.0953  0.0119  0.1893
    1SAPS  H18Z  133   4.425   3.581   4.309  0.8742 -1.2359  0.3208
    2SAPS     N  134   4.221   5.419   6.649  0.0917  0.6607  0.9763
    2SAPS   HN1  135   4.255   5.427   6.552 -1.5827  0.7623  0.3708
    2SAPS   HN2  136   4.300   5.386   6.708 -1.6665 -1.6943  2.1279
    2SAPS   HN3  137   4.151   5.343   6.633  0.5259  0.5764 -0.6081
    2SAPS   C12  138   4.156   5.549   6.695 -0.1321 -0.5908 -0.4009
    2SAPS  H12A  139   4.115   5.528   6.792 -1.1173 -0.8943 -0.8751
    2SAPS   C13  140   4.260   5.667   6.704 -0.4162  0.2145 -0.4181
    2SAPS  O13A  141   4.373   5.663   6.650 -0.4969  0.0931  0.0280
    2SAPS  O13B  142   4.222   5.775   6.761  0.7919 -0.4375 -0.2352
    2SAPS   C11  143   4.050   5.583   6.583  0.6943 -0.1724  0.2904
    2SAPS  H11A  144   4.013   5.686   6.595 -0.2190 -0.5496  0.7020
    2SAPS  H11B  145   3.953   5.530   6.593 -0.5012  2.2378  1.8144
    2SAPS     P  146   4.017   5.596   6.320 -0.2266  0.3007 -0.0459
    2SAPS   O13  147   3.922   5.710   6.336  0.1719  0.0066 -0.4781
    2SAPS   O14  148   4.108   5.591   6.206 -0.4867  0.2083  0.2615
    2SAPS   O12  149   4.106   5.578   6.452  0.7611 -0.4137  0.2167
    2SAPS   O11  150   3.934   5.466   6.320  0.3688  0.2053  0.1299
    2SAPS    C1  151   3.796   5.438   6.341 -0.0245  0.2280  0.4092
    2SAPS    HA  152   3.785   5.360   6.420 -0.8194 -1.1364 -1.0159
    2SAPS    HB  153   3.751   5.536   6.369  0.3108  0.3780  0.4224
    2SAPS    C2  154   3.728   5.387   6.205 -0.4226 -0.0129  0.2519
    2SAPS    HS  155   3.630   5.345   6.236 -0.3300 -1.3812 -1.2568
    2SAPS   O21  156   3.803   5.278   6.145  0.3047 -0.5767  0.6642
    2SAPS   C21  157   3.749   5.205   6.058  0.3609  0.6151  0.2398
    2SAPS   O22  158   3.629   5.195   6.028 -0.8494 -0.1004 -0.1690
    2SAPS   C22  159   3.853   5.108   6.006 -0.2796  0.3429 -0.5563
    2SAPS   H2R  160   3.948   5.164   6.010  0.2692 -0.4021 -2.3856
    2SAPS   H2S  161   3.872   5.024   6.076  0.7508 -0.2143 -1.4878
    2SAPS    C3  162   3.703   5.509   6.106 -0.3450 -1.0752  0.3955
    2SAPS    HX  163   3.643   5.574   6.175 -0.3383  0.2959 -0.8655
    2SAPS    HY  164   3.626   5.479   6.032 -0.6581 -0.8304  0.6190
    2SAPS   O31  165   3.818   5.575   6.050  0.0625  0.4778  0.3215
    2SAPS   C31  166   3.881   5.516   5.945 -0.2036 -0.2452 -0.3236
    2SAPS   O32  167   3.842   5.418   5.886 -0.4532  0.8004  0.3431
    2SAPS   C32  168   3.994   5.602   5.904  0.5581  0.4562 -0.2864
    2SAPS   H2X  169   4.087   5.543   5.889  0.6901  0.4628  0.4872
    2SAPS   H2Y  170   4.011   5.681   5.981 -2.2313  2.9087 -2.0733
    2SAPS   C23  171   3.806   5.048   5.869  0.3821 -0.3903 -0.0926
    2SAPS   H3R  172   3.802   5.125   5.790  2.1089 -1.1881 -1.0025
    2SAPS   H3S  173   3.707   4.998   5.867  0.3665 -0.2889 -2.3378
    2SAPS   C24  174   3.900   4.938   5.821 -0.4462  0.2684  1.3545
    2SAPS   H4R  175   3.870   4.914   5.717  0.4309  0.4121  1.0699
    2SAPS   H4S  176   3.888   4.845   5.880 -1.7553 -1.2632 -1.2441
    2SAPS   C25  177   4.044   4.991   5.812 -0.2188 -0.4930 -0.3209
    2SAPS   H5R  178   4.101   4.966   5.902  0.1223 -0.4966 -0.5395
    2SAPS   C26  179   4.103   5.073   5.721  0.0413 -0.0246  0.2266
    2SAPS   H6R  180   4.199   5.118   5.751  1.1407 -1.0430 -1.6313
    2SAPS   C27  181   4.033   5.128   5.594 -0.5944  0.1584 -0.4682
    2SAPS   H7R  182   3.949   5.061   5.569  0.7416 -1.7682  0.0927
    2SAPS   H7S  183   4.107   5.134   5.512  2.4633  1.3374  2.2451
    2SAPS   C28  184   3.985   5.269   5.622 -0.0427  0.2335  0.7272
    2SAPS   H8R  185   3.981   5.301   5.728 -1.7183 -0.3852  0.8731
    2SAPS   C29  186   3.955   5.362   5.531 -0.1865  0.7990  0.9921
    2SAPS   H9R  187   3.949   5.470   5.551 -1.4537  0.6531  1.5014
    2SAPS  C210  188   3.982   5.343   5.383 -0.4180 -0.4155  0.0969
    2SAPS  H10R  189   3.936   5.427   5.327  0.0681  0.1351  0.5067
    2SAPS  H10S  190   3.927   5.260   5.335 -1.4402  0.2557  0.0947
    2SAPS  C211  191   4.127   5.349   5.340 -0.2432 -0.6029 -0.0491
    2SAPS  H11R  192   4.194   5.292   5.405  0.3460  0.2987  0.1356
    2SAPS  C212  193   4.169   5.399   5.223 -0.0568  0.2523  0.7934
    2SAPS  H12R  194   4.271   5.377   5.188 -0.5955 -0.5327 -0.2943
    2SAPS  C213  195   4.078   5.451   5.116  0.4266 -0.3557 -0.1203
    2SAPS  H13R  196   4.037   5.549   5.150  3.7370  1.2574 -0.6557
    2SAPS  H13S  197   3.993   5.380   5.108  0.4553 -0.4011 -0.0187
    2SAPS  C214  198   4.145   5.472   4.985  0.1848  0.0784 -0.6643
    2SAPS  H14R  199   4.210   5.387   4.960  0.2822  0.5558 -2.0429
    2SAPS  C215  200   4.134   5.579   4.893 -0.4730  0.4841 -0.0563
    2SAPS  H15R  201   4.196   5.571   4.803  0.4916 -1.2421  0.7402
    2SAPS  C216  202   4.042   5.701   4.903 -0.3950 -0.4168  0.6173
    2SAPS  H16R  203   3.994   5.683   5.001 -0.6783  0.1239  0.5822
    2SAPS  H16S  204   3.959   5.695   4.829 -1.4911  2.4344  1.5105
    2SAPS  C217  205   4.105   5.845   4.902  0.3024  0.3165 -0.0208
    2SAPS  H17R  206   4.160   5.854   4.998 -0.6218  1.2240  0.4241
    2SAPS  H17S  207   4.019   5.914   4.896  1.7962  2.1819 -0.5717
    2SAPS  C218  208   4.208   5.866   4.785  0.2822  0.1059  0.1626
    2SAPS  H18R  209   4.159   5.830   4.693 -0.4836  0.6294  0.3605
    2SAPS  H18S  210   4.294   5.799   4.805 -0.2942 -0.1028  2.0900
    2SAPS  C219  211   4.269   6.006   4.764  0.3810  0.7320  0.2617
    2SAPS  H19R  212   4.313   6.037   4.862 -0.7671 -0.7501  1.2750
    2SAPS  H19S  213   4.194   6.077   4.725  0.4084 -0.9173 -2.9742
    2SAPS  C220  214   4.387   5.994   4.669 -0.1579 -0.1880  0.1887
    2SAPS  H20R  215   4.432   6.093   4.647  0.0435 -0.4306 -0.5143
    2SAPS  H20S  216   4.360   5.943   4.574  1.6558 -0.5161 -0.1689
    2SAPS  H20T  217   4.472   5.933   4.708  0.2205 -1.2645 -2.2735
    2SAPS   C33  218   3.954   5.687   5.778 -0.0926 -0.0529 -0.3850
    2SAPS   H3X  219   3.855   5.736   5.785 -0.0647 -0.2071  1.2827
    2SAPS   H3Y  220   3.963   5.622   5.689 -2.0708 -0.5675 -0.2220
    2SAPS   C34  221   4.062   5.794   5.749  0.0574  0.6187  0.5348
    2SAPS   H4X  222   4.155   5.743   5.716  0.1147  0.4686  0.9174
    2SAPS   H4Y  223   4.080   5.847   5.845 -2.0356 -1.2505  2.0204
    2SAPS   C35  224   4.033   5.893   5.643  0.5356  0.0631  0.1321
    2SAPS   H5X  225   4.124   5.948   5.612  0.2809  0.0487 -0.6411
    2SAPS   H5Y  226   3.975   5.981   5.677  0.7455 -0.7372  2.6767
    2SAPS   C36  227   3.963   5.837   5.522 -0.2645  0.7635 -0.1185
    2SAPS   H6X  228   3.927   5.917   5.454  1.0968  2.7152  1.4353
    2SAPS   H6Y  229   3.873   5.785   5.562 -0.0848  2.6899  2.9398
    2SAPS   C37  230   4.059   5.753   5.428  0.8373 -0.2257 -0.2123
    2SAPS   H7X  231   4.004   5.709   5.342 -1.9163  1.1040  0.8351
    2SAPS   H7Y  232   4.096   5.665   5.484  0.2385 -2.0541 -2.5802
    2SAPS   C38  233   4.164   5.840   5.362 -0.1459  0.1240 -0.2386
    2SAPS   H8X  234   4.232   5.894   5.432  1.1428 -3.2105  1.1908
    2SAPS   H8Y  235   4.127   5.909   5.284  3.8136  2.1903 -0.4421
    2SAPS   C39  236   4.253   5.752   5.268 -0.3108 -0.1747  0.0115
    2SAPS   H9X  237   4.191   5.698   5.193 -0.9667  0.2032  0.2691
    2SAPS   H9Y  238   4.296   5.669   5.328 -0.8299 -0.1140  0.4825
    2SAPS  C310  239   4.354   5.833   5.201 -0.4480 -1.0369  0.2375
    2SAPS  H10X  240   4.430   5.866   5.275 -0.7921  1.1941 -0.3519
    2SAPS  H10Y  241   4.316   5.929   5.158 -0.4144 -1.5776 -1.0391
    2SAPS  C311  242   4.449   5.774   5.086  0.0948 -0.3820 -0.2006
    2SAPS  H11X  243   4.530   5.847   5.065  1.8738 -2.3452 -0.2205
    2SAPS  H11Y  244   4.396   5.754   4.990  0.2574 -0.4858 -0.2690
    2SAPS  C312  245   4.511   5.646   5.144  0.1506  0.0886  0.0157
    2SAPS  H12X  246   4.428   5.577   5.170 -0.7447  1.4329  0.7490
    2SAPS  H12Y  247   4.547   5.669   5.247 -2.3175 -1.7167  1.3406
    2SAPS  C313  248   4.635   5.596   5.066 -0.0107 -0.3753 -0.5329
    2SAPS  H13X  249   4.652   5.490   5.098 -1.0572 -1.5951 -3.8150
    2SAPS  H13Y  250   4.724   5.657   5.091  0.2075 -0.7522 -0.3814
    2SAPS  C314  251   4.622   5.609   4.915  0.1612 -0.0944 -0.4413
    2SAPS  H14X  252   4.585   5.707   4.877  0.5114 -0.6009 -2.1103
    2SAPS  H14Y  253   4.538   5.542   4.890  0.4149 -0.6059  0.0798
    2SAPS  C315  254   4.749   5.573   4.833  0.0670 -0.0599  0.3282
    2SAPS  H15X  255   4.736   5.597   4.725  0.2842 -0.8711  0.1227
    2SAPS  H15Y  256   4.772   5.465   4.842 -0.6534 -0.5737 -3.3746
    2SAPS  C316  257   4.875   5.657   4.874 -0.2558  0.2362 -0.6344
    2SAPS  H16X  258   4.921   5.630   4.972  0.0811 -0.5924 -1.0188
    2SAPS  H16Y  259   4.838   5.760   4.892 -1.0240 -0.2182  0.5179
    2SAPS  C317  260   4.980   5.639   4.766  0.4260 -0.3689  0.3233
    2SAPS  H17X  261   4.937   5.673   4.669 -0.6935  3.1447  1.9839
    2SAPS  H17Y  262   4.998   5.530   4.752  2.1102 -0.2195  1.2431
    2SAPS  C318  263   5.119   5.696   4.801 -0.6291 -0.3416  0.1998
    2SAPS  H18X  264   5.122   5.807   4.791 -0.4584 -0.1997  1.6993
    2SAPS  H18Y  265   5.201   5.645   4.746 -1.3924 -0.2020 -1.0748
    2SAPS  H18Z  266   5.137   5.678   4.909  1.5732 -0.7462 -0.2146
    3SAPS     N  267   4.725   5.579   6.287 -0.4673 -0.1872  0.5317
    3SAPS   HN1  268   4.698   5.643   6.364 -0.9890  0.7476 -0.4159
    3SAPS   HN2  269   4.769   5.636   6.211 -0.7211  0.2458  0.7141
    3SAPS   HN3  270   4.631   5.545   6.260 -0.4627  2.0368 -2.7105
    3SAPS   C12  271   4.820   5.476   6.324 -0.5507 -0.5227  0.4216
    3SAPS  H12A  272   4.921   5.512   6.312 -0.7037 -0.1900  0.0961
    3SAPS   C13  273   4.789   5.434   6.471 -0.5714  0.1592 -0.2548
    3SAPS  O13A  274   4.685   5.476   6.526 -0.4411 -0.3464  0.2118
    3SAPS  O13B  275   4.876   5.381   6.539 -0.1142 -0.2764 -0.0170
    3SAPS   C11  276   4.806   5.366   6.221  0.2173 -0.0949 -0.2448
    3SAPS  H11A  277   4.809   5.396   6.114 -1.2114 -0.9885 -0.5635
    3SAPS  H11B  278   4.707   5.316   6.226 -0.7098  1.7935  0.5937
    3SAPS     P  279   5.060   5.290   6.175  0.6344 -0.1574  0.0787
    3SAPS   O13  280   5.105   5.422   6.214 -0.1909  0.1026  0.0937
    3SAPS   O14  281   5.149   5.174   6.198  0.6031  0.3513  0.5180
    3SAPS   O12  282   4.920   5.265   6.232  0.4414 -0.3092 -0.0495
    3SAPS   O11  283   5.035   5.293   6.017  0.3049 -0.4660 -0.3867
    3SAPS    C1  284   4.952   5.197   5.953  0.9630 -0.8791  0.0379
    3SAPS    HA  285   4.849   5.198   5.995  0.3578 -0.4590 -1.4493
    3SAPS    HB  286   4.926   5.233   5.851 -2.0523  0.8887  1.3643
    3SAPS    C2  287   5.001   5.052   5.945 -0.4290  0.2513 -0.4336
    3SAPS    HS  288   5.065   5.033   6.034  2.1958  2.8831 -1.6807
    3SAPS   O21  289   5.076   5.044   5.821  0.0422 -0.2407 -0.4539
    3SAPS   C21  290   5.157   4.945   5.823  0.3361  0.3977  0.6724
    3SAPS   O22  291   5.170   4.865   5.916 -0.1954  0.2562  0.2873
    3SAPS   C22  292   5.238   4.937   5.693 -0.8104 -0.1331  0.2722
    3SAPS   H2R  293   5.244   5.035   5.642  0.5646 -0.0864  0.5211
    3SAPS   H2S  294   5.342   4.925   5.730 -1.4653  0.0801  2.2586
    3SAPS    C3  295   4.879   4.953   5.956 -0.3324 -0.2286 -0.2916
    3SAPS    HX  296   4.817   4.976   6.045 -1.1767 -2.0783 -0.3722
    3SAPS    HY  297   4.925   4.852   5.962  1.1457  0.3845 -1.1238
    3SAPS   O31  298   4.803   4.962   5.833 -0.5189  0.1200 -0.0302
    3SAPS   C31  299   4.679   5.006   5.835  0.5615 -0.0823  0.2355
    3SAPS   O32  300   4.612   5.013   5.934  0.5574 -0.7637 -0.2740
    3SAPS   C32  301   4.638   5.043   5.695 -0.2268 -0.0931 -0.2959
    3SAPS   H2X  302   4.681   4.965   5.627 -1.0358  0.3457 -1.3290
    3SAPS   H2Y  303   4.698   5.132   5.669 -1.6058  0.4031 -1.9034
    3SAPS   C23  304   5.201   4.809   5.606  0.7651 -0.0777 -0.0808
    3SAPS   H3R  305   5.224   4.717   5.663 -1.1098 -0.8528 -0.5426
    3SAPS   H3S  306   5.248   4.805   5.505  1.2911 -3.2084  0.2563
    3SAPS   C24  307   5.047   4.797   5.571 -0.6416 -0.0348 -0.2958
    3SAPS   H4R  308   4.987   4.770   5.661 -0.3938 -2.1483 -0.7192
    3SAPS   H4S  309   5.036   4.714   5.498  2.8085  0.9412 -2.0334
    3SAPS   C25  310   4.982   4.926   5.524  0.0393  0.1002 -0.3330
    3SAPS   H5R  311   4.954   5.001   5.600  2.9899  0.4504  0.4866
    3SAPS   C26  312   4.946   4.960   5.395  0.3940 -0.1096 -0.0724
    3SAPS   H6R  313   4.918   5.066   5.384  1.6402  0.1411 -0.9512
    3SAPS   C27  314   4.957   4.882   5.266 -0.5107  0.3842  0.0206
    3SAPS   H7R  315   4.869   4.909   5.205  0.6991 -1.4407 -2.6112
    3SAPS   H7S  316   4.960   4.775   5.296  1.2734  0.6807  0.9753
    3SAPS   C28  317   5.088   4.918   5.192  0.2767 -0.2757 -0.6665
    3SAPS   H8R  318   5.107   5.027   5.186 -2.4615  0.1296 -2.8923
    3SAPS   C29  319   5.184   4.829   5.149  1.3718 -0.2448 -0.3849
    3SAPS   H9R  320   5.278   4.867   5.107  1.4958  1.2394  1.2002
    3SAPS  C210  321   5.191   4.682   5.158  0.0635  1.0310  0.1292
    3SAPS  H10R  322   5.150   4.646   5.061 -0.4960  1.5121  0.1861
    3SAPS  H10S  323   5.117   4.645   5.231  0.4956 -0.1860 -0.0293
    3SAPS  C211  324   5.325   4.627   5.194 -0.1917 -0.6138  0.2227
    3SAPS  H11R  325   5.346   4.621   5.302  2.3222  0.6672 -0.1586
    3SAPS  C212  326   5.428   4.590   5.127  0.3097  0.3430  1.0433
    3SAPS  H12R  327   5.519   4.568   5.186  0.5100 -0.6337  0.3734
    3SAPS  C213  328   5.439   4.597   4.975  0.3092  0.2786  0.1883
    3SAPS  H13R  329   5.500   4.678   4.931  0.5150  0.0205  0.0010
    3SAPS  H13S  330   5.341   4.630   4.933 -0.0713  1.8631  2.2500
    3SAPS  C214  331   5.464   4.467   4.906  0.5442 -0.3161 -0.3715
    3SAPS  H14R  332   5.400   4.386   4.945 -1.6535  1.0010 -1.1473
    3SAPS  C215  333   5.550   4.444   4.805  0.6550 -0.2044  0.0165
    3SAPS  H15R  334   5.569   4.345   4.760 -2.1234 -0.7551 -0.0330
    3SAPS  C216  335   5.638   4.547   4.744  0.5415  0.1903 -0.1696
    3SAPS  H16R  336   5.732   4.492   4.725  0.0197 -0.6924 -0.2093
    3SAPS  H16S  337   5.661   4.637   4.805  3.7021 -1.4882  1.2137
    3SAPS  C217  338   5.577   4.607   4.611  0.0365 -0.5611 -0.3579
    3SAPS  H17R  339   5.647   4.685   4.574  0.7163 -0.1982  1.6473
    3SAPS  H17S  340   5.478   4.655   4.629  0.0630  0.0379 -1.6981
    3SAPS  C218  341   5.553   4.495   4.511 -0.6061 -0.4403  0.1654
    3SAPS  H18R  342   5.482   4.418   4.549  0.7045 -1.1019  1.3063
    3SAPS  H18S  343   5.649   4.441   4.502  0.2690  1.1466 -0.0691
    3SAPS  C219  344   5.509   4.539   4.369 -0.4122 -0.3547  0.2045
    3SAPS  H19R  345   5.414   4.596   4.367  0.4927  1.1423 -0.3232
    3SAPS  H19S  346   5.578   4.605   4.313  1.2576 -1.0034  1.4323
    3SAPS  C220  347   5.483   4.404   4.291  0.1167 -0.3661 -0.1251
    3SAPS  H20R  348   5.565   4.333   4.316  1.0366  0.7442  0.0835
    3SAPS  H20S  349   5.489   4.418   4.181  0.0886  0.4714 -0.0206
    3SAPS  H20T  350   5.384   4.372   4.329 -0.2668  1.2074  0.2349
    3SAPS   C33  351   4.494   5.070   5.672  0.2703 -0.3688 -0.0882
    3SAPS   H3X  352   4.446   5.127   5.755  1.1865  0.4704 -0.1258
    3SAPS   H3Y  353   4.438   4.974   5.665 -1.2647  0.4799  0.4260
    3SAPS   C34  354   4.467   5.157   5.549  0.6938  0.2213 -0.6369
    3SAPS   H4X  355   4.494   5.263   5.571 -2.3121  0.7836  0.4937
    3SAPS   H4Y  356   4.359   5.151   5.523  0.4446 -0.2028  0.4969
    3SAPS   C35  357   4.550   5.113   5.431  0.1579 -0.0482 -0.5339
    3SAPS   H5X  358   4.658   5.122   5.453 -0.0157  0.8484 -0.0296
    3SAPS   H5Y  359   4.526   5.005   5.439 -1.9441  0.5328  1.7075
    3SAPS   C36  360   4.509   5.167   5.293  0.1390 -0.5507 -0.4990
    3SAPS   H6X  361   4.505   5.278   5.293 -0.1303 -0.5621 -0.1631
    3SAPS   H6Y  362   4.415   5.123   5.253 -2.0093  3.6581 -0.3368
    3SAPS   C37  363   4.623   5.125   5.194 -0.2663  0.3254  0.7454
    3SAPS   H7X  364   4.611   5.015   5.182 -2.5563  0.6499 -0.3737
    3SAPS   H7Y  365   4.726   5.124   5.234 -0.0274 -0.0549  0.1267
    3SAPS   C38  366   4.607   5.166   5.049 -0.0091  0.1691  0.1019
    3SAPS   H8X  367   4.609   5.276   5.043  1.3255  0.1809  0.5762
    3SAPS   H8Y  368   4.510   5.125   5.013  0.8841 -0.8987 -1.1410
    3SAPS   C39  369   4.716   5.115   4.954  0.1199 -0.4179  0.2880
    3SAPS   H9X  370   4.677   5.150   4.855  2.7188  1.2137 -0.2027
    3SAPS   H9Y  371   4.738   5.006   4.951 -1.7205 -0.7685 -1.4745
    3SAPS  C310  372   4.841   5.193   4.986  0.3715 -0.4703 -0.1397
    3SAPS  H10X  373   4.889   5.170   5.084  0.9035  0.0739 -0.2734
    3SAPS  H10Y  374   4.812   5.299   5.001 -0.1644 -0.7969  1.2956
    3SAPS  C311  375   4.947   5.203   4.870 -0.1978  0.7973  0.4229
    3SAPS  H11X  376   4.986   5.307   4.865  0.2547  0.6602  1.0102
    3SAPS  H11Y  377   4.894   5.187   4.774 -0.1121 -0.8850  0.6491
    3SAPS  C312  378   5.058   5.103   4.891  0.4265  0.0612  0.0464
    3SAPS  H12X  379   5.018   5.001   4.907  0.6452  0.2624  1.9329
    3SAPS  H12Y  380   5.107   5.139   4.984  1.1943 -1.4124  0.2258
    3SAPS  C313  381   5.166   5.104   4.781  0.2557 -0.3764 -0.0415
    3SAPS  H13X  382   5.242   5.031   4.817 -0.3919 -1.6203 -1.1835
    3SAPS  H13Y  383   5.213   5.202   4.758 -0.4073 -0.5827 -2.4884
    3SAPS  C314  384   5.106   5.046   4.651  0.0359 -0.2486 -0.0144
    3SAPS  H14X  385   5.037   5.114   4.596 -0.6538 -1.1622 -0.2982
    3SAPS  H14Y  386   5.036   4.966   4.681  0.4038 -1.6982 -2.8249
    3SAPS  C315  387   5.220   4.997   4.564 -0.2773 -0.2134  0.2194
    3SAPS  H15X  388   5.293   4.933   4.618 -2.2713 -3.0748 -0.3743
    3SAPS  H15Y  389   5.276   5.085   4.527 -0.6341  0.4225  1.1928
    3SAPS  C316  390   5.183   4.928   4.426  0.1121  0.2941  0.0947
    3SAPS  H16X  391   5.126   4.995   4.358 -0.2083 -0.6955 -0.6280
    3SAPS  H16Y  392   5.117   4.845   4.459 -1.8816  1.4215 -0.9740
    3SAPS  C317  393   5.296   4.856   4.366  0.9018  0.0551 -0.0712
    3SAPS  H17X  394   5.251   4.803   4.279 -1.4696  1.8690  0.0112
    3SAPS  H17Y  395   5.338   4.780   4.436 -1.0634  0.5730  1.7469
    3SAPS  C318  396   5.406   4.954   4.318 -0.3963  0.1017  0.3092
    3SAPS  H18X  397   5.482   4.901   4.256 -0.8237  0.4905 -0.5566
    3SAPS  H18Y  398   5.466   4.982   4.407 -0.3402  0.1527  0.2550
    3SAPS  H18Z  399   5.370   5.049   4.273 -1.9910 -0.1462  1.0141
    4SAPS     N  400   2.657   2.145   6.317  0.2738  0.4948  0.3844
    4SAPS   HN1  401   2.737   2.181   6.373  0.4740  0.3159  0.2151
    4SAPS   HN2  402   2.700   2.074   6.254 -0.6434 -0.0109  0.3276
    4SAPS   HN3  403   2.608   2.219   6.263  1.6749  0.5517 -0.8607
    4SAPS   C12  404   2.567   2.067   6.408  0.3193 -0.9430  0.2161
    4SAPS  H12A  405   2.614   1.970   6.417  0.2676 -0.9835  0.0623
    4SAPS   C13  406   2.551   2.136   6.550 -0.2306  0.1680  0.2876
    4SAPS  O13A  407   2.573   2.264   6.560  0.1665 -0.7457  0.2929
    4SAPS  O13B  408   2.489   2.076   6.641 -0.0107 -0.2423  0.3348
    4SAPS   C11  409   2.435   2.052   6.340 -0.7647  0.4792  1.1289
    4SAPS  H11A  410   2.416   2.157   6.308 -3.0276  0.0973  1.1366
    4SAPS  H11B  411   2.352   2.020   6.406 -0.5016 -1.4640  0.5239
    4SAPS     P  412   2.342   1.876   6.181  0.0964  0.2242 -0.2053
    4SAPS   O13  413   2.378   1.755   6.251  0.7124  0.0240 -0.1612
    4SAPS   O14  414   2.209   1.936   6.209 -0.1669  0.2652 -0.4647
    4SAPS   O12  415   2.451   1.978   6.214 -0.2076  0.2913 -0.6058
    4SAPS   O11  416   2.365   1.845   6.028  0.1655  0.2790 -0.2399
    4SAPS    C1  417   2.470   1.905   5.952  0.0978 -0.1378  0.3779
    4SAPS    HA  418   2.553   1.919   6.024 -0.1313 -0.0559  0.6286
    4SAPS    HB  419   2.504   1.839   5.870  0.8952  1.0960 -0.2910
    4SAPS    C2  420   2.432   2.046   5.909  0.6772 -0.5450  0.0214
    4SAPS    HS  421   2.376   2.099   5.989 -2.6032 -3.6442 -0.1232
    4SAPS   O21  422   2.364   2.039   5.782 -0.8111  0.1687  0.5922
    4SAPS   C21  423   2.295   2.150   5.757  0.7884 -0.4629 -0.2252
    4SAPS   O22  424   2.277   2.242   5.836 -0.3844  0.1185  0.2055
    4SAPS   C22  425   2.239   2.153   5.606 -0.2586  0.2382  0.3602
    4SAPS   H2R  426   2.324   2.144   5.535 -1.8228  1.0092 -1.6701
    4SAPS   H2S  427   2.185   2.057   5.595 -0.5461  0.1902  2.0368
    4SAPS    C3  428   2.571   2.140   5.892  0.4973 -0.3624 -0.0292
    4SAPS    HX  429   2.597   2.163   5.997  0.1730 -1.4444  0.2969
    4SAPS    HY  430   2.530   2.235   5.851  2.0283  0.5855  0.6215
    4SAPS   O31  431   2.679   2.074   5.820 -0.8400 -0.4607  0.3978
    4SAPS   C31  432   2.785   2.155   5.801 -0.5377  0.7718  0.1495
    4SAPS   O32  433   2.800   2.269   5.846  0.1320 -0.1023 -0.5212
    4SAPS   C32  434   2.882   2.086   5.706 -0.4128  0.4859  0.2730
    4SAPS   H2X  435   2.947   2.033   5.779 -0.6042  2.3937  1.8628
    4SAPS   H2Y  436   2.943   2.162   5.654 -0.1414 -0.3330 -0.6157
    4SAPS   C23  437   2.151   2.276   5.573 -1.1513 -0.2432 -0.0303
    4SAPS   H3R  438   2.212   2.367   5.589  2.0017 -2.2986 -0.0650
    4SAPS   H3S  439   2.072   2.285   5.651  0.3578  1.7213  1.3375
    4SAPS   C24  440   2.091   2.284   5.434  0.1718  0.0052 -0.1788
    4SAPS   H4R  441   2.031   2.377   5.443  0.4436  0.2330 -0.6808
    4SAPS   H4S  442   2.016   2.202   5.429  0.4277 -0.2923  0.8725
    4SAPS   C25  443   2.198   2.293   5.327  0.1603  0.1069 -0.6898
    4SAPS   H5R  444   2.276   2.368   5.347  2.2140 -2.1204 -0.1298
    4SAPS   C26  445   2.226   2.209   5.226 -0.3063 -0.1842  0.2770
    4SAPS   H6R  446   2.307   2.234   5.156 -0.7871 -0.0954 -0.2447
    4SAPS   C27  447   2.138   2.087   5.203  0.1259 -0.0263  0.2150
    4SAPS   H7R  448   2.080   2.106   5.110  2.2685 -1.5300 -1.4904
    4SAPS   H7S  449   2.058   2.079   5.279  0.3261 -0.3543  0.3950
    4SAPS   C28  450   2.210   1.956   5.184 -0.4750 -0.0790  0.1941
    4SAPS   H8R  451   2.276   1.927   5.267  0.9596 -2.8875 -1.8765
    4SAPS   C29  452   2.188   1.859   5.090 -0.1532  0.0298 -0.2346
    4SAPS   H9R  453   2.246   1.765   5.090 -2.1029 -1.2115  0.7909
    4SAPS  C210  454   2.084   1.866   4.981  0.0885 -0.2642 -0.3728
    4SAPS  H10R  455   2.068   1.968   4.940 -2.0739 -0.7795 -0.8579
    4SAPS  H10S  456   1.990   1.834   5.030 -0.8644  2.3718 -0.4036
    4SAPS  C211  457   2.104   1.770   4.872  0.0121 -0.0360  0.8621
    4SAPS  H11R  458   2.010   1.720   4.847  0.3565  0.7192 -2.0743
    4SAPS  C212  459   2.215   1.737   4.797 -0.2352  0.5379 -0.5516
    4SAPS  H12R  460   2.207   1.659   4.720  0.0409 -1.3902  1.3013
    4SAPS  C213  461   2.353   1.805   4.811  0.7050  0.5250 -0.0483
    4SAPS  H13R  462   2.391   1.795   4.915 -2.0571  0.3520  0.9750
    4SAPS  H13S  463   2.336   1.912   4.791 -1.2051 -0.1767 -2.3216
    4SAPS  C214  464   2.443   1.760   4.698 -0.1092  0.9235 -0.2791
    4SAPS  H14R  465   2.402   1.767   4.597 -0.9710 -1.2356 -0.1101
    4SAPS  C215  466   2.565   1.702   4.713  0.5042 -0.2507  0.1429
    4SAPS  H15R  467   2.603   1.656   4.621 -1.9196 -3.7629  0.7976
    4SAPS  C216  468   2.615   1.683   4.849 -0.0862  0.4597  0.8654
    4SAPS  H16R  469   2.684   1.596   4.851 -1.0996 -0.4242 -1.0193
    4SAPS  H16S  470   2.533   1.660   4.920 -0.1839 -0.5022  0.4485
    4SAPS  C217  471   2.702   1.802   4.894 -0.0271 -0.8279  0.5731
    4SAPS  H17R  472   2.648   1.886   4.943 -0.0173  1.3152 -2.9765
    4SAPS  H17S  473   2.764   1.851   4.817  0.1911  0.2706  1.4358
    4SAPS  C218  474   2.806   1.758   5.002 -0.4786  0.5610 -0.0917
    4SAPS  H18R  475   2.895   1.721   4.947 -1.3565 -0.3193 -0.9458
    4SAPS  H18S  476   2.768   1.667   5.053 -3.7892  1.0047 -1.6147
    4SAPS  C219  477   2.844   1.864   5.108 -0.1515 -0.1793 -0.2005
    4SAPS  H19R  478   2.762   1.888   5.180  1.1879  3.6040  0.1938
    4SAPS  H19S  479   2.876   1.956   5.054  1.5975 -1.2049 -0.9434
    4SAPS  C220  480   2.958   1.812   5.194  0.6527 -0.1761 -0.1450
    4SAPS  H20R  481   3.052   1.790   5.141  1.1018  0.4620  0.3772
    4SAPS  H20S  482   2.926   1.714   5.235 -0.2224  0.8425  1.7368
    4SAPS  H20T  483   2.972   1.879   5.282 -1.5552  1.9516 -1.3313
    4SAPS   C33  484   2.831   1.966   5.622  0.2252  0.2224  0.5172
    4SAPS   H3X  485   2.761   1.901   5.677  0.5792 -1.2522 -0.7496
    4SAPS   H3Y  486   2.915   1.899   5.595 -0.0223  0.4531 -0.8865
    4SAPS   C34  487   2.760   2.008   5.494 -0.0145 -0.2270  0.0650
    4SAPS   H4X  488   2.729   1.921   5.432  0.2883  2.5989 -4.2806
    4SAPS   H4Y  489   2.825   2.067   5.426 -0.9800 -0.4390 -1.0448
    4SAPS   C35  490   2.633   2.092   5.517 -1.0626 -0.2924  0.2392
    4SAPS   H5X  491   2.666   2.183   5.571 -1.2910  1.0281 -1.7819
    4SAPS   H5Y  492   2.558   2.036   5.577 -0.9221 -0.2315  0.4674
    4SAPS   C36  493   2.567   2.133   5.387 -0.2425  0.2287 -0.5734
    4SAPS   H6X  494   2.457   2.138   5.398 -0.2731 -0.7588 -0.3361
    4SAPS   H6Y  495   2.582   2.047   5.317  0.3330 -0.0992 -0.0504
    4SAPS   C37  496   2.640   2.252   5.337 -0.3232  0.6601 -0.0061
    4SAPS   H7X  497   2.750   2.235   5.334 -0.4457 -0.3067  0.8825
    4SAPS   H7Y  498   2.609   2.338   5.399  0.4673  0.7292  0.3061
    4SAPS   C38  499   2.614   2.283   5.185  0.0368 -0.3192  0.5492
    4SAPS   H8X  500   2.555   2.198   5.145  0.1035  0.4681 -1.2992
    4SAPS   H8Y  501   2.714   2.273   5.138 -0.2538 -1.3463  0.1390
    4SAPS   C39  502   2.546   2.423   5.148  0.2960 -0.4258 -0.6715
    4SAPS   H9X  503   2.612   2.510   5.171  0.9901 -0.8058 -1.2054
    4SAPS   H9Y  504   2.450   2.430   5.203  0.4083 -2.2091 -0.2232
    4SAPS  C310  505   2.525   2.428   4.997  0.5982 -0.5945 -0.2881
    4SAPS  H10X  506   2.421   2.394   4.981  0.1645  0.0649  1.0231
    4SAPS  H10Y  507   2.587   2.355   4.941  2.2774  2.3003 -2.3623
    4SAPS  C311  508   2.532   2.575   4.944 -1.1800 -0.2272 -0.1040
    4SAPS  H11X  509   2.634   2.618   4.945 -1.5161  0.5794  0.4348
    4SAPS  H11Y  510   2.470   2.642   5.008  0.2146  2.2145 -1.2351
    4SAPS  C312  511   2.490   2.594   4.800 -0.2466 -0.1493  0.1501
    4SAPS  H12X  512   2.476   2.704   4.793  0.3838 -0.0307  0.6266
    4SAPS  H12Y  513   2.393   2.544   4.782 -0.3601  0.4404 -0.8916
    4SAPS  C313  514   2.583   2.544   4.691  0.2139  0.2841 -0.2991
    4SAPS  H13X  515   2.598   2.441   4.729  3.0084 -0.1927 -2.5755
    4SAPS  H13Y  516   2.681   2.597   4.691  0.2447  0.2251  0.1518
    4SAPS  C314  517   2.535   2.543   4.544 -0.2747  0.1848  0.8343
    4SAPS  H14X  518   2.465   2.458   4.528 -0.3434  0.1439  1.3541
    4SAPS  H14Y  519   2.629   2.520   4.490 -1.3213 -0.1635 -0.8925
    4SAPS  C315  520   2.488   2.676   4.494 -0.4289  0.4140 -0.2452
    4SAPS  H15X  521   2.556   2.753   4.536  0.6039 -0.0830 -0.9668
    4SAPS  H15Y  522   2.382   2.689   4.524 -1.4986  0.8075 -3.8910
    4SAPS  C316  523   2.495   2.695   4.338  0.0955 -0.2120 -0.0661
    4SAPS  H16X  524   2.598   2.670   4.306 -0.0896  0.3976 -1.1619
    4SAPS  H16Y  525   2.475   2.798   4.301  2.6838  0.5314  0.5065
    4SAPS  C317  526   2.396   2.604   4.261  0.2661  0.4486 -0.3176
    4SAPS  H17X  527   2.400   2.504   4.310  0.5434  0.3095 -0.6235
    4SAPS  H17Y  528   2.428   2.608   4.155  0.9056  1.1983 -0.1013
    4SAPS  C318  529   2.262   2.656   4.277 -0.3725 -0.3246 -0.1175
    4SAPS  H18X  530   2.193   2.611   4.202 -2.9187  3.4409 -0.1893
    4SAPS  H18Y  531   2.269   2.767   4.264 -1.5455  0.0533  2.2233
    4SAPS  H18Z  532   2.226   2.624   4.377 -0.7607  0.9635  0.1718
    5SAPS     N  533   5.994   4.704   6.217  0.4061  0.1717 -0.1992
    5SAPS   HN1  534   6.022   4.803   6.232  2.1804 -0.5416  1.3863
    5SAPS   HN2  535   5.999   4.680   6.117  0.9649 -0.0104 -0.1274
    5SAPS   HN3  536   5.895   4.691   6.246  0.8669  2.0321  2.4412
    5SAPS   C12  537   6.070   4.601   6.289 -0.8635  0.1383 -0.4238
    5SAPS  H12A  538   6.172   4.613   6.254 -0.6055  0.9948  0.5918
    5SAPS   C13  539   6.052   4.603   6.439 -0.7780 -0.1968  0.4219
    5SAPS  O13A  540   6.001   4.706   6.487 -0.0450  0.0828 -0.5321
    5SAPS  O13B  541   6.107   4.515   6.512  0.0823  0.3546 -1.2625
    5SAPS   C11  542   6.032   4.457   6.243  0.3869 -0.2933 -0.8680
    5SAPS  H11A  543   5.942   4.419   6.295  1.3589  0.2216  1.2759
    5SAPS  H11B  544   6.110   4.391   6.286 -0.5615 -0.9670 -0.1751
    5SAPS     P  545   6.011   4.318   6.022 -0.3682 -0.0605  0.1785
    5SAPS   O13  546   6.126   4.286   5.929 -0.1324 -0.2422 -0.6164
    5SAPS   O14  547   5.977   4.216   6.123 -0.4023  0.0869 -0.4581
    5SAPS   O12  548   6.037   4.453   6.100 -0.7184  0.0671 -0.3433
    5SAPS   O11  549   5.882   4.343   5.930  0.0382  0.4926  0.5370
    5SAPS    C1  550   5.769   4.407   5.997  0.5199 -0.0975  0.4566
    5SAPS    HA  551   5.766   4.374   6.103  1.0948 -0.0452  0.4915
    5SAPS    HB  552   5.794   4.515   5.992 -3.0747  0.7646  0.1994
    5SAPS    C2  553   5.636   4.387   5.923  0.4781 -0.6974  0.7366
    5SAPS    HS  554   5.566   4.447   5.985  1.9426  1.4468  0.3334
    5SAPS   O21  555   5.599   4.249   5.901 -0.7992  0.2015  0.3850
    5SAPS   C21  556   5.550   4.185   6.010  0.4747  0.0595 -0.4521
    5SAPS   O22  557   5.538   4.233   6.122  0.6540  0.7285  0.3473
    5SAPS   C22  558   5.509   4.046   5.963  0.1462  0.0464  0.0963
    5SAPS   H2R  559   5.425   4.012   6.028 -0.6423  0.6674 -0.5904
    5SAPS   H2S  560   5.457   4.068   5.868 -0.8888  2.1688  1.1129
    5SAPS    C3  561   5.640   4.450   5.778  0.1003  0.2100  0.1482
    5SAPS    HX  562   5.654   4.560   5.783  1.7817 -0.0371  1.4123
    5SAPS    HY  563   5.542   4.438   5.728 -0.0066 -0.2118  0.4535
    5SAPS   O31  564   5.743   4.400   5.699 -0.1325 -0.0215 -0.3302
    5SAPS   C31  565   5.856   4.465   5.678  0.2185  0.4587 -0.3597
    5SAPS   O32  566   5.885   4.569   5.730 -0.0312  0.1528  0.0470
    5SAPS   C32  567   5.952   4.383   5.591  0.1035 -0.0460 -0.5093
    5SAPS   H2X  568   5.954   4.286   5.645 -1.1620  0.2436  0.0708
    5SAPS   H2Y  569   6.052   4.431   5.593 -0.8325  1.8864  1.6811
    5SAPS   C23  570   5.616   3.940   5.947 -0.4205 -0.0283  0.0293
    5SAPS   H3R  571   5.569   3.849   5.989 -1.3576 -0.3243 -1.6215
    5SAPS   H3S  572   5.698   3.962   6.019  0.3408  0.1311 -0.8788
    5SAPS   C24  573   5.658   3.915   5.796 -0.2109  0.2331 -0.7326
    5SAPS   H4R  574   5.572   3.883   5.734  0.3560  0.5653 -1.6931
    5SAPS   H4S  575   5.730   3.831   5.788 -0.2646  0.0927  0.1953
    5SAPS   C25  576   5.727   4.032   5.735  0.2601  0.6563  0.3676
    5SAPS   H5R  577   5.781   4.100   5.804 -2.2618  0.0134  3.0389
    5SAPS   C26  578   5.747   4.054   5.610 -0.8355 -0.7312 -0.1444
    5SAPS   H6R  579   5.816   4.136   5.585 -0.2922 -0.5479  1.8508
    5SAPS   C27  580   5.698   3.981   5.493  0.0495 -0.4616  0.0373
    5SAPS   H7R  581   5.645   4.043   5.416 -2.0667 -1.2598  0.8081
    5SAPS   H7S  582   5.618   3.911   5.524 -0.3325  0.0499  0.2285
    5SAPS   C28  583   5.814   3.906   5.431 -0.1791  0.3268 -0.4168
    5SAPS   H8R  584   5.840   3.802   5.454 -2.6621 -0.1108  0.5840
    5SAPS   C29  585   5.875   3.942   5.312  0.0951  0.2603 -0.6985
    5SAPS   H9R  586   5.958   3.877   5.283 -0.5636 -0.7987 -0.2586
    5SAPS  C210  587   5.846   4.070   5.241 -0.3652 -0.6719 -0.6300
    5SAPS  H10R  588   5.814   4.152   5.310  1.0490 -0.1106 -0.6295
    5SAPS  H10S  589   5.753   4.047   5.185  0.2813 -0.5497 -1.7629
    5SAPS  C211  590   5.963   4.125   5.158  0.1759 -0.5695  0.2849
    5SAPS  H11R  591   6.049   4.153   5.222  1.4293 -0.8730 -1.2292
    5SAPS  C212  592   5.967   4.166   5.030 -0.1351 -0.4500  0.9395
    5SAPS  H12R  593   6.064   4.201   4.992 -1.5319  0.8913 -1.5258
    5SAPS  C213  594   5.853   4.166   4.936  0.3904  0.2437  0.1358
    5SAPS  H13R  595   5.839   4.257   4.874 -1.0682  1.3052  1.9363
    5SAPS  H13S  596   5.759   4.169   4.996 -1.5571 -0.4124 -2.7723
    5SAPS  C214  597   5.847   4.044   4.845 -0.5315 -0.0831 -0.4332
    5SAPS  H14R  598   5.766   3.972   4.860  2.0538 -2.4542  2.8540
    5SAPS  C215  599   5.918   4.029   4.734  0.1013  0.9336  0.1101
    5SAPS  H15R  600   5.908   3.939   4.673  1.7224  0.0195  1.1621
    5SAPS  C216  601   6.009   4.137   4.686 -0.4061  0.9404  1.5512
    5SAPS  H16R  602   6.058   4.197   4.766  1.2132  2.4857 -0.5557
    5SAPS  H16S  603   5.963   4.199   4.607 -0.0188 -2.6392 -1.6191
    5SAPS  C217  604   6.139   4.069   4.628  0.0552  0.0953  0.5651
    5SAPS  H17R  605   6.111   3.995   4.551  1.1772 -0.7635  0.9745
    5SAPS  H17S  606   6.185   4.007   4.708 -1.3401  0.6233  1.8208
    5SAPS  C218  607   6.237   4.170   4.582  0.0212 -0.3187 -0.1041
    5SAPS  H18R  608   6.290   4.214   4.670 -0.0323  2.2959 -1.3178
    5SAPS  H18S  609   6.174   4.252   4.540  0.2088  0.0054  0.2455
    5SAPS  C219  610   6.326   4.127   4.465  0.2175 -0.1923 -0.9216
    5SAPS  H19R  611   6.270   4.075   4.384 -1.5448 -3.6772  2.3581
    5SAPS  H19S  612   6.405   4.062   4.509 -0.4872  0.7580  1.8878
    5SAPS  C220  613   6.408   4.247   4.401 -0.0471  0.4492 -0.6105
    5SAPS  H20R  614   6.479   4.198   4.330  0.2559  1.3235 -0.9142
    5SAPS  H20S  615   6.472   4.288   4.482 -1.4934  1.9742 -0.2323
    5SAPS  H20T  616   6.337   4.311   4.345  0.3679  1.2889 -0.1924
    5SAPS   C33  617   5.886   4.373   5.455  0.1245  0.2606 -0.4551
    5SAPS   H3X  618   5.778   4.345   5.447  0.1832  0.0279 -0.4381
    5SAPS   H3Y  619   5.943   4.304   5.390  0.8474 -1.1157  1.5844
    5SAPS   C34  620   5.908   4.500   5.373  0.2872  0.0733 -0.0631
    5SAPS   H4X  621   6.006   4.545   5.400  0.4215  0.5361 -1.2882
    5SAPS   H4Y  622   5.832   4.578   5.399 -1.1464 -0.4154 -2.6326
    5SAPS   C35  623   5.916   4.482   5.226  0.4155 -0.5051 -0.0114
    5SAPS   H5X  624   5.817   4.440   5.196  0.7311 -0.5690 -0.9985
    5SAPS   H5Y  625   5.990   4.403   5.201  1.2830  0.9629 -2.2571
    5SAPS   C36  626   5.946   4.615   5.142 -0.3184 -0.0011  0.2737
    5SAPS   H6X  627   6.048   4.642   5.176  0.2221  0.9378 -2.0011
    5SAPS   H6Y  628   5.869   4.685   5.180  0.3054  0.1853  1.2149
    5SAPS   C37  629   5.939   4.595   4.990  0.5062 -0.1090 -0.1692
    5SAPS   H7X  630   5.836   4.558   4.974  0.8309 -1.6575  1.2200
    5SAPS   H7Y  631   6.011   4.518   4.955  1.0800 -0.7927  2.4576
    5SAPS   C38  632   5.964   4.723   4.911  0.2312 -0.1590  0.4270
    5SAPS   H8X  633   6.043   4.780   4.964 -0.5692  0.4850  0.9421
    5SAPS   H8Y  634   5.882   4.796   4.925  0.5881  0.0692  1.3866
    5SAPS   C39  635   5.985   4.695   4.760 -0.2688 -0.1025  0.2214
    5SAPS   H9X  636   5.970   4.787   4.699 -1.9953 -1.3586 -1.3093
    5SAPS   H9Y  637   5.921   4.616   4.715  0.6403 -0.3592 -0.6446
    5SAPS  C310  638   6.133   4.655   4.729 -0.3007  0.6745  0.7347
    5SAPS  H10X  639   6.164   4.591   4.814 -1.8925  2.7907  2.9766
    5SAPS  H10Y  640   6.202   4.742   4.729 -1.9234  1.9942  0.4272
    5SAPS  C311  641   6.163   4.572   4.608  0.0339  0.0166  0.0014
    5SAPS  H11X  642   6.106   4.477   4.599  1.5945 -0.9931  0.4615
    5SAPS  H11Y  643   6.270   4.540   4.604  0.5504  1.7924 -0.8168
    5SAPS  C312  644   6.141   4.649   4.475  0.1286  0.1555 -0.4060
    5SAPS  H12X  645   6.231   4.714   4.480  1.0980 -1.0784 -1.5802
    5SAPS  H12Y  646   6.043   4.701   4.481 -0.0136  0.0682 -1.8049
    5SAPS  C313  647   6.142   4.565   4.347 -0.4278  0.0370 -0.1026
    5SAPS  H13X  648   6.049   4.506   4.362 -1.9102  2.4891  0.7377
    5SAPS  H13Y  649   6.234   4.503   4.347  0.6834  1.6707 -1.1284
    5SAPS  C314  650   6.126   4.646   4.211 -0.6740 -0.7483 -0.3828
    5SAPS  H14X  651   6.123   4.564   4.136 -0.2993 -1.2077  0.0996
    5SAPS  H14Y  652   6.212   4.714   4.192 -1.3440 -0.3796 -2.1219
    5SAPS  C315  653   5.996   4.732   4.212  0.4932 -0.9098 -0.0234
    5SAPS  H15X  654   6.000   4.807   4.294  1.0759 -0.5097 -0.4150
    5SAPS  H15Y  655   5.924   4.655   4.250  0.5028 -0.1387  1.6143
    5SAPS  C316  656   5.950   4.797   4.083 -0.1721  0.0811 -0.0859
    5SAPS  H16X  657   5.955   4.721   4.002  0.9285  1.1732 -1.0643
    5SAPS  H16Y  658   6.016   4.881   4.054 -0.6540  1.2232  2.0054
    5SAPS  C317  659   5.806   4.859   4.094 -0.4790 -0.4893 -0.4844
    5SAPS  H17X  660   5.819   4.950   4.157 -0.1188 -0.9659  0.1362
    5SAPS  H17Y  661   5.736   4.787   4.142  0.5146 -1.8950 -1.1055
    5SAPS  C318  662   5.745   4.901   3.957  0.0243  0.6446  0.0249
    5SAPS  H18X  663   5.725   4.815   3.889  1.4934 -0.1071  0.5020
    5SAPS  H18Y  664   5.812   4.970   3.901  2.3694 -0.6749  1.1051
    5SAPS  H18Z  665   5.649   4.951   3.983  1.1513  2.0345  1.6265
    6SAPS     N  666   1.198   5.372   6.449  0.5982 -0.0234 -0.9552
    6SAPS   HN1  667   1.218   5.389   6.348  1.5543 -1.6625 -1.0568
    6SAPS   HN2  668   1.285   5.358   6.503 -0.4386 -0.2472  0.6743
    6SAPS   HN3  669   1.154   5.278   6.459  0.7586  0.0019 -0.0508
    6SAPS   C12  670   1.115   5.480   6.502  0.5615 -0.0366 -0.3124
    6SAPS  H12A  671   1.013   5.454   6.477  0.9809 -1.0851 -1.0066
    6SAPS   C13  672   1.108   5.473   6.660  0.0814 -0.1068  0.1531
    6SAPS  O13A  673   1.156   5.375   6.724 -0.2504  0.0149  0.1180
    6SAPS  O13B  674   1.043   5.567   6.717 -0.1219 -0.0917 -0.3117
    6SAPS   C11  675   1.162   5.623   6.440  0.2767 -0.8053  0.0379
    6SAPS  H11A  676   1.263   5.657   6.472  0.7537 -0.0688 -2.1401
    6SAPS  H11B  677   1.093   5.699   6.480  1.0246 -0.3938  0.5518
    6SAPS     P  678   1.123   5.755   6.220 -0.0848 -0.3374 -0.1633
    6SAPS   O13  679   0.986   5.794   6.258 -0.2839  0.0518  0.3178
    6SAPS   O14  680   1.236   5.844   6.254 -0.3043  0.3679  0.3415
    6SAPS   O12  681   1.148   5.619   6.292 -0.8888 -0.0696 -0.1060
    6SAPS   O11  682   1.133   5.722   6.069  0.2799 -0.1612 -0.0437
    6SAPS    C1  683   1.113   5.596   6.012 -0.5617 -0.0825 -0.5283
    6SAPS    HA  684   1.182   5.519   6.052 -0.5636 -0.4121 -1.1573
    6SAPS    HB  685   1.014   5.566   6.052 -0.9761  0.4650 -1.1330
    6SAPS    C2  686   1.115   5.599   5.863  0.7938  0.1574  0.4110
    6SAPS    HS  687   1.085   5.496   5.834  0.6146  0.4667 -0.5275
    6SAPS   O21  688   1.250   5.615   5.817 -0.3820 -0.0090  0.5501
    6SAPS   C21  689   1.273   5.574   5.691  0.7415 -0.6805  0.3220
    6SAPS   O22  690   1.203   5.496   5.628  0.1298 -0.2004  0.4181
    6SAPS   C22  691   1.395   5.632   5.634 -1.1388  0.0644 -0.0915
    6SAPS   H2R  692   1.483   5.591   5.688 -2.0154 -0.6777  0.7721
    6SAPS   H2S  693   1.394   5.588   5.532 -0.1880 -0.9575  0.3307
    6SAPS    C3  694   1.026   5.715   5.801 -0.0443 -0.3842 -0.3499
    6SAPS    HX  695   1.088   5.805   5.824 -0.8080  0.8244 -2.8739
    6SAPS    HY  696   0.939   5.714   5.870  0.7555 -0.6885  0.6837
    6SAPS   O31  697   0.998   5.695   5.660 -0.2094 -0.0634 -0.7011
    6SAPS   C31  698   0.899   5.605   5.629 -0.0612 -0.5278  0.0892
    6SAPS   O32  699   0.821   5.554   5.706 -0.8110  0.4700  0.1357
    6SAPS   C32  700   0.890   5.585   5.477  0.2282  0.1644  0.0663
    6SAPS   H2X  701   0.973   5.640   5.429 -1.5281  1.9473 -0.9951
    6SAPS   H2Y  702   0.792   5.634   5.456  0.6398  0.9254 -0.0799
    6SAPS   C23  703   1.395   5.794   5.625  0.2420  0.2023  0.4862
    6SAPS   H3R  704   1.489   5.832   5.579 -0.0772  1.3751  0.7846
    6SAPS   H3S  705   1.391   5.834   5.728  2.1339 -2.0759  1.5126
    6SAPS   C24  706   1.275   5.851   5.543  0.1621  0.2678 -0.0084
    6SAPS   H4R  707   1.315   5.954   5.539  2.5277 -0.5961  0.6749
    6SAPS   H4S  708   1.188   5.845   5.613  0.5895  1.4505  0.6360
    6SAPS   C25  709   1.253   5.802   5.398 -0.2298  0.1023  1.2211
    6SAPS   H5R  710   1.209   5.702   5.389  2.9039 -1.1042 -1.5768
    6SAPS   C26  711   1.264   5.869   5.282 -0.3595 -0.1228  0.0371
    6SAPS   H6R  712   1.234   5.819   5.189 -2.9276  1.0038  0.2301
    6SAPS   C27  713   1.305   6.009   5.281  0.0841 -0.2846 -0.1741
    6SAPS   H7R  714   1.415   6.011   5.294 -0.0044 -0.7216  0.6428
    6SAPS   H7S  715   1.268   6.069   5.367  2.4688  0.9352  0.0513
    6SAPS   C28  716   1.267   6.075   5.151  0.6235 -0.2652 -0.7636
    6SAPS   H8R  717   1.195   6.158   5.158  1.1647  0.2430 -1.0985
    6SAPS   C29  718   1.314   6.048   5.029 -0.0280  0.0264 -0.2328
    6SAPS   H9R  719   1.278   6.108   4.945  0.5718  2.1588  1.0112
    6SAPS  C210  720   1.413   5.937   4.999  0.0403 -0.0065 -0.1835
    6SAPS  H10R  721   1.375   5.853   4.936  2.4320 -0.5090 -0.9889
    6SAPS  H10S  722   1.448   5.886   5.092  1.2855  0.6166 -0.3048
    6SAPS  C211  723   1.534   5.985   4.918 -0.2553 -0.1546 -0.3192
    6SAPS  H11R  724   1.632   5.990   4.968 -1.0094 -1.7821  1.3830
    6SAPS  C212  725   1.537   6.027   4.793 -0.6310 -0.1725 -0.1684
    6SAPS  H12R  726   1.634   6.048   4.746  0.2413 -3.2382  0.1427
    6SAPS  C213  727   1.419   6.036   4.697  0.4833 -0.5056  0.7994
    6SAPS  H13R  728   1.327   5.985   4.733  0.2529 -0.7173 -0.0845
    6SAPS  H13S  729   1.452   5.979   4.608 -1.0104 -1.3770  0.7789
    6SAPS  C214  730   1.395   6.187   4.670 -0.6299 -0.5144  0.0336
    6SAPS  H14R  731   1.354   6.244   4.754  2.0211 -1.4998  2.0703
    6SAPS  C215  732   1.427   6.253   4.553 -0.0038 -0.3278  0.3872
    6SAPS  H15R  733   1.401   6.359   4.551 -0.1553 -0.4049 -2.2587
    6SAPS  C216  734   1.491   6.184   4.433  0.1639 -0.4941 -0.4764
    6SAPS  H16R  735   1.449   6.084   4.412 -1.7318 -0.3237  2.2208
    6SAPS  H16S  736   1.600   6.166   4.446  0.1066  0.7220  2.0700
    6SAPS  C217  737   1.463   6.251   4.299 -0.2065  0.3700  0.0594
    6SAPS  H17R  738   1.488   6.177   4.220  1.6722  0.9681  0.0706
    6SAPS  H17S  739   1.519   6.346   4.281  1.0999 -0.4343 -0.1760
    6SAPS  C218  740   1.314   6.285   4.275 -0.3088  0.4049  0.0074
    6SAPS  H18R  741   1.285   6.358   4.354 -1.0878 -1.0154  1.0578
    6SAPS  H18S  742   1.246   6.198   4.280  0.6648 -0.2867  1.5330
    6SAPS  C219  743   1.298   6.343   4.135  0.1448 -0.1267  0.7032
    6SAPS  H19R  744   1.270   6.260   4.066  1.9770 -0.0565 -0.1569
    6SAPS  H19S  745   1.400   6.380   4.112  0.0403 -0.2030  0.0891
    6SAPS  C220  746   1.182   6.439   4.120  0.4618  0.7275 -0.3334
    6SAPS  H20R  747   1.214   6.534   4.167 -0.1653  1.3425 -1.1252
    6SAPS  H20S  748   1.084   6.396   4.150 -0.4155  1.2054 -2.4545
    6SAPS  H20T  749   1.169   6.459   4.012  1.7149  2.4156 -0.1877
    6SAPS   C33  750   0.891   5.432   5.428 -0.0009 -0.8634 -0.6577
    6SAPS   H3X  751   0.827   5.369   5.492 -1.1133  3.5362  2.8391
    6SAPS   H3Y  752   0.980   5.374   5.458  1.1483  0.8252 -0.6930
    6SAPS   C34  753   0.876   5.416   5.274  0.0003 -0.2546  0.0264
    6SAPS   H4X  754   0.785   5.474   5.247  0.1799  0.5343  1.0940
    6SAPS   H4Y  755   0.866   5.307   5.251  0.3968 -0.5247  1.1098
    6SAPS   C35  756   0.999   5.461   5.194  0.2848 -0.2136 -0.7547
    6SAPS   H5X  757   1.026   5.567   5.214  3.8302 -1.5385  2.1774
    6SAPS   H5Y  758   0.974   5.438   5.088  0.7593 -2.3483 -0.4145
    6SAPS   C36  759   1.129   5.379   5.208  0.0063 -0.4376 -0.5519
    6SAPS   H6X  760   1.104   5.271   5.206 -1.8434 -0.0038 -2.3046
    6SAPS   H6Y  761   1.173   5.410   5.306 -1.5694 -0.0262  0.0335
    6SAPS   C37  762   1.239   5.402   5.100 -0.0921  0.2388  0.8481
    6SAPS   H7X  763   1.194   5.350   5.012 -0.3785 -1.7182  2.1110
    6SAPS   H7Y  764   1.333   5.347   5.126  2.6100  2.9748 -2.5715
    6SAPS   C38  765   1.259   5.540   5.039  0.9059  0.5209 -0.1522
    6SAPS   H8X  766   1.314   5.588   5.123  0.7686 -3.0744  2.1027
    6SAPS   H8Y  767   1.168   5.603   5.028  0.3942  0.3029  2.4743
    6SAPS   C39  768   1.346   5.536   4.912 -0.0675 -0.6084 -0.6903
    6SAPS   H9X  769   1.354   5.642   4.879 -3.1881 -0.3884 -0.8263
    6SAPS   H9Y  770   1.295   5.480   4.832 -1.7986  0.0038 -0.0450
    6SAPS  C310  771   1.488   5.474   4.926  0.0276  0.5998  0.0329
    6SAPS  H10X  772   1.467   5.371   4.963  0.5989  0.6831  0.6003
    6SAPS  H10Y  773   1.550   5.523   5.005  1.2805 -1.2169  0.2128
    6SAPS  C311  774   1.572   5.471   4.790 -0.2361 -0.2242  0.2287
    6SAPS  H11X  775   1.514   5.427   4.707  1.9891 -1.3521 -0.7661
    6SAPS  H11Y  776   1.661   5.408   4.808  0.1961  0.9029  2.2071
    6SAPS  C312  777   1.598   5.618   4.754  0.2505  0.3928  0.0334
    6SAPS  H12X  778   1.636   5.679   4.839 -0.2191  0.4434  0.2084
    6SAPS  H12Y  779   1.498   5.659   4.727 -0.0770 -0.2474  0.2595
    6SAPS  C313  780   1.701   5.629   4.639  0.0447 -0.6078 -0.0793
    6SAPS  H13X  781   1.781   5.552   4.652 -1.6823 -2.7620 -1.6860
    6SAPS  H13Y  782   1.754   5.726   4.632 -2.2426  0.5255 -2.3452
    6SAPS  C314  783   1.638   5.611   4.503  0.2385  0.9331 -0.4883
    6SAPS  H14X  784   1.575   5.519   4.507  1.9057 -0.1859  1.2468
    6SAPS  H14Y  785   1.714   5.602   4.423  1.1740  2.4697  0.2044
    6SAPS  C315  786   1.549   5.725   4.437 -0.4100  0.1656  0.7292
    6SAPS  H15X  787   1.601   5.821   4.415  1.2310 -0.6369  0.9757
    6SAPS  H15Y  788   1.465   5.755   4.502  1.1610  1.2934  2.2985
    6SAPS  C316  789   1.493   5.664   4.309 -0.1313 -0.3118 -0.7499
    6SAPS  H16X  790   1.433   5.573   4.334  0.3076 -1.4712 -3.7992
    6SAPS  H16Y  791   1.564   5.640   4.228 -0.9253  1.8768 -2.1469
    6SAPS  C317  792   1.406   5.763   4.227  0.3592  0.3567  0.0713
    6SAPS  H17X  793   1.461   5.851   4.186  0.0872  1.2099  1.4986
    6SAPS  H17Y  794   1.321   5.803   4.287 -1.2411 -1.3135 -1.0159
    6SAPS  C318  795   1.337   5.695   4.104 -0.3914 -0.1700  0.2875
    6SAPS  H18X  796   1.406   5.664   4.023  0.2134  0.8732  0.4040
    6SAPS  H18Y  797   1.256   5.764   4.071  0.6687  1.1283  0.3649
    6SAPS  H18Z  798   1.274   5.611   4.141 -0.7080 -0.2405 -0.4057
    7SAPS     N  799   2.450   7.121   6.497 -0.4384 -0.0904  0.2989
    7SAPS   HN1  800   2.453   7.032   6.550 -2.9707 -1.1004 -1.2098
    7SAPS   HN2  801   2.427   7.199   6.563 -0.9960 -1.4115  1.7004
    7SAPS   HN3  802   2.371   7.099   6.433  1.1989 -0.8539 -1.4966
    7SAPS   C12  803   2.577   7.145   6.418 -0.2556 -0.1175 -0.6903
    7SAPS  H12A  804   2.581   7.251   6.394  1.0727 -0.0108 -0.0391
    7SAPS   C13  805   2.707   7.101   6.497 -0.9981  0.0814  0.5971
    7SAPS  O13A  806   2.701   7.052   6.608  0.0079  0.0019  0.1613
    7SAPS  O13B  807   2.812   7.156   6.458  0.4314 -0.0813 -0.4221
    7SAPS   C11  808   2.567   7.061   6.293 -0.5077 -0.9304  0.4800
    7SAPS  H11A  809   2.599   6.959   6.323  2.4269 -0.6375 -1.4626
    7SAPS  H11B  810   2.645   7.085   6.217  0.1055 -0.6984  1.1786
    7SAPS     P  811   2.409   6.984   6.091 -0.1879  0.5190 -0.0190
    7SAPS   O13  812   2.433   6.844   6.120 -0.0147  0.1584 -0.9165
    7SAPS   O14  813   2.271   7.030   6.068 -0.2731 -0.7336 -0.5585
    7SAPS   O12  814   2.440   7.069   6.225 -0.5414 -0.3574 -0.1876
    7SAPS   O11  815   2.499   7.036   5.970 -0.2612 -0.4967  0.9708
    7SAPS    C1  816   2.520   7.172   5.964 -0.4292  0.5646 -0.6887
    7SAPS    HA  817   2.556   7.216   6.059  1.4514  0.2135 -1.2148
    7SAPS    HB  818   2.610   7.184   5.900 -0.2309 -1.9932 -0.9284
    7SAPS    C2  819   2.408   7.266   5.914 -0.3453 -0.4963  1.0268
    7SAPS    HS  820   2.319   7.253   5.980 -1.1500  1.3365  0.3374
    7SAPS   O21  821   2.381   7.218   5.784 -0.1151  0.6414 -0.7955
    7SAPS   C21  822   2.315   7.300   5.703  0.0828 -0.8789 -0.2183
    7SAPS   O22  823   2.231   7.381   5.740  0.0306 -0.3374 -0.2735
    7SAPS   C22  824   2.351   7.267   5.557 -0.2460  0.2228 -0.4613
    7SAPS   H2R  825   2.271   7.305   5.490  0.7388  2.1369 -0.5727
    7SAPS   H2S  826   2.434   7.337   5.538 -0.8347  0.5529 -1.8770
    7SAPS    C3  827   2.446   7.423   5.918 -0.2674  0.1537  0.6290
    7SAPS    HX  828   2.477   7.438   6.024  0.0286  3.2998  0.1384
    7SAPS    HY  829   2.354   7.486   5.920 -0.1712  0.3113  0.1861
    7SAPS   O31  830   2.543   7.473   5.834 -0.0656 -0.3477  0.8113
    7SAPS   C31  831   2.673   7.461   5.850 -0.0478 -0.0616 -0.1556
    7SAPS   O32  832   2.730   7.401   5.938  0.5569 -0.2931 -0.2497
    7SAPS   C32  833   2.743   7.528   5.734 -0.3459  0.3177  0.5403
    7SAPS   H2X  834   2.816   7.600   5.777 -1.6931  2.1687 -0.1829
    7SAPS   H2Y  835   2.668   7.586   5.675 -1.2900 -0.5785  0.8313
    7SAPS   C23  836   2.389   7.118   5.534  0.1919 -0.0123  0.2606
    7SAPS   H3R  837   2.303   7.057   5.569  0.1028  0.2892  0.5665
    7SAPS   H3S  838   2.487   7.110   5.588  2.2068  0.6280 -3.1568
    7SAPS   C24  839   2.409   7.078   5.385  0.0333 -0.3193  0.0724
    7SAPS   H4R  840   2.466   7.160   5.337 -1.4847  1.3796  1.0655
    7SAPS   H4S  841   2.306   7.086   5.344 -0.0874  2.7915  0.7955
    7SAPS   C25  842   2.478   6.945   5.372  0.1575 -0.2248  0.1749
    7SAPS   H5R  843   2.490   6.891   5.468  1.4257 -0.6230 -0.1954
    7SAPS   C26  844   2.528   6.891   5.260  1.0947  0.0974  0.5589
    7SAPS   H6R  845   2.592   6.802   5.267  1.2285  0.1371 -0.0987
    7SAPS   C27  846   2.533   6.948   5.126 -0.1946  0.3787  0.2631
    7SAPS   H7R  847   2.460   7.032   5.116  0.2195  0.5215 -2.0339
    7SAPS   H7S  848   2.482   6.865   5.071  0.8706  0.1040 -0.3229
    7SAPS   C28  849   2.669   6.983   5.061 -0.7315  0.2225 -0.8553
    7SAPS   H8R  850   2.738   6.898   5.070 -0.3651  0.6839  0.9837
    7SAPS   C29  851   2.718   7.100   5.007  0.7426 -0.7366 -0.2886
    7SAPS   H9R  852   2.820   7.102   4.967  0.7700 -0.6812 -0.2153
    7SAPS  C210  853   2.633   7.225   4.993  0.4686 -1.0958 -0.6914
    7SAPS  H10R  854   2.524   7.205   4.993 -0.0503  1.3856 -3.1990
    7SAPS  H10S  855   2.637   7.268   4.890 -0.1401 -1.1123 -0.7231
    7SAPS  C211  856   2.657   7.319   5.100 -0.0120 -0.4075 -0.0295
    7SAPS  H11R  857   2.619   7.298   5.201 -2.9606 -3.1024 -1.6138
    7SAPS  C212  858   2.729   7.433   5.082  0.2016 -0.0420  0.8417
    7SAPS  H12R  859   2.746   7.497   5.169 -2.6907  1.1718  0.5726
    7SAPS  C213  860   2.793   7.483   4.958 -0.1614  0.2102 -0.2396
    7SAPS  H13R  861   2.787   7.593   4.945 -0.4018  0.4239  1.5601
    7SAPS  H13S  862   2.747   7.438   4.867 -0.3845  1.1126 -0.5775
    7SAPS  C214  863   2.936   7.443   4.948 -0.8712 -0.0031  0.2066
    7SAPS  H14R  864   2.956   7.337   4.966 -2.0121 -0.2940 -0.2508
    7SAPS  C215  865   3.046   7.525   4.929 -0.5312  0.3453 -0.5866
    7SAPS  H15R  866   3.144   7.475   4.925 -1.1953 -1.1128  0.6668
    7SAPS  C216  867   3.050   7.676   4.917  0.0681  0.2837 -0.2766
    7SAPS  H16R  868   3.123   7.707   4.993 -0.4711 -3.9796  2.1451
    7SAPS  H16S  869   2.952   7.724   4.938  0.8357  0.9592  1.7742
    7SAPS  C217  870   3.092   7.731   4.775 -0.4627  0.9429 -0.4491
    7SAPS  H17R  871   3.048   7.673   4.691  1.1107  1.8092 -1.9048
    7SAPS  H17S  872   3.200   7.717   4.753 -0.4041  0.5968  0.0428
    7SAPS  C218  873   3.050   7.878   4.756 -0.0961 -0.6117  0.0580
    7SAPS  H18R  874   3.101   7.946   4.827  0.8474 -2.3677  1.0816
    7SAPS  H18S  875   2.943   7.892   4.779  0.4067 -1.4661  3.1092
    7SAPS  C219  876   3.085   7.932   4.613 -0.3364 -0.9073  0.2097
    7SAPS  H19R  877   3.194   7.937   4.593 -0.1889  0.7479  1.3521
    7SAPS  H19S  878   3.056   8.039   4.619 -1.2404 -1.1494  0.2113
    7SAPS  C220  879   3.020   7.856   4.502 -0.5161 -0.3311 -0.2317
    7SAPS  H20R  880   2.910   7.858   4.519 -0.6635  1.9919 -1.3550
    7SAPS  H20S  881   3.047   7.748   4.512 -1.4162 -0.7555 -2.0127
    7SAPS  H20T  882   3.036   7.895   4.399 -2.2550  1.8008  0.2793
    7SAPS   C33  883   2.819   7.419   5.654 -0.9419  0.3576 -0.0722
    7SAPS   H3X  884   2.861   7.340   5.719 -1.0906  1.2890  1.1676
    7SAPS   H3Y  885   2.901   7.459   5.590 -0.2979 -2.5007 -1.1003
    7SAPS   C34  886   2.730   7.334   5.561  0.4050  0.0330 -0.1584
    7SAPS   H4X  887   2.685   7.395   5.480 -0.0458 -1.3154 -0.9370
    7SAPS   H4Y  888   2.652   7.282   5.620 -0.0467 -1.0922 -1.7261
    7SAPS   C35  889   2.808   7.219   5.506 -0.3706 -0.1066 -0.2663
    7SAPS   H5X  890   2.748   7.135   5.464 -0.3512  0.4688 -1.4740
    7SAPS   H5Y  891   2.874   7.175   5.583  1.0391 -1.8739 -2.4214
    7SAPS   C36  892   2.904   7.263   5.401  0.2559  0.4398 -0.2945
    7SAPS   H6X  893   2.996   7.298   5.452  1.0537 -1.2559 -0.5137
    7SAPS   H6Y  894   2.860   7.351   5.350 -0.5172  0.6013  0.6487
    7SAPS   C37  895   2.952   7.148   5.301  0.5552  0.8086  0.4192
    7SAPS   H7X  896   2.860   7.131   5.241  0.2069 -1.4183  1.5321
    7SAPS   H7Y  897   2.985   7.057   5.356  0.4917  1.3756  1.3951
    7SAPS   C38  898   3.065   7.202   5.218 -0.7705  0.2306 -0.0060
    7SAPS   H8X  899   3.152   7.236   5.277 -2.4923  0.1159  2.6763
    7SAPS   H8Y  900   3.027   7.300   5.179  2.0391  1.1336 -0.6208
    7SAPS   C39  901   3.101   7.105   5.108 -0.5487  0.3927  0.0015
    7SAPS   H9X  902   3.011   7.092   5.044  0.9590 -1.8270 -1.7224
    7SAPS   H9Y  903   3.148   7.012   5.146 -0.2804  1.6291  2.8439
    7SAPS  C310  904   3.215   7.164   5.012 -0.3750 -0.1683  0.0959
    7SAPS  H10X  905   3.309   7.187   5.066 -1.4685 -0.5175  2.1929
    7SAPS  H10Y  906   3.176   7.260   4.971 -0.6960 -0.6434 -0.7298
    7SAPS  C311  907   3.259   7.077   4.894  0.1104  0.3394 -0.0862
    7SAPS  H11X  908   3.168   7.024   4.858  0.6160  0.7328 -1.9644
    7SAPS  H11Y  909   3.337   7.000   4.915 -0.3815 -0.7533 -2.1625
    7SAPS  C312  910   3.287   7.169   4.778 -0.1219  0.3918  0.0980
    7SAPS  H12X  911   3.350   7.112   4.706  0.2607 -1.5733  1.9608
    7SAPS  H12Y  912   3.359   7.247   4.811  0.8904  0.5866 -2.4416
    7SAPS  C313  913   3.159   7.225   4.719 -0.1661  0.3126  0.9576
    7SAPS  H13X  914   3.157   7.336   4.731 -0.5455  0.4504 -0.2373
    7SAPS  H13Y  915   3.061   7.190   4.758 -0.4497 -0.1515 -0.1566
    7SAPS  C314  916   3.138   7.186   4.573 -0.6938 -0.1497  0.2451
    7SAPS  H14X  917   3.037   7.221   4.541 -1.2308 -0.7281  1.2760
    7SAPS  H14Y  918   3.145   7.075   4.567 -1.4610 -0.1548 -0.6683
    7SAPS  C315  919   3.253   7.243   4.483 -0.5540 -0.4732  0.3152
    7SAPS  H15X  920   3.351   7.195   4.503 -1.1999 -0.5725  3.4703
    7SAPS  H15Y  921   3.265   7.349   4.515 -0.4172 -0.9262  1.7904
    7SAPS  C316  922   3.220   7.221   4.335 -0.3185  0.2161  0.1100
    7SAPS  H16X  923   3.144   7.294   4.298  1.0053  2.0057  0.8283
    7SAPS  H16Y  924   3.180   7.120   4.313 -0.2884 -0.4153  2.8615
    7SAPS  C317  925   3.346   7.253   4.242  0.0812 -0.9633 -0.3083
    7SAPS  H17X  926   3.423   7.176   4.264 -2.3570 -2.0593  5.3331
    7SAPS  H17Y  927   3.380   7.356   4.267  0.7619 -0.9172 -1.3956
    7SAPS  C318  928   3.309   7.266   4.095  0.0321 -0.2407 -0.6951
    7SAPS  H18X  929   3.244   7.353   4.072  1.7411  1.0286 -0.8415
    7SAPS  H18Y  930   3.258   7.176   4.056  0.2229 -0.9785  0.7225
    7SAPS  H18Z  931   3.402   7.280   4.036  0.3800  1.1049  0.1388
    8SAPS     N  932   2.076   7.183   6.164  0.4040  0.2080 -0.4176
    8SAPS   HN1  933   2.137   7.100   6.148  3.0308  1.4714  2.5700
    8SAPS   HN2  934   1.978   7.148   6.165  0.9520 -1.3745  0.9698
    8SAPS   HN3  935   2.085   7.251   6.086 -1.9893  0.5953 -0.3925
    8SAPS   C12  936   2.108   7.250   6.290 -0.6270 -0.2022  0.2338
    8SAPS  H12A  937   2.031   7.320   6.319  0.3802  2.0555 -2.2582
    8SAPS   C13  938   2.139   7.150   6.401  0.2382 -0.0726  0.7241
    8SAPS  O13A  939   2.165   7.030   6.379  0.0383  0.1681  0.2077
    8SAPS  O13B  940   2.164   7.203   6.512  0.1928 -0.3845  0.2133
    8SAPS   C11  941   2.233   7.344   6.261  0.0858 -0.1247  0.0534
    8SAPS  H11A  942   2.215   7.410   6.173 -1.3643  0.6239  0.9091
    8SAPS  H11B  943   2.316   7.275   6.233  2.9113  2.9104  0.6144
    8SAPS     P  944   2.376   7.546   6.364  0.3632 -0.2222  0.1022
    8SAPS   O13  945   2.355   7.637   6.476  0.0045 -0.1045  0.3735
    8SAPS   O14  946   2.517   7.506   6.346  0.0481  0.2340 -0.5957
    8SAPS   O12  947   2.277   7.424   6.369 -0.9907 -0.0039  0.3357
    8SAPS   O11  948   2.332   7.622   6.234 -0.4444  0.4273 -0.2502
    8SAPS    C1  949   2.392   7.747   6.211  0.3855 -0.3175  0.4910
    8SAPS    HA  950   2.452   7.787   6.295 -0.6017  3.0596 -0.3323
    8SAPS    HB  951   2.465   7.742   6.127  1.0930 -2.3725  1.1984
    8SAPS    C2  952   2.283   7.855   6.172 -0.3808  0.5712 -0.2223
    8SAPS    HS  953   2.209   7.854   6.255  0.2368  1.1979  0.3460
    8SAPS   O21  954   2.223   7.817   6.045  0.1748  0.2621 -0.2062
    8SAPS   C21  955   2.098   7.866   6.024  0.6677 -0.1322  0.8084
    8SAPS   O22  956   2.036   7.929   6.104 -0.5735  0.2583 -0.0832
    8SAPS   C22  957   2.058   7.835   5.876 -0.2391  0.7123 -0.1519
    8SAPS   H2R  958   2.147   7.831   5.810 -0.2280 -1.1424 -0.0644
    8SAPS   H2S  959   2.013   7.733   5.885  0.7750  0.2880  0.2287
    8SAPS    C3  960   2.349   8.001   6.165 -0.0706  0.1368  0.4496
    8SAPS    HX  961   2.385   8.014   6.269 -1.7302 -1.1115  1.2116
    8SAPS    HY  962   2.261   8.067   6.148 -1.0154 -1.4341 -1.0617
    8SAPS   O31  963   2.447   8.002   6.060 -0.2741 -0.4587 -0.0618
    8SAPS   C31  964   2.411   8.061   5.941  1.1122 -0.3875 -0.1513
    8SAPS   O32  965   2.305   8.119   5.921  0.2153  0.0040  0.3830
    8SAPS   C32  966   2.519   8.052   5.831  0.6979  0.3023  0.0043
    8SAPS   H2X  967   2.607   8.099   5.880  1.5710  0.1268 -1.3760
    8SAPS   H2Y  968   2.477   8.111   5.747  1.2062  0.9994  0.2392
    8SAPS   C23  969   1.944   7.930   5.822 -0.3546  0.6102  0.2399
    8SAPS   H3R  970   1.981   8.034   5.813 -1.5290  1.0247  0.1709
    8SAPS   H3S  971   1.864   7.938   5.899  0.5517 -0.0604  1.2690
    8SAPS   C24  972   1.888   7.885   5.689 -0.3390  0.7956  0.3369
    8SAPS   H4R  973   1.813   7.963   5.661  0.5364  0.9014 -1.8257
    8SAPS   H4S  974   1.816   7.805   5.716 -0.2538  1.1562  1.6894
    8SAPS   C25  975   1.976   7.835   5.578  0.0801 -0.5473  0.2274
    8SAPS   H5R  976   2.080   7.815   5.610 -0.1361 -0.9819  0.6703
    8SAPS   C26  977   1.934   7.830   5.453 -0.1251  1.0196  0.6148
    8SAPS   H6R  978   2.008   7.798   5.379 -0.3649 -0.8232  1.1368
    8SAPS   C27  979   1.800   7.867   5.394 -0.1147  0.3464 -0.4745
    8SAPS   H7R  980   1.727   7.901   5.471  1.1273  0.0965  0.8344
    8SAPS   H7S  981   1.758   7.780   5.339 -2.7127 -0.2338  2.3111
    8SAPS   C28  982   1.819   7.987   5.304 -0.5644  0.0766  0.7130
    8SAPS   H8R  983   1.868   8.070   5.357  0.2194  0.7808 -1.0978
    8SAPS   C29  984   1.817   7.981   5.169  0.4447 -0.3714  0.8010
    8SAPS   H9R  985   1.854   8.067   5.112 -0.4500 -0.8555 -0.5276
    8SAPS  C210  986   1.785   7.865   5.087 -0.1452  0.4732  0.4192
    8SAPS  H10R  987   1.726   7.786   5.138  0.6933 -0.5299 -0.1446
    8SAPS  H10S  988   1.887   7.820   5.079 -0.3396  0.0673  0.2203
    8SAPS  C211  989   1.731   7.892   4.948 -0.6088  0.7274 -0.2613
    8SAPS  H11R  990   1.634   7.943   4.941 -0.4247  1.1022 -0.1287
    8SAPS  C212  991   1.790   7.864   4.828  0.2206 -0.3430  0.0218
    8SAPS  H12R  992   1.748   7.904   4.735  1.6093  1.8033  0.2887
    8SAPS  C213  993   1.931   7.804   4.812 -0.1428 -0.3367 -0.6751
    8SAPS  H13R  994   1.939   7.765   4.709  0.2209  0.4523 -0.9493
    8SAPS  H13S  995   1.927   7.716   4.880 -1.6062 -0.2013 -0.5687
    8SAPS  C214  996   2.049   7.882   4.847  0.0582 -0.0659  0.4113
    8SAPS  H14R  997   2.038   7.962   4.921  1.4747 -0.3398  0.9245
    8SAPS  C215  998   2.166   7.863   4.789 -0.2936  1.1328  0.0836
    8SAPS  H15R  999   2.257   7.924   4.802 -1.3625  2.7828 -0.0555
    8SAPS  C216 1000   2.199   7.762   4.678  0.1581 -0.0862 -0.3439
    8SAPS  H16R 1001   2.122   7.682   4.666 -0.1660  0.2264 -0.3470
    8SAPS  H16S 1002   2.285   7.702   4.715 -0.1299 -0.1059  0.2964
    8SAPS  C217 1003   2.234   7.830   4.547 -0.1563  0.2862  0.9235
    8SAPS  H17R 1004   2.325   7.892   4.555  0.5097  0.0633 -3.4993
    8SAPS  H17S 1005   2.144   7.892   4.524  1.3177  1.9824 -0.4089
    8SAPS  C218 1006   2.261   7.738   4.425 -0.3158 -1.2146 -0.6094
    8SAPS  H18R 1007   2.164   7.694   4.392 -1.0302  1.1912 -1.7818
    8SAPS  H18S 1008   2.328   7.657   4.461  0.6444 -0.2800 -0.2600
    8SAPS  C219 1009   2.329   7.803   4.304 -0.4596  0.1336 -1.1834
    8SAPS  H19R 1010   2.399   7.883   4.336 -1.3298  0.9881 -1.3849
    8SAPS  H19S 1011   2.254   7.859   4.244 -0.1281  1.2928 -0.5427
    8SAPS  C220 1012   2.394   7.700   4.215 -0.2033 -0.3068  0.0441
    8SAPS  H20R 1013   2.444   7.624   4.279 -0.3240 -0.3907  0.0387
    8SAPS  H20S 1014   2.471   7.750   4.153  0.0472  1.7329  1.9454
    8SAPS  H20T 1015   2.320   7.647   4.150  0.4634  0.9340 -1.7716
    8SAPS   C33 1016   2.547   7.910   5.791  1.0296 -0.0619  0.0075
    8SAPS   H3X 1017   2.568   7.844   5.877  0.5807 -0.9974 -0.5909
    8SAPS   H3Y 1018   2.642   7.912   5.733  1.1136 -0.7230  0.1202
    8SAPS   C34 1019   2.448   7.846   5.701  0.9216 -0.4455 -0.5327
    8SAPS   H4X 1020   2.350   7.853   5.752 -0.2115  0.7447 -2.8012
    8SAPS   H4Y 1021   2.462   7.737   5.689 -1.3581 -1.0104  1.4474
    8SAPS   C35 1022   2.461   7.905   5.566 -0.3880 -0.4586 -0.2364
    8SAPS   H5X 1023   2.560   7.885   5.520  1.5062  0.9915  2.9895
    8SAPS   H5Y 1024   2.441   8.014   5.573 -1.9758 -0.8645  2.0551
    8SAPS   C36 1025   2.361   7.851   5.461  0.1506 -0.0015 -0.5259
    8SAPS   H6X 1026   2.261   7.859   5.508 -0.4860  3.2623 -2.3011
    8SAPS   H6Y 1027   2.381   7.745   5.433 -1.4112 -0.5587  0.4023
    8SAPS   C37 1028   2.369   7.942   5.334 -0.0392 -0.1928  0.6883
    8SAPS   H7X 1029   2.473   7.939   5.294 -0.0636 -1.4232  0.6944
    8SAPS   H7Y 1030   2.337   8.047   5.352 -1.0935 -0.4919  0.6075
    8SAPS   C38 1031   2.265   7.891   5.230 -0.1840  0.5140  0.0686
    8SAPS   H8X 1032   2.248   7.973   5.157 -0.3304  0.9569  0.5943
    8SAPS   H8Y 1033   2.168   7.865   5.276  0.3964 -1.9246 -0.0099
    8SAPS   C39 1034   2.315   7.763   5.153 -0.7603  0.5103 -0.1452
    8SAPS   H9X 1035   2.223   7.726   5.102 -1.9902 -1.2519  3.1761
    8SAPS   H9Y 1036   2.343   7.679   5.219  1.1136  0.4664 -0.9880
    8SAPS  C310 1037   2.427   7.797   5.053  0.8300  0.3836 -0.2222
    8SAPS  H10X 1038   2.521   7.823   5.106  0.3567  2.1239 -0.2054
    8SAPS  H10Y 1039   2.400   7.888   4.996 -2.2631 -0.9208 -0.9873
    8SAPS  C311 1040   2.453   7.692   4.946 -0.0229  0.0083 -0.2735
    8SAPS  H11X 1041   2.358   7.647   4.910  0.0207 -0.1511 -0.1913
    8SAPS  H11Y 1042   2.516   7.614   4.995  0.7487  0.6086 -0.3012
    8SAPS  C312 1043   2.540   7.748   4.828 -0.4535 -0.1676  0.1765
    8SAPS  H12X 1044   2.626   7.794   4.882  1.0970  0.5048 -2.7974
    8SAPS  H12Y 1045   2.497   7.841   4.785 -1.8471 -0.5373  0.7549
    8SAPS  C313 1046   2.575   7.654   4.717 -0.2551  0.3612 -0.0176
    8SAPS  H13X 1047   2.479   7.638   4.662 -0.1305  1.2125 -0.4923
    8SAPS  H13Y 1048   2.617   7.565   4.768 -0.4184  1.3209  1.8310
    8SAPS  C314 1049   2.671   7.720   4.614 -0.5736  0.0112 -0.3420
    8SAPS  H14X 1050   2.759   7.760   4.669  0.6071  0.5084 -2.5194
    8SAPS  H14Y 1051   2.612   7.802   4.567 -0.9514 -1.3784 -2.3539
    8SAPS  C315 1052   2.717   7.633   4.497  0.2637  0.8806  0.0906
    8SAPS  H15X 1053   2.763   7.690   4.414  2.8496 -0.7201  0.3969
    8SAPS  H15Y 1054   2.626   7.592   4.448  1.3731 -0.3483 -0.9722
    8SAPS  C316 1055   2.808   7.518   4.529 -0.4368 -0.2811 -0.0708
    8SAPS  H16X 1056   2.771   7.437   4.596 -0.4151 -0.3879 -0.1886
    8SAPS  H16Y 1057   2.900   7.561   4.574 -0.5336  0.1412 -0.2742
    8SAPS  C317 1058   2.863   7.446   4.404  0.0310 -0.2034 -0.7862
    8SAPS  H17X 1059   2.938   7.371   4.438 -0.2735  0.1819  0.7945
    8SAPS  H17Y 1060   2.927   7.515   4.344  0.7066  1.3935  1.6897
    8SAPS  C318 1061   2.757   7.385   4.316 -0.2008  0.7685  0.4447
    8SAPS  H18X 1062   2.689   7.465   4.282  0.4613  1.1872  0.0910
    8SAPS  H18Y 1063   2.695   7.324   4.385  1.1367 -1.5681 -0.3670
    8SAPS  H18Z 1064   2.804   7.316   4.243  0.2390  1.3715  0.1573
    9SAPS     N 1065   6.868   6.125   6.175  0.1243  0.3619  0.4384
    9SAPS   HN1 1066   6.843   6.218   6.136  0.3854  0.5696  0.7760
    9SAPS   HN2 1067   6.965   6.104   6.203 -0.3621 -1.0188  1.1464
    9SAPS   HN3 1068   6.840   6.051   6.107  2.3675  0.3314 -0.4829
    9SAPS   C12 1069   6.782   6.111   6.302  0.1530  0.5011  0.1657
    9SAPS  H12A 1070   6.742   6.010   6.299 -3.2983  1.7180  1.7660
    9SAPS   C13 1071   6.857   6.141   6.443  0.6478  0.1540 -0.1193
    9SAPS  O13A 1072   6.971   6.195   6.441  0.3710  0.0249  0.2033
    9SAPS  O13B 1073   6.807   6.124   6.549  0.5039 -0.1369 -0.8900
    9SAPS   C11 1074   6.659   6.205   6.288 -0.0486  0.3232  0.0162
    9SAPS  H11A 1075   6.678   6.303   6.240  0.4862  0.1786 -0.0698
    9SAPS  H11B 1076   6.615   6.215   6.389  1.9309  1.2558  0.8216
    9SAPS     P 1077   6.415   6.165   6.209  0.5253  0.3972 -0.1100
    9SAPS   O13 1078   6.371   6.132   6.345  0.4180  0.2803  0.3024
    9SAPS   O14 1079   6.385   6.304   6.165 -0.6006 -0.0799  0.2188
    9SAPS   O12 1080   6.572   6.146   6.196 -0.1672 -0.4231 -0.6464
    9SAPS   O11 1081   6.364   6.063   6.098  0.4810 -0.1276  0.2994
    9SAPS    C1 1082   6.449   5.984   6.018  0.6844 -0.5205  0.1616
    9SAPS    HA 1083   6.551   6.026   6.008  0.4902 -0.1426 -0.2621
    9SAPS    HB 1084   6.460   5.880   6.057 -0.3597 -0.8063 -0.2935
    9SAPS    C2 1085   6.399   5.972   5.874  0.1820 -0.0313 -0.5968
    9SAPS    HS 1086   6.487   5.962   5.806 -0.2217  1.5921 -1.3834
    9SAPS   O21 1087   6.314   6.086   5.840  0.1899 -0.5046 -0.4058
    9SAPS   C21 1088   6.378   6.194   5.803 -0.1272 -0.2572 -0.1023
    9SAPS   O22 1089   6.501   6.207   5.796  0.6852  0.2975 -0.1865
    9SAPS   C22 1090   6.274   6.307   5.811 -0.0614  0.4150 -0.0709
    9SAPS   H2R 1091   6.185   6.269   5.756 -1.3521  0.4361  1.9377
    9SAPS   H2S 1092   6.241   6.322   5.916  2.0312  1.2897  0.4790
    9SAPS    C3 1093   6.311   5.846   5.853 -0.3082 -0.2233 -0.7962
    9SAPS    HX 1094   6.230   5.861   5.927  0.0614 -0.1872 -0.3951
    9SAPS    HY 1095   6.374   5.759   5.880  0.8382  0.4263 -1.3399
    9SAPS   O31 1096   6.261   5.831   5.718 -0.6558  0.3152  0.1354
    9SAPS   C31 1097   6.347   5.784   5.633 -1.1643  0.5470  1.1645
    9SAPS   O32 1098   6.454   5.729   5.654 -0.1118  0.4064 -0.4142
    9SAPS   C32 1099   6.305   5.812   5.490  0.4733 -0.9204 -0.3182
    9SAPS   H2X 1100   6.199   5.789   5.469 -0.2558  2.0305 -0.1814
    9SAPS   H2Y 1101   6.373   5.753   5.424  0.9781 -0.2874 -0.3770
    9SAPS   C23 1102   6.310   6.448   5.755  0.9330 -0.4357  0.3275
    9SAPS   H3R 1103   6.363   6.444   5.657 -1.0811  0.7338 -0.8447
    9SAPS   H3S 1104   6.390   6.481   5.824  2.0474  0.5123 -1.3961
    9SAPS   C24 1105   6.181   6.522   5.730 -0.0999  0.0993 -0.0515
    9SAPS   H4R 1106   6.123   6.500   5.822 -0.3343  0.8308 -0.0210
    9SAPS   H4S 1107   6.133   6.477   5.640 -0.3491  1.9254 -0.8507
    9SAPS   C25 1108   6.193   6.668   5.711 -0.0481 -0.0810 -0.7562
    9SAPS   H5R 1109   6.187   6.727   5.804  0.7710 -1.0281 -0.0915
    9SAPS   C26 1110   6.211   6.725   5.590 -0.8086  0.0079 -0.5473
    9SAPS   H6R 1111   6.229   6.833   5.588 -1.8331  0.2318  1.2006
    9SAPS   C27 1112   6.236   6.654   5.462 -0.3540  0.6744 -0.1325
    9SAPS   H7R 1113   6.156   6.577   5.464  2.3226 -2.2162 -0.4142
    9SAPS   H7S 1114   6.330   6.595   5.452  0.0815  1.3407  0.0654
    9SAPS   C28 1115   6.225   6.734   5.335 -0.0376  0.1829  0.1890
    9SAPS   H8R 1116   6.313   6.797   5.319  0.0984 -0.0571 -0.0045
    9SAPS   C29 1117   6.128   6.732   5.240  0.2056 -0.3991 -0.4938
    9SAPS   H9R 1118   6.137   6.810   5.163  0.3805 -0.7244 -0.8046
    9SAPS  C210 1119   6.001   6.648   5.238 -0.1312 -0.9414 -0.0310
    9SAPS  H10R 1120   6.005   6.562   5.308 -1.1889 -2.3921 -1.6989
    9SAPS  H10S 1121   6.004   6.597   5.139  1.2211 -0.2269 -0.3736
    9SAPS  C211 1122   5.877   6.726   5.274  0.0240  0.1042 -0.2392
    9SAPS  H11R 1123   5.881   6.777   5.371 -3.0579 -1.0741  0.5845
    9SAPS  C212 1124   5.766   6.726   5.198  0.5224  0.2123  0.6412
    9SAPS  H12R 1125   5.675   6.780   5.231 -0.2961 -0.8162  0.0979
    9SAPS  C213 1126   5.749   6.651   5.072  0.6519  0.2417 -0.4883
    9SAPS  H13R 1127   5.840   6.661   5.010 -0.0468  0.0834 -1.5557
    9SAPS  H13S 1128   5.665   6.690   5.011 -0.5708 -0.1654  0.8895
    9SAPS  C214 1129   5.709   6.504   5.101 -0.1369 -0.3113 -0.3540
    9SAPS  H14R 1130   5.629   6.495   5.175  2.3422  2.7934  2.8838
    9SAPS  C215 1131   5.767   6.387   5.058  0.0165  0.3207  0.0624
    9SAPS  H15R 1132   5.719   6.295   5.096 -0.2161 -0.0738 -1.1545
    9SAPS  C216 1133   5.882   6.372   4.965 -0.4583  0.8626 -0.3364
    9SAPS  H16R 1134   5.894   6.264   4.942  1.1575  1.0994 -0.6522
    9SAPS  H16S 1135   5.977   6.397   5.018 -1.1925 -1.5693  2.2529
    9SAPS  C217 1136   5.874   6.432   4.827  0.1994 -0.8648 -0.7190
    9SAPS  H17R 1137   5.865   6.542   4.840  0.2320 -0.9586  0.1346
    9SAPS  H17S 1138   5.786   6.395   4.770  0.9766  0.2997 -2.7067
    9SAPS  C218 1139   6.007   6.425   4.737  0.4272 -0.6162  0.0292
    9SAPS  H18R 1140   6.024   6.321   4.702  2.9284 -0.9873  2.1926
    9SAPS  H18S 1141   6.091   6.447   4.806  0.5449  0.7761 -0.5581
    9SAPS  C219 1142   6.005   6.529   4.624  0.3763 -0.1750  0.3350
    9SAPS  H19R 1143   5.992   6.635   4.652  0.6031  0.4512 -1.8350
    9SAPS  H19S 1144   5.916   6.506   4.562  0.5628  1.8643 -0.7339
    9SAPS  C220 1145   6.125   6.526   4.534  0.0119 -0.3633  0.6549
    9SAPS  H20R 1146   6.167   6.429   4.502  0.5483 -0.1891  0.8369
    9SAPS  H20S 1147   6.213   6.566   4.587  1.3417 -0.3876 -1.4615
    9SAPS  H20T 1148   6.090   6.576   4.440 -0.6894  0.5330  1.3819
    9SAPS   C33 1149   6.333   5.963   5.452  0.9359  0.8555 -0.2434
    9SAPS   H3X 1150   6.436   5.997   5.475  0.7113  1.3885 -0.0195
    9SAPS   H3Y 1151   6.269   6.037   5.505  0.6559 -0.7987  1.8357
    9SAPS   C34 1152   6.323   5.976   5.302  0.3924 -0.3343 -0.4488
    9SAPS   H4X 1153   6.228   5.934   5.262 -0.3116 -0.1096  0.9522
    9SAPS   H4Y 1154   6.397   5.910   5.250  0.3808 -0.2771 -0.5369
    9SAPS   C35 1155   6.337   6.120   5.259  0.1335  0.1406  0.1972
    9SAPS   H5X 1156   6.257   6.180   5.306  1.7783  0.9283  2.0507
    9SAPS   H5Y 1157   6.300   6.122   5.154  4.2487 -0.5338 -1.3406
    9SAPS   C36 1158   6.478   6.175   5.251 -0.6368 -0.8652 -0.1869
    9SAPS   H6X 1159   6.527   6.144   5.156 -1.3783 -0.5782 -0.6689
    9SAPS   H6Y 1160   6.548   6.154   5.334  0.6195  3.4611 -0.0353
    9SAPS   C37 1161   6.477   6.332   5.249 -0.6817 -0.3734  0.0173
    9SAPS   H7X 1162   6.457   6.358   5.355 -1.1453 -0.6277 -0.0085
    9SAPS   H7Y 1163   6.400   6.374   5.181  0.7469 -0.8741 -1.9441
    9SAPS   C38 1164   6.620   6.389   5.215 -0.2433  0.8401 -0.4008
    9SAPS   H8X 1165   6.652   6.343   5.119 -0.0979 -3.2265  1.5263
    9SAPS   H8Y 1166   6.695   6.357   5.291 -0.4884 -0.7524 -0.8139
    9SAPS   C39 1167   6.645   6.539   5.186 -0.0096 -0.2738 -0.5743
    9SAPS   H9X 1168   6.755   6.553   5.174 -0.3332  2.0199 -1.0841
    9SAPS   H9Y 1169   6.608   6.606   5.267  1.8049  1.2881 -1.0031
    9SAPS  C310 1170   6.594   6.581   5.043 -0.5500  0.0775  0.8513
    9SAPS  H10X 1171   6.487   6.552   5.034  0.0316 -1.4100 -1.7199
    9SAPS  H10Y 1172   6.654   6.515   4.977 -1.0213 -0.5972  1.0923
    9SAPS  C311 1173   6.613   6.727   5.008  0.6231  0.1249  0.1531
    9SAPS  H11X 1174   6.721   6.749   5.022  0.4226 -0.3079  2.6099
    9SAPS  H11Y 1175   6.560   6.784   5.087 -0.5029 -1.7054  0.7571
    9SAPS  C312 1176   6.566   6.757   4.864 -0.3898  0.5746 -0.3677
    9SAPS  H12X 1177   6.621   6.694   4.791 -0.0888 -0.9087  1.0987
    9SAPS  H12Y 1178   6.600   6.860   4.840  1.2803  0.0919 -0.1107
    9SAPS  C313 1179   6.415   6.761   4.860  0.0521 -0.1888 -0.0231
    9SAPS  H13X 1180   6.386   6.827   4.944  4.0866 -1.6772  2.6236
    9SAPS  H13Y 1181   6.379   6.658   4.881 -0.8877  0.2072  0.3552
    9SAPS  C314 1182   6.355   6.819   4.733  0.2937 -0.1240 -0.4987
    9SAPS  H14X 1183   6.402   6.762   4.650  0.4685  0.0230 -0.5007
    9SAPS  H14Y 1184   6.392   6.923   4.725 -1.7793  0.8552  1.9453
    9SAPS  C315 1185   6.201   6.830   4.720 -0.2895 -0.1737 -0.5292
    9SAPS  H15X 1186   6.167   6.725   4.716  3.1084 -1.3627 -0.0934
    9SAPS  H15Y 1187   6.173   6.877   4.624 -1.6631  0.4330  0.1539
    9SAPS  C316 1188   6.130   6.895   4.840  0.2190 -0.3032  0.2151
    9SAPS  H16X 1189   6.174   6.996   4.856  1.0288 -0.4958 -0.7223
    9SAPS  H16Y 1190   6.147   6.839   4.935 -1.9157  1.4705  1.6946
    9SAPS  C317 1191   5.973   6.896   4.821  0.7379 -0.0387  0.4493
    9SAPS  H17X 1192   5.942   6.791   4.802  1.8223 -0.4276  0.7919
    9SAPS  H17Y 1193   5.953   6.948   4.725  0.6251 -1.9725 -0.6090
    9SAPS  C318 1194   5.881   6.971   4.930  0.3879 -0.6292 -0.0246
    9SAPS  H18X 1195   5.776   6.937   4.920  1.4543 -4.3835  1.0735
    9SAPS  H18Y 1196   5.904   7.079   4.918  0.6437 -0.5672  0.9489
    9SAPS  H18Z 1197   5.918   6.941   5.030  0.8997 -1.2986 -0.4154
   10SAPS     N 1198   0.486   7.092   6.218  0.7345  0.1484  0.5434
   10SAPS   HN1 1199   0.554   7.034   6.165  0.6785  0.7668 -0.2264
   10SAPS   HN2 1200   0.390   7.070   6.187  0.6892  3.2368 -1.7919
   10SAPS   HN3 1201   0.510   7.191   6.194  0.7677 -0.2811 -1.2732
   10SAPS   C12 1202   0.496   7.059   6.359 -0.9362 -1.2366 -0.7681
   10SAPS  H12A 1203   0.428   7.128   6.405  0.4230  1.0528 -2.0992
   10SAPS   C13 1204   0.452   6.915   6.395  0.0271 -0.3966  0.2998
   10SAPS  O13A 1205   0.374   6.857   6.314 -0.0357 -0.0538  0.5297
   10SAPS  O13B 1206   0.470   6.877   6.515 -0.5064 -0.2689 -0.1616
   10SAPS   C11 1207   0.641   7.076   6.403 -0.4736  0.0163  0.2727
   10SAPS  H11A 1208   0.687   6.998   6.339 -0.0594 -0.4812  1.1689
   10SAPS  H11B 1209   0.658   7.057   6.511 -0.3840 -2.3305 -0.1361
   10SAPS     P 1210   0.832   7.245   6.314  0.1200 -0.1973  0.2116
   10SAPS   O13 1211   0.815   7.313   6.182 -0.3265 -0.3949  0.3166
   10SAPS   O14 1212   0.899   7.330   6.418  0.3251  0.2852  0.0927
   10SAPS   O12 1213   0.694   7.210   6.366 -0.0943 -0.5208 -0.2191
   10SAPS   O11 1214   0.910   7.108   6.295  0.3645 -0.2395  0.7040
   10SAPS    C1 1215   0.972   7.077   6.173 -0.7001  0.0111 -0.1300
   10SAPS    HA 1216   0.905   7.075   6.085 -1.1557 -0.2405  0.2271
   10SAPS    HB 1217   1.052   7.149   6.144  0.3070 -1.1278 -0.2331
   10SAPS    C2 1218   1.034   6.942   6.185  0.5804  1.0270  0.0310
   10SAPS    HS 1219   1.105   6.948   6.270  0.8759  2.3965 -0.3064
   10SAPS   O21 1220   1.104   6.924   6.065 -0.5959  0.4133  0.0326
   10SAPS   C21 1221   1.186   6.823   6.064 -0.3497  0.0201 -0.2362
   10SAPS   O22 1222   1.224   6.756   6.163 -0.2936 -0.0728  0.2799
   10SAPS   C22 1223   1.238   6.804   5.916 -0.1290  0.1417  0.3546
   10SAPS   H2R 1224   1.304   6.714   5.920 -2.0309 -1.2149  2.0706
   10SAPS   H2S 1225   1.148   6.780   5.858  0.7735  1.0522 -1.4543
   10SAPS    C3 1226   0.923   6.835   6.203 -0.1312 -0.4590 -0.0278
   10SAPS    HX 1227   0.848   6.866   6.279  0.1275  0.1023  0.0031
   10SAPS    HY 1228   0.987   6.748   6.229  1.9527  0.0066 -3.2157
   10SAPS   O31 1229   0.863   6.793   6.074  0.1800  0.0625  0.2855
   10SAPS   C31 1230   0.750   6.846   6.047  0.0611  0.3820 -0.0418
   10SAPS   O32 1231   0.688   6.931   6.105  0.2808 -0.2256 -0.7499
   10SAPS   C32 1232   0.709   6.774   5.919 -0.4430 -0.1310 -0.2540
   10SAPS   H2X 1233   0.603   6.805   5.912  0.0383  1.6824  0.2391
   10SAPS   H2Y 1234   0.717   6.668   5.952  1.3242 -0.0836 -0.4706
   10SAPS   C23 1235   1.310   6.922   5.853 -0.6857 -0.5843 -0.2994
   10SAPS   H3R 1236   1.389   6.948   5.928 -0.9429  0.9989 -0.5610
   10SAPS   H3S 1237   1.246   7.012   5.840  0.2373  0.1092 -0.1278
   10SAPS   C24 1238   1.363   6.904   5.709  0.5401 -0.0996 -0.5094
   10SAPS   H4R 1239   1.297   6.837   5.649 -0.4022 -0.4688  0.8958
   10SAPS   H4S 1240   1.450   6.836   5.709  0.3591 -0.3377 -1.1276
   10SAPS   C25 1241   1.383   7.037   5.634 -0.7516 -0.3561 -0.1608
   10SAPS   H5R 1242   1.418   7.124   5.692  1.0304 -1.0917 -0.0858
   10SAPS   C26 1243   1.380   7.061   5.503 -0.1270 -0.1735 -0.0385
   10SAPS   H6R 1244   1.395   7.167   5.478 -1.7220 -0.5455 -2.7254
   10SAPS   C27 1245   1.357   6.969   5.391 -0.4878  0.1335  0.5902
   10SAPS   H7R 1246   1.266   6.997   5.333  1.1489  0.1798 -2.0369
   10SAPS   H7S 1247   1.324   6.872   5.434  1.9551 -0.6005  0.8863
   10SAPS   C28 1248   1.474   6.941   5.295  0.5650 -0.2996 -0.2474
   10SAPS   H8R 1249   1.554   6.875   5.333  1.4400  1.1668  0.4789
   10SAPS   C29 1250   1.490   7.011   5.181 -0.4181  0.3103 -0.2290
   10SAPS   H9R 1251   1.580   6.985   5.123 -0.0712 -0.5206  0.6732
   10SAPS  C210 1252   1.409   7.122   5.124 -0.1315 -0.1914  0.0827
   10SAPS  H10R 1253   1.485   7.201   5.103  0.8470 -0.9433  0.7541
   10SAPS  H10S 1254   1.336   7.170   5.194  0.0667  0.7696 -0.3571
   10SAPS  C211 1255   1.336   7.090   4.995 -0.1877  0.1600 -0.4098
   10SAPS  H11R 1256   1.226   7.097   4.989 -0.1272  2.8925  1.1624
   10SAPS  C212 1257   1.392   7.056   4.881  0.8766  0.1069  0.9648
   10SAPS  H12R 1258   1.325   7.050   4.794  1.6996 -0.1143  0.3391
   10SAPS  C213 1259   1.533   7.044   4.831 -0.4558  1.1415  0.1882
   10SAPS  H13R 1260   1.599   7.001   4.909 -1.1475  0.5152  0.4381
   10SAPS  H13S 1261   1.577   7.146   4.824  0.8297  0.9207  3.9983
   10SAPS  C214 1262   1.559   6.959   4.707 -0.6650 -0.3239  0.3565
   10SAPS  H14R 1263   1.487   6.877   4.697 -1.7129  0.7147 -0.7647
   10SAPS  C215 1264   1.668   6.975   4.627  1.1275  0.1276 -0.5248
   10SAPS  H15R 1265   1.677   6.907   4.541 -1.1826  1.8916 -2.2155
   10SAPS  C216 1266   1.788   7.063   4.639 -0.0191  0.2344  0.2454
   10SAPS  H16R 1267   1.813   7.086   4.745 -3.7960 -1.6230  1.6166
   10SAPS  H16S 1268   1.772   7.162   4.590  2.1115 -0.2315 -1.4501
   10SAPS  C217 1269   1.916   7.010   4.572 -0.1124 -0.2006  0.4133
   10SAPS  H17R 1270   1.932   6.910   4.618 -1.0055  0.4880  2.2854
   10SAPS  H17S 1271   2.002   7.075   4.599  0.2017 -1.3957  2.3964
   10SAPS  C218 1272   1.904   6.972   4.422 -0.2208  0.3152  0.0562
   10SAPS  H18R 1273   1.894   7.070   4.371  2.6229  0.5587 -0.1407
   10SAPS  H18S 1274   1.814   6.914   4.394 -0.5139  1.7629 -2.0563
   10SAPS  C219 1275   2.040   6.900   4.385  0.3482  0.0023  0.3356
   10SAPS  H19R 1276   2.048   6.804   4.441 -0.0565  1.1806  2.4719
   10SAPS  H19S 1277   2.120   6.961   4.431  0.0062  1.7046 -1.2840
   10SAPS  C220 1278   2.062   6.872   4.236  0.2893  0.5189  0.5085
   10SAPS  H20R 1279   2.154   6.818   4.207 -0.2439  0.7959 -1.7472
   10SAPS  H20S 1280   2.066   6.975   4.193  2.5189  0.4697  0.5684
   10SAPS  H20T 1281   1.979   6.809   4.197  0.3999  2.0235 -2.3025
   10SAPS   C33 1282   0.802   6.814   5.799  0.1752 -0.1115 -0.2441
   10SAPS   H3X 1283   0.736   6.778   5.717 -0.0634  1.1433 -0.6267
   10SAPS   H3Y 1284   0.892   6.750   5.793  0.3117 -0.2040  2.4328
   10SAPS   C34 1285   0.831   6.958   5.769 -0.2795 -1.0335 -0.5678
   10SAPS   H4X 1286   0.903   6.990   5.848 -1.5954  0.4402  0.0502
   10SAPS   H4Y 1287   0.741   7.023   5.768  0.2238 -0.3344 -0.8368
   10SAPS   C35 1288   0.905   6.974   5.634 -0.3071 -0.4607  0.2210
   10SAPS   H5X 1289   0.963   6.884   5.603  0.4802 -0.3847  1.4261
   10SAPS   H5Y 1290   0.977   7.059   5.636  1.1618 -1.6122 -1.4052
   10SAPS   C36 1291   0.804   6.996   5.520 -0.2366  0.5176 -0.2380
   10SAPS   H6X 1292   0.745   7.087   5.544  0.4189  0.4140  1.8864
   10SAPS   H6Y 1293   0.729   6.915   5.513  0.2826 -0.0570  0.6702
   10SAPS   C37 1294   0.871   7.011   5.382 -0.2330  1.2198 -0.3980
   10SAPS   H7X 1295   0.916   6.913   5.354  0.8777  0.2079  4.5285
   10SAPS   H7Y 1296   0.959   7.077   5.398  0.0999 -0.0164  3.1544
   10SAPS   C38 1297   0.767   7.059   5.278 -0.5260  0.5035  0.0420
   10SAPS   H8X 1298   0.740   7.163   5.307  1.4501  1.4122 -1.2908
   10SAPS   H8Y 1299   0.675   6.996   5.285 -1.1380  1.5173  1.4008
   10SAPS   C39 1300   0.821   7.073   5.132 -0.5203  0.3566  0.3833
   10SAPS   H9X 1301   0.866   6.979   5.094  0.4928  1.0322 -0.1237
   10SAPS   H9Y 1302   0.900   7.151   5.127 -2.1998  2.0502 -0.0552
   10SAPS  C310 1303   0.711   7.101   5.029  0.1357  0.1558 -0.5376
   10SAPS  H10X 1304   0.656   7.187   5.072  0.5670  0.5152 -0.7087
   10SAPS  H10Y 1305   0.641   7.015   5.038  0.4884 -0.1208 -0.3838
   10SAPS  C311 1306   0.754   7.108   4.878 -0.7018  0.1605 -0.0410
   10SAPS  H11X 1307   0.811   7.202   4.865  1.7215 -0.7155  3.5216
   10SAPS  H11Y 1308   0.661   7.101   4.817 -1.1146 -0.9329  0.6772
   10SAPS  C312 1309   0.867   7.003   4.833  0.9510  0.3918  0.0315
   10SAPS  H12X 1310   0.827   6.899   4.841  1.1629  0.0838 -2.6795
   10SAPS  H12Y 1311   0.960   7.013   4.892  0.6378 -0.0205  0.6080
   10SAPS  C313 1312   0.891   7.007   4.682 -0.5709  0.3840 -0.3252
   10SAPS  H13X 1313   0.797   7.005   4.622 -0.4705  4.1749 -0.7512
   10SAPS  H13Y 1314   0.959   6.922   4.660 -0.0111  0.7559 -0.0443
   10SAPS  C314 1315   0.957   7.143   4.646  1.2921 -0.1521  0.1463
   10SAPS  H14X 1316   1.050   7.156   4.706  0.0573  1.5053  1.7465
   10SAPS  H14Y 1317   0.887   7.227   4.665  2.1445  0.2585  1.5970
   10SAPS  C315 1318   0.988   7.156   4.497  0.4650 -0.1048 -0.0550
   10SAPS  H15X 1319   0.999   7.263   4.473  1.6027 -0.0740  0.5279
   10SAPS  H15Y 1320   0.902   7.113   4.442  0.9829 -1.9654  0.5102
   10SAPS  C316 1321   1.115   7.083   4.446 -0.7671 -0.5752 -0.0874
   10SAPS  H16X 1322   1.110   7.070   4.336 -0.2670 -1.1603 -0.0431
   10SAPS  H16Y 1323   1.105   6.987   4.501 -1.7484 -1.1057 -1.1728
   10SAPS  C317 1324   1.250   7.153   4.480  0.8658 -0.0305 -0.0370
   10SAPS  H17X 1325   1.262   7.148   4.590 -0.0484  0.0974  0.0720
   10SAPS  H17Y 1326   1.229   7.259   4.455 -0.3428 -0.0893  0.6662
   10SAPS  C318 1327   1.360   7.105   4.392  0.7133  0.2197  0.3725
   10SAPS  H18X 1328   1.444   7.174   4.414 -0.6348  2.2356 -0.6755
   10SAPS  H18Y 1329   1.335   7.109   4.284  0.5519 -1.7132  0.3260
   10SAPS  H18Z 1330   1.391   7.004   4.426  0.5591  0.2381  0.5732
   11SAPS     N 1331   3.426   2.842   2.176 -0.1258 -0.4020  0.1358
   11SAPS   HN1 1332   3.442   2.744   2.147 -1.0269 -0.7936  0.9265
   11SAPS   HN2 1333   3.523   2.873   2.199  0.0942 -1.2692  0.3989
   11SAPS   HN3 1334   3.365   2.838   2.260 -0.6869 -1.3083 -0.3145
   11SAPS   C12 1335   3.370   2.929   2.068 -0.6820  0.4013 -0.1634
   11SAPS  H12A 1336   3.439   2.917   1.987  0.0606  1.1354  0.3642
   11SAPS   C13 1337   3.229   2.895   2.015 -0.2534 -0.0914  0.2649
   11SAPS  O13A 1338   3.174   2.784   2.031  0.6293  0.3375  0.1936
   11SAPS  O13B 1339   3.173   2.980   1.936 -0.7277  0.8005  0.3902
   11SAPS   C11 1340   3.358   3.073   2.133 -0.3322 -0.3715 -0.0631
   11SAPS  H11A 1341   3.273   3.084   2.204 -0.7302 -3.3649  0.0020
   11SAPS  H11B 1342   3.333   3.135   2.045 -0.2294  2.3244  1.7509
   11SAPS     P 1343   3.516   3.257   2.225  0.1720 -0.4485  0.1187
   11SAPS   O13 1344   3.661   3.279   2.206 -0.0202 -0.1857  0.0696
   11SAPS   O14 1345   3.422   3.351   2.160  0.3212 -0.4336  0.1173
   11SAPS   O12 1346   3.479   3.109   2.189  0.2041 -0.0624  0.1573
   11SAPS   O11 1347   3.493   3.257   2.384  0.0523 -0.3518  0.2286
   11SAPS    C1 1348   3.552   3.143   2.447 -0.4422  0.2188 -0.3792
   11SAPS    HA 1349   3.493   3.053   2.417 -2.1094 -0.1395  3.7205
   11SAPS    HB 1350   3.655   3.122   2.411  0.6068  1.4031  1.8901
   11SAPS    C2 1351   3.569   3.149   2.603 -0.1089  0.0031  0.4751
   11SAPS    HS 1352   3.580   3.043   2.634 -0.6348 -0.2633 -0.2492
   11SAPS   O21 1353   3.457   3.215   2.661 -0.5333 -0.1649 -0.6957
   11SAPS   C21 1354   3.347   3.134   2.655 -0.2230  0.3667 -0.2876
   11SAPS   O22 1355   3.343   3.021   2.607 -0.2153  0.7327  0.4730
   11SAPS   C22 1356   3.239   3.211   2.734 -0.5938 -0.3707 -0.3629
   11SAPS   H2R 1357   3.212   3.312   2.695  1.8212  1.5490  2.7077
   11SAPS   H2S 1358   3.147   3.155   2.709  0.1990 -1.1022 -1.7602
   11SAPS    C3 1359   3.702   3.221   2.655 -0.2023 -0.1117  0.7237
   11SAPS    HX 1360   3.723   3.293   2.572  0.3877 -0.2817  0.7220
   11SAPS    HY 1361   3.782   3.144   2.645 -2.1771 -1.8474 -2.7379
   11SAPS   O31 1362   3.709   3.274   2.781 -0.0179  0.0077 -0.5651
   11SAPS   C31 1363   3.692   3.185   2.878 -0.1155 -0.4129 -0.8336
   11SAPS   O32 1364   3.691   3.064   2.862 -0.5168  0.1468  0.2039
   11SAPS   C32 1365   3.666   3.246   3.013 -0.5890 -0.2545 -0.0285
   11SAPS   H2X 1366   3.594   3.329   2.996 -0.3247  0.5085  2.3706
   11SAPS   H2Y 1367   3.759   3.279   3.064  1.0477 -0.9856 -2.4586
   11SAPS   C23 1368   3.270   3.229   2.882 -0.5055 -0.1037 -0.2940
   11SAPS   H3R 1369   3.377   3.253   2.897 -0.6517 -0.1169  0.8089
   11SAPS   H3S 1370   3.270   3.132   2.936  0.1310  1.1614  2.0444
   11SAPS   C24 1371   3.189   3.324   2.969 -0.7767  0.1772 -0.1040
   11SAPS   H4R 1372   3.237   3.316   3.069 -0.7137  1.4524 -0.0243
   11SAPS   H4S 1373   3.088   3.279   2.983 -0.3679 -0.8377 -0.4209
   11SAPS   C25 1374   3.181   3.471   2.931  0.2985  0.6604  0.7081
   11SAPS   H5R 1375   3.077   3.497   2.906  0.2707  0.4580  0.6120
   11SAPS   C26 1376   3.280   3.565   2.918  0.2942 -0.0026  0.2146
   11SAPS   H6R 1377   3.250   3.667   2.891  0.6025  0.5052  1.7421
   11SAPS   C27 1378   3.428   3.533   2.943  0.6964 -0.0373  0.0405
   11SAPS   H7R 1379   3.457   3.464   2.861 -1.2297 -1.4471  0.5078
   11SAPS   H7S 1380   3.427   3.484   3.042 -1.9699 -0.9179 -0.3752
   11SAPS   C28 1381   3.516   3.660   2.939 -0.2138 -0.8084  0.1781
   11SAPS   H8R 1382   3.487   3.731   2.861  0.5828 -0.7755 -0.0927
   11SAPS   C29 1383   3.632   3.685   3.004 -0.1181  1.1238 -0.0727
   11SAPS   H9R 1384   3.682   3.782   2.995  0.1385  0.9310 -0.7425
   11SAPS  C210 1385   3.691   3.592   3.104 -1.1715  0.0732 -0.6667
   11SAPS  H10R 1386   3.754   3.521   3.045 -1.9723 -0.3061 -1.0757
   11SAPS  H10S 1387   3.618   3.527   3.157  0.2767  1.3350  3.0167
   11SAPS  C211 1388   3.784   3.662   3.207  0.3383 -0.0759 -0.8207
   11SAPS  H11R 1389   3.726   3.730   3.271 -1.6292 -1.1906 -1.3833
   11SAPS  C212 1390   3.914   3.663   3.228 -0.3335 -0.3636  0.2717
   11SAPS  H12R 1391   3.963   3.727   3.303 -1.2392 -1.3274  1.7066
   11SAPS  C213 1392   4.018   3.591   3.144  0.7543  0.4647  0.5242
   11SAPS  H13R 1393   4.016   3.636   3.042  2.0619  2.6820  1.4387
   11SAPS  H13S 1394   3.979   3.487   3.138 -0.2566  0.7138  2.3300
   11SAPS  C214 1395   4.159   3.578   3.211  0.1506 -0.5326  0.1884
   11SAPS  H14R 1396   4.239   3.637   3.163  1.0961  0.0919  2.4875
   11SAPS  C215 1397   4.197   3.523   3.332  0.2019 -0.6035 -0.3977
   11SAPS  H15R 1398   4.300   3.540   3.364 -0.2259  2.3289 -0.4769
   11SAPS  C216 1399   4.100   3.454   3.430 -0.3276 -0.3246  0.0472
   11SAPS  H16R 1400   4.000   3.444   3.383 -0.9606  2.1505  0.7769
   11SAPS  H16S 1401   4.076   3.536   3.501 -1.1376 -0.8500  0.3833
   11SAPS  C217 1402   4.158   3.331   3.502  0.4530 -0.0383  0.1653
   11SAPS  H17R 1403   4.186   3.250   3.432  1.6954  0.7676 -0.2957
   11SAPS  H17S 1404   4.071   3.289   3.556 -0.6440  0.9888 -0.7903
   11SAPS  C218 1405   4.273   3.368   3.603  0.2842  0.1140  0.0552
   11SAPS  H18R 1406   4.259   3.474   3.630 -1.3445 -0.3374  1.0344
   11SAPS  H18S 1407   4.373   3.349   3.559  0.5461  0.3210  0.5576
   11SAPS  C219 1408   4.244   3.295   3.737  0.4409 -0.9036 -0.1994
   11SAPS  H19R 1409   4.245   3.184   3.726 -1.6570 -0.9185 -0.3623
   11SAPS  H19S 1410   4.144   3.333   3.767  1.3752  0.0358  1.7523
   11SAPS  C220 1411   4.349   3.333   3.841 -0.3073 -0.1330  0.0285
   11SAPS  H20R 1412   4.446   3.299   3.798 -0.7454 -0.0933 -1.0216
   11SAPS  H20S 1413   4.332   3.288   3.941  1.9372  0.2013  0.5796
   11SAPS  H20T 1414   4.362   3.439   3.868  4.2627 -0.9097  1.3846
   11SAPS   C33 1415   3.607   3.144   3.118  0.4211  0.7058 -0.4506
   11SAPS   H3X 1416   3.664   3.049   3.113  1.2342  1.1067  1.2194
   11SAPS   H3Y 1417   3.502   3.117   3.090  1.0349 -2.3800  0.0141
   11SAPS   C34 1418   3.610   3.194   3.262 -0.5943 -0.0506 -0.2871
   11SAPS   H4X 1419   3.704   3.253   3.276 -0.7525 -0.2351  1.7845
   11SAPS   H4Y 1420   3.621   3.105   3.328  1.2966  0.3201 -0.0598
   11SAPS   C35 1421   3.480   3.267   3.300  0.4474  0.4159  1.2522
   11SAPS   H5X 1422   3.469   3.360   3.240 -0.9128  0.2984  1.3148
   11SAPS   H5Y 1423   3.489   3.298   3.407 -1.3068  0.3196  1.4412
   11SAPS   C36 1424   3.358   3.177   3.286  0.0483 -0.1109  0.1478
   11SAPS   H6X 1425   3.379   3.074   3.321 -0.4759 -1.0966 -2.2798
   11SAPS   H6Y 1426   3.323   3.165   3.181  1.2500 -0.3028 -0.2394
   11SAPS   C37 1427   3.241   3.227   3.365  0.5733 -0.3784 -1.0678
   11SAPS   H7X 1428   3.212   3.322   3.315 -1.4326 -0.2339  0.3042
   11SAPS   H7Y 1429   3.276   3.257   3.467 -2.1278  1.5312 -0.6473
   11SAPS   C38 1430   3.119   3.134   3.359  0.0095  0.0166  0.6220
   11SAPS   H8X 1431   3.143   3.042   3.416  0.7759 -0.1501  0.0321
   11SAPS   H8Y 1432   3.100   3.100   3.255 -1.2103 -1.9391  1.4586
   11SAPS   C39 1433   2.995   3.198   3.415  0.6405 -0.1933 -0.0206
   11SAPS   H9X 1434   3.014   3.219   3.522 -0.2382 -0.7578  0.2514
   11SAPS   H9Y 1435   2.910   3.129   3.432 -0.7048  1.6120  0.7738
   11SAPS  C310 1436   2.944   3.323   3.341 -0.4618 -0.5200 -0.1607
   11SAPS  H10X 1437   2.962   3.315   3.231 -0.2772  0.6152 -0.2224
   11SAPS  H10Y 1438   3.004   3.414   3.365 -0.2448 -0.5794 -0.4681
   11SAPS  C311 1439   2.793   3.348   3.355 -0.1219  0.4670  0.6785
   11SAPS  H11X 1440   2.738   3.262   3.312  0.9999 -1.1841  2.4757
   11SAPS  H11Y 1441   2.762   3.437   3.296 -0.1029  1.0751  1.5638
   11SAPS  C312 1442   2.750   3.381   3.510 -0.9723 -0.0935 -0.7826
   11SAPS  H12X 1443   2.787   3.289   3.560  1.1947  2.1172  1.8391
   11SAPS  H12Y 1444   2.642   3.370   3.531 -0.4284 -1.4002  1.3931
   11SAPS  C313 1445   2.819   3.502   3.572  0.8454  0.1050  0.0663
   11SAPS  H13X 1446   2.797   3.586   3.501 -0.2299  1.2273  1.6986
   11SAPS  H13Y 1447   2.928   3.483   3.577  1.0333  0.8373 -1.0191
   11SAPS  C314 1448   2.765   3.558   3.710  0.3306 -0.2686  0.1729
   11SAPS  H14X 1449   2.754   3.472   3.779  0.7787 -0.4955 -0.0385
   11SAPS  H14Y 1450   2.663   3.599   3.692  0.1262 -0.9129 -0.1566
   11SAPS  C315 1451   2.844   3.661   3.788  0.4126 -0.1537  0.2794
   11SAPS  H15X 1452   2.857   3.749   3.721 -0.6078 -1.8636 -2.2541
   11SAPS  H15Y 1453   2.947   3.625   3.808  0.8016 -0.4237 -2.0881
   11SAPS  C316 1454   2.777   3.711   3.921 -0.0510 -0.2416  0.1071
   11SAPS  H16X 1455   2.686   3.754   3.876  0.7339  0.7297 -0.5713
   11SAPS  H16Y 1456   2.829   3.795   3.970  0.4669 -0.8828  0.6687
   11SAPS  C317 1457   2.748   3.611   4.025  0.3151  0.3005  0.5633
   11SAPS  H17X 1458   2.664   3.544   3.997 -0.1721  0.8566  0.6699
   11SAPS  H17Y 1459   2.706   3.673   4.108  0.6733  1.0390  0.2019
   11SAPS  C318 1460   2.851   3.514   4.067  0.7616  0.2385 -0.0994
   11SAPS  H18X 1461   2.859   3.430   3.994  1.1745 -0.8895  1.2371
   11SAPS  H18Y 1462   2.816   3.477   4.165 -0.5043  1.3686 -0.1205
   11SAPS  H18Z 1463   2.949   3.563   4.088  0.6127  0.3228  0.4035
   12SAPS     N 1464   2.918   2.922   1.989 -0.4978 -0.4660  0.1436
   12SAPS   HN1 1465   2.881   2.859   1.915 -1.9062  0.1959  0.2693
   12SAPS   HN2 1466   3.022   2.927   1.982 -0.5161 -0.1418  0.0809
   12SAPS   HN3 1467   2.885   2.882   2.079  0.8142  0.0791  0.8801
   12SAPS   C12 1468   2.860   3.057   1.956 -0.2845  0.0574 -0.8370
   12SAPS  H12A 1469   2.912   3.132   2.013 -2.0250 -0.3781  1.4417
   12SAPS   C13 1470   2.854   3.088   1.809  0.1473 -0.0685 -0.2520
   12SAPS  O13A 1471   2.852   2.994   1.731  0.5275  0.4817 -0.2187
   12SAPS  O13B 1472   2.814   3.205   1.779 -0.0132 -0.3946 -0.1352
   12SAPS   C11 1473   2.706   3.063   1.999 -0.7264 -0.5721  0.2546
   12SAPS  H11A 1474   2.662   2.967   1.963  1.2797 -1.4580  0.0574
   12SAPS  H11B 1475   2.645   3.146   1.958  0.4530  1.6822  2.9116
   12SAPS     P 1476   2.571   3.047   2.223  0.0686  0.0456 -0.0979
   12SAPS   O13 1477   2.489   3.167   2.224  0.8917  0.2104 -0.0593
   12SAPS   O14 1478   2.508   2.924   2.178  0.5238  0.0604 -0.1548
   12SAPS   O12 1479   2.704   3.069   2.141  0.7643 -0.3001  0.0473
   12SAPS   O11 1480   2.618   3.027   2.378  0.2947  0.4525  0.4067
   12SAPS    C1 1481   2.733   3.102   2.438 -0.1971 -0.2445 -0.9252
   12SAPS    HA 1482   2.745   3.202   2.390  0.9830  0.1022  0.0844
   12SAPS    HB 1483   2.692   3.123   2.539  0.2302  1.2423 -1.0502
   12SAPS    C2 1484   2.868   3.025   2.454  0.0877  0.1598  0.5185
   12SAPS    HS 1485   2.888   2.976   2.356 -2.3166 -0.4547  0.2852
   12SAPS   O21 1486   2.852   2.924   2.553 -0.1940 -0.0722  0.6707
   12SAPS   C21 1487   2.941   2.826   2.557  0.3223  0.5834 -0.8291
   12SAPS   O22 1488   3.036   2.806   2.483 -0.0652  0.3655  0.1685
   12SAPS   C22 1489   2.908   2.732   2.675  0.0217  0.5903 -0.6221
   12SAPS   H2R 1490   2.843   2.648   2.642  1.4934 -0.6915 -0.3144
   12SAPS   H2S 1491   3.003   2.677   2.691 -0.5354 -0.5515 -1.2170
   12SAPS    C3 1492   2.977   3.130   2.495  0.5967  0.2832  0.0958
   12SAPS    HX 1493   2.995   3.176   2.396 -1.9567  0.6911 -0.2330
   12SAPS    HY 1494   3.070   3.075   2.520  1.3236  1.0415 -0.9000
   12SAPS   O31 1495   2.928   3.215   2.603  0.2477 -0.2361  0.2487
   12SAPS   C31 1496   2.897   3.331   2.572 -0.4684 -0.3438  0.1514
   12SAPS   O32 1497   2.893   3.390   2.463  0.2578 -0.0025  0.1555
   12SAPS   C32 1498   2.861   3.412   2.698 -0.2506 -0.2216  0.1014
   12SAPS   H2X 1499   2.936   3.494   2.699 -0.0586 -0.3960  0.5418
   12SAPS   H2Y 1500   2.873   3.346   2.787 -0.9005  0.9868  1.0885
   12SAPS   C23 1501   2.850   2.804   2.797 -0.0449 -0.3265  0.3717
   12SAPS   H3R 1502   2.809   2.725   2.864  0.0264 -0.8297 -0.1670
   12SAPS   H3S 1503   2.762   2.864   2.765  1.3837  1.0680 -0.9920
   12SAPS   C24 1504   2.951   2.889   2.876  0.0084  0.7048  0.3685
   12SAPS   H4R 1505   2.997   2.968   2.812  0.8141 -1.0218 -1.2255
   12SAPS   H4S 1506   3.020   2.807   2.904  0.4114  1.1498  0.6822
   12SAPS   C25 1507   2.887   2.947   3.002  0.4497 -0.1852 -0.2723
   12SAPS   H5R 1508   2.865   3.055   2.997  0.6334  0.0116  2.2767
   12SAPS   C26 1509   2.876   2.902   3.127  0.8881  0.1112  0.4105
   12SAPS   H6R 1510   2.826   2.968   3.199 -0.1525  0.7609 -0.8825
   12SAPS   C27 1511   2.924   2.761   3.160 -0.8114 -0.3455 -0.8990
   12SAPS   H7R 1512   2.939   2.705   3.066  1.0812  0.4141 -1.0798
   12SAPS   H7S 1513   2.844   2.714   3.221  2.7271 -0.6453  3.8128
   12SAPS   C28 1514   3.060   2.765   3.240  0.2950  0.0364  0.3520
   12SAPS   H8R 1515   3.141   2.814   3.185  0.7962 -0.0096  1.0421
   12SAPS   C29 1516   3.086   2.732   3.370 -0.4261 -0.3469 -0.0816
   12SAPS   H9R 1517   3.189   2.754   3.403  0.2269 -1.4181 -1.3534
   12SAPS  C210 1518   2.988   2.678   3.472  0.0456 -0.1936 -0.2277
   12SAPS  H10R 1519   3.047   2.641   3.558 -0.2600  0.3706  0.2328
   12SAPS  H10S 1520   2.930   2.593   3.429 -0.7080 -0.0609  0.5074
   12SAPS  C211 1521   2.889   2.784   3.511  0.6490 -0.5579  0.4809
   12SAPS  H11R 1522   2.805   2.774   3.441  0.5105 -3.3345  0.9701
   12SAPS  C212 1523   2.895   2.875   3.612  0.0530 -0.5283  0.6337
   12SAPS  H12R 1524   2.814   2.949   3.605 -1.1517 -1.8858 -0.1586
   12SAPS  C213 1525   3.001   2.891   3.718  0.3606  0.2174  0.1673
   12SAPS  H13R 1526   3.097   2.900   3.663 -0.5701  0.2210 -1.4845
   12SAPS  H13S 1527   3.001   2.802   3.785 -1.1373 -0.4448 -0.6976
   12SAPS  C214 1528   2.970   3.018   3.796  0.3560 -0.2701  0.2157
   12SAPS  H14R 1529   2.864   3.031   3.822  0.4094  0.3660  0.1308
   12SAPS  C215 1530   3.047   3.120   3.837  0.0029 -0.5952  0.4137
   12SAPS  H15R 1531   3.003   3.220   3.852 -0.6507  0.1031 -5.0043
   12SAPS  C216 1532   3.194   3.129   3.803  0.1843  0.4489 -0.6589
   12SAPS  H16R 1533   3.218   3.061   3.718  1.5165  0.0699  0.0095
   12SAPS  H16S 1534   3.263   3.104   3.886  0.8648  0.2305 -1.2821
   12SAPS  C217 1535   3.231   3.274   3.771 -0.1891 -0.2671 -0.0298
   12SAPS  H17R 1536   3.168   3.317   3.690 -0.1808  1.0330  0.6419
   12SAPS  H17S 1537   3.335   3.272   3.733 -0.0379  0.1730  0.3565
   12SAPS  C218 1538   3.244   3.373   3.881  0.2733  0.0959  0.1344
   12SAPS  H18R 1539   3.147   3.373   3.935  1.2471 -1.0125  1.9076
   12SAPS  H18S 1540   3.250   3.472   3.831 -0.5528 -0.3042 -0.7910
   12SAPS  C219 1541   3.367   3.341   3.969  0.9146 -0.5374  0.0226
   12SAPS  H19R 1542   3.457   3.362   3.907  1.1439 -0.8193  0.2600
   12SAPS  H19S 1543   3.367   3.233   3.997 -0.7592 -0.7661 -0.7979
   12SAPS  C220 1544   3.389   3.433   4.086 -0.0920 -0.1757  0.6765
   12SAPS  H20R 1545   3.478   3.497   4.066  0.0337 -0.2403  1.0283
   12SAPS  H20S 1546   3.429   3.377   4.173  2.1998  0.1315 -0.1289
   12SAPS  H20T 1547   3.308   3.501   4.120 -0.6456 -0.3061 -0.3636
   12SAPS   C33 1548   2.719   3.468   2.681  0.7539  0.6083  0.5492
   12SAPS   H3X 1549   2.638   3.393   2.695  1.0001  0.3480  0.5690
   12SAPS   H3Y 1550   2.706   3.513   2.580 -1.1469  0.3176  0.6363
   12SAPS   C34 1551   2.689   3.586   2.776 -0.6884 -0.0576  0.1700
   12SAPS   H4X 1552   2.587   3.628   2.772 -1.4676 -1.9035  0.2137
   12SAPS   H4Y 1553   2.750   3.675   2.747  1.3448 -0.1195  3.9230
   12SAPS   C35 1554   2.736   3.563   2.923 -0.7046  0.6879  0.0917
   12SAPS   H5X 1555   2.847   3.560   2.919 -0.6404  0.1198  1.8018
   12SAPS   H5Y 1556   2.701   3.466   2.966 -0.0091 -0.0063 -0.8903
   12SAPS   C36 1557   2.708   3.673   3.018  0.4786 -0.5467 -0.0060
   12SAPS   H6X 1558   2.742   3.767   2.969 -0.7072 -0.2758 -0.3057
   12SAPS   H6Y 1559   2.763   3.643   3.111  1.8343 -0.2046 -0.6824
   12SAPS   C37 1560   2.559   3.696   3.061 -0.1454  0.3952 -0.1596
   12SAPS   H7X 1561   2.515   3.624   3.134  1.7239  1.3800  1.9876
   12SAPS   H7Y 1562   2.492   3.691   2.973 -1.0370 -0.5685  0.5556
   12SAPS   C38 1563   2.545   3.830   3.134  0.2921 -0.1490  0.1446
   12SAPS   H8X 1564   2.441   3.857   3.163  1.2171  2.0154  1.5243
   12SAPS   H8Y 1565   2.573   3.908   3.060 -1.2662 -0.8889 -1.2660
   12SAPS   C39 1566   2.634   3.838   3.262  0.0144 -0.1451 -0.2751
   12SAPS   H9X 1567   2.740   3.819   3.235  0.1297 -2.0465  1.4373
   12SAPS   H9Y 1568   2.603   3.764   3.339 -0.9899 -0.0462 -0.5745
   12SAPS  C310 1569   2.627   3.967   3.335 -0.0868 -0.8784  0.1923
   12SAPS  H10X 1570   2.525   4.008   3.350  0.4889  1.0048 -0.8829
   12SAPS  H10Y 1571   2.688   4.043   3.281 -1.3880 -0.4265 -0.6512
   12SAPS  C311 1572   2.683   3.952   3.481  0.8210 -0.1339 -0.0849
   12SAPS  H11X 1573   2.779   3.896   3.473  0.7122 -0.4294  0.6436
   12SAPS  H11Y 1574   2.617   3.890   3.545 -0.8445  0.1615 -1.4659
   12SAPS  C312 1575   2.719   4.081   3.554  0.0888  0.1371 -0.3796
   12SAPS  H12X 1576   2.625   4.138   3.569 -0.9170 -1.0418 -2.0153
   12SAPS  H12Y 1577   2.773   4.144   3.480 -0.0039  1.6964  0.8502
   12SAPS  C313 1578   2.797   4.053   3.689 -0.1370 -0.6011 -0.6314
   12SAPS  H13X 1579   2.870   3.973   3.663 -0.9692 -1.2985 -0.8490
   12SAPS  H13Y 1580   2.726   4.005   3.760 -1.9873  1.0245 -1.3483
   12SAPS  C314 1581   2.868   4.177   3.747  0.0301  0.4774  0.5527
   12SAPS  H14X 1582   2.914   4.248   3.675  1.0348  0.3340  1.0468
   12SAPS  H14Y 1583   2.959   4.145   3.801 -1.4803 -2.7623  1.2649
   12SAPS  C315 1584   2.783   4.253   3.854 -0.1918  0.6810 -0.1263
   12SAPS  H15X 1585   2.744   4.184   3.931  0.9643  0.8114  0.5849
   12SAPS  H15Y 1586   2.694   4.292   3.800 -0.9665 -0.4936  0.2885
   12SAPS  C316 1587   2.861   4.371   3.915 -0.8916  0.0205  0.1014
   12SAPS  H16X 1588   2.783   4.423   3.974 -0.1699  1.2645 -0.0317
   12SAPS  H16Y 1589   2.887   4.437   3.830 -1.8916 -1.1429 -1.1243
   12SAPS  C317 1590   2.965   4.320   4.025  0.3179 -0.0665  0.3430
   12SAPS  H17X 1591   3.029   4.241   3.981 -0.4956 -0.3808 -0.2701
   12SAPS  H17Y 1592   2.899   4.280   4.105 -0.2296 -0.3998 -0.2764
   12SAPS  C318 1593   3.051   4.440   4.075  0.1832 -0.1984  0.2607
   12SAPS  H18X 1594   2.982   4.515   4.118  1.9215  2.2548 -1.1392
   12SAPS  H18Y 1595   3.100   4.496   3.992 -0.2390  1.5084  1.1523
   12SAPS  H18Z 1596   3.122   4.412   4.156  1.9443 -0.4119 -1.3070
   13SAPS     N 1597   5.335   3.186   2.197  0.4639 -0.4237 -0.7152
   13SAPS   HN1 1598   5.276   3.270   2.204  1.8803  0.6321 -1.1519
   13SAPS   HN2 1599   5.289   3.105   2.150  1.4219 -1.7434  0.5651
   13SAPS   HN3 1600   5.365   3.150   2.290  1.2718  0.8990 -0.4503
   13SAPS   C12 1601   5.465   3.219   2.126  0.2685 -0.1500 -0.0989
   13SAPS  H12A 1602   5.537   3.242   2.203 -0.5960 -2.2746  1.3759
   13SAPS   C13 1603   5.521   3.099   2.053  0.0429  0.8107 -0.1588
   13SAPS  O13A 1604   5.462   2.987   2.067  0.5340 -0.0637 -0.3617
   13SAPS  O13B 1605   5.636   3.108   2.007 -0.3707 -0.6011  0.5976
   13SAPS   C11 1606   5.436   3.332   2.018 -0.1482  0.3037  0.2858
   13SAPS  H11A 1607   5.346   3.307   1.957  0.4650  0.1938 -0.5800
   13SAPS  H11B 1608   5.519   3.333   1.944 -1.4043 -2.3499 -1.2453
   13SAPS     P 1609   5.534   3.574   2.086  0.1974 -0.2183 -0.1279
   13SAPS   O13 1610   5.561   3.627   1.950  0.2050  0.3263 -0.0113
   13SAPS   O14 1611   5.501   3.668   2.196  0.6798  0.2593 -0.1464
   13SAPS   O12 1612   5.418   3.459   2.077 -0.0277  0.4331 -0.0528
   13SAPS   O11 1613   5.661   3.484   2.120 -0.1861 -0.0561  0.3579
   13SAPS    C1 1614   5.755   3.530   2.216  0.3257  0.1574 -0.5350
   13SAPS    HA 1615   5.856   3.524   2.171  1.0823 -0.0294  1.1532
   13SAPS    HB 1616   5.745   3.639   2.237  0.6030  0.6428 -2.8284
   13SAPS    C2 1617   5.732   3.459   2.360 -0.1005 -0.4141  0.6153
   13SAPS    HS 1618   5.812   3.498   2.427 -0.8916  0.2717  1.1608
   13SAPS   O21 1619   5.725   3.315   2.349  0.2329  0.1006 -0.0089
   13SAPS   C21 1620   5.843   3.261   2.323  0.2949 -0.4037  0.3927
   13SAPS   O22 1621   5.947   3.319   2.341  0.0449 -0.7317  0.4817
   13SAPS   C22 1622   5.838   3.112   2.295 -0.1813  0.1931  0.5908
   13SAPS   H2R 1623   5.734   3.075   2.303  0.2789 -1.3462 -0.2839
   13SAPS   H2S 1624   5.885   3.085   2.197 -2.0255 -1.5501  0.1660
   13SAPS    C3 1625   5.600   3.502   2.423 -0.1849  0.5168 -0.1985
   13SAPS    HX 1626   5.505   3.466   2.377  0.4000  0.9961 -1.7975
   13SAPS    HY 1627   5.594   3.611   2.401 -1.6405  0.5168  0.0966
   13SAPS   O31 1628   5.596   3.458   2.564 -0.0437 -0.0778  0.0552
   13SAPS   C31 1629   5.620   3.554   2.650 -0.3238 -0.8429  0.4318
   13SAPS   O32 1630   5.644   3.672   2.618  0.0715  0.0376 -0.2429
   13SAPS   C32 1631   5.604   3.500   2.789 -0.0467 -0.4595  0.0983
   13SAPS   H2X 1632   5.615   3.390   2.795  1.6053 -0.3473 -0.4626
   13SAPS   H2Y 1633   5.506   3.534   2.829  0.9647 -0.7854  2.9748
   13SAPS   C23 1634   5.914   3.033   2.406  0.3397 -0.3000 -0.3773
   13SAPS   H3R 1635   6.005   3.088   2.436  0.3890 -1.0437  0.8628
   13SAPS   H3S 1636   5.939   2.934   2.363 -0.7698 -0.0138 -1.7317
   13SAPS   C24 1637   5.812   3.027   2.527 -0.0975 -0.1909  0.3069
   13SAPS   H4R 1638   5.730   2.957   2.500 -0.9196  0.7652  0.2966
   13SAPS   H4S 1639   5.789   3.129   2.563  0.3462 -0.7568  2.2885
   13SAPS   C25 1640   5.874   2.965   2.654 -0.2383  0.0561 -0.1224
   13SAPS   H5R 1641   5.875   2.855   2.652 -1.6347  0.0285  0.3552
   13SAPS   C26 1642   5.931   3.019   2.764 -0.1141  0.4014  0.2072
   13SAPS   H6R 1643   5.951   2.949   2.846 -3.7241 -1.3197 -0.2961
   13SAPS   C27 1644   5.955   3.160   2.807 -0.2451 -0.1033 -0.5049
   13SAPS   H7R 1645   5.874   3.190   2.878 -1.5512  0.6169 -2.2547
   13SAPS   H7S 1646   5.958   3.230   2.720  0.0848 -0.4188 -0.7484
   13SAPS   C28 1647   6.086   3.162   2.891  0.4436  0.0120 -0.0836
   13SAPS   H8R 1648   6.178   3.190   2.837  0.8845  0.8735  1.0846
   13SAPS   C29 1649   6.105   3.119   3.016  0.4595 -0.1312 -0.4056
   13SAPS   H9R 1650   6.211   3.137   3.040  0.1583  2.7960 -1.0624
   13SAPS  C210 1651   6.004   3.042   3.100  0.6915 -0.1199  0.2290
   13SAPS  H10R 1652   6.021   2.934   3.082 -1.4513 -0.5452  0.7001
   13SAPS  H10S 1653   5.902   3.063   3.062  0.5253 -3.2443 -1.2098
   13SAPS  C211 1654   6.019   3.080   3.241 -0.0045 -0.0975 -0.1283
   13SAPS  H11R 1655   5.984   3.182   3.260 -0.3380 -0.3358  0.5559
   13SAPS  C212 1656   6.057   3.006   3.349 -0.2266 -0.3714 -1.2736
   13SAPS  H12R 1657   6.063   3.053   3.448 -2.0606 -1.2890 -0.7138
   13SAPS  C213 1658   6.101   2.862   3.350 -0.1532 -0.4580 -0.3000
   13SAPS  H13R 1659   6.182   2.854   3.426 -0.7887  1.9820  0.6670
   13SAPS  H13S 1660   6.162   2.840   3.260 -1.2849 -1.8376 -0.7487
   13SAPS  C214 1661   5.992   2.762   3.363  1.0444 -0.7347 -0.0328
   13SAPS  H14R 1662   5.973   2.698   3.275  2.1639 -2.3947  0.9081
   13SAPS  C215 1663   5.909   2.749   3.473  0.8661 -0.3826 -0.1584
   13SAPS  H15R 1664   5.839   2.665   3.469  0.4923 -0.0519 -0.7972
   13SAPS  C216 1665   5.909   2.815   3.607  0.7097 -0.7410 -0.0675
   13SAPS  H16R 1666   5.803   2.844   3.626  0.8706 -0.4031  0.3115
   13SAPS  H16S 1667   5.973   2.905   3.594  2.5707 -1.7166  1.9389
   13SAPS  C217 1668   5.972   2.741   3.725 -0.3521  0.1227 -0.5789
   13SAPS  H17R 1669   6.074   2.704   3.701  0.3810  1.5887  0.2316
   13SAPS  H17S 1670   5.913   2.659   3.771 -1.6002  0.4693 -1.5531
   13SAPS  C218 1671   5.991   2.844   3.839  0.1540  0.3299  0.5866
   13SAPS  H18R 1672   5.899   2.907   3.842 -0.5916 -0.6913 -0.1196
   13SAPS  H18S 1673   6.069   2.921   3.820 -0.0026  0.2775 -0.3161
   13SAPS  C219 1674   5.997   2.783   3.980 -0.3133  0.6787 -0.5867
   13SAPS  H19R 1675   6.081   2.710   3.979  0.0870  1.1090 -3.4461
   13SAPS  H19S 1676   5.896   2.740   3.997  0.4235 -1.0902 -0.5830
   13SAPS  C220 1677   6.017   2.888   4.090  0.8365 -0.2882 -0.0865
   13SAPS  H20R 1678   5.960   2.981   4.072  1.0997 -0.3731 -1.3967
   13SAPS  H20S 1679   6.126   2.910   4.096  0.6121  0.9887 -0.6733
   13SAPS  H20T 1680   5.997   2.844   4.190 -0.8355 -1.9058 -1.0888
   13SAPS   C33 1681   5.716   3.562   2.875  0.3347  0.0917  0.3923
   13SAPS   H3X 1682   5.731   3.666   2.837  2.0782 -0.4754 -0.5799
   13SAPS   H3Y 1683   5.816   3.515   2.861  0.2638  0.3625 -1.1061
   13SAPS   C34 1684   5.684   3.576   3.026  0.0313 -0.6153 -0.2524
   13SAPS   H4X 1685   5.605   3.654   3.035  0.5159  0.0308 -1.3671
   13SAPS   H4Y 1686   5.766   3.628   3.080 -0.9415 -0.8761  1.4981
   13SAPS   C35 1687   5.649   3.443   3.102  0.9820 -0.0153 -0.4069
   13SAPS   H5X 1688   5.699   3.359   3.050 -0.6800 -1.2055 -0.1303
   13SAPS   H5Y 1689   5.545   3.404   3.102  0.8735  0.2336  0.7081
   13SAPS   C36 1690   5.695   3.451   3.254  0.2226 -1.0550  0.5004
   13SAPS   H6X 1691   5.618   3.508   3.311  0.3804 -0.3244 -0.0146
   13SAPS   H6Y 1692   5.792   3.504   3.263 -0.5985  0.3712  1.1430
   13SAPS   C37 1693   5.703   3.312   3.321  0.1801  0.5545 -0.0702
   13SAPS   H7X 1694   5.761   3.253   3.246  0.2761 -1.7132  1.7138
   13SAPS   H7Y 1695   5.602   3.266   3.317  1.7594 -3.0886 -0.2903
   13SAPS   C38 1696   5.769   3.300   3.458 -0.0512  0.3390  0.0986
   13SAPS   H8X 1697   5.704   3.366   3.519 -2.3447  1.5281 -3.4726
   13SAPS   H8Y 1698   5.876   3.330   3.454 -0.4897  1.8395 -0.9073
   13SAPS   C39 1699   5.766   3.158   3.523  0.0862  0.0286  0.6156
   13SAPS   H9X 1700   5.821   3.091   3.455 -0.2653  0.7571 -0.3944
   13SAPS   H9Y 1701   5.658   3.133   3.527  0.0052  0.4296  1.1280
   13SAPS  C310 1702   5.826   3.149   3.665  0.2002 -0.3658  0.8056
   13SAPS  H10X 1703   5.935   3.162   3.654  0.0861 -0.7254 -0.9471
   13SAPS  H10Y 1704   5.821   3.040   3.689  1.6525 -0.8392 -0.9616
   13SAPS  C311 1705   5.764   3.231   3.776 -0.3506 -0.3421 -0.0673
   13SAPS  H11X 1706   5.653   3.231   3.780 -0.3726 -0.1722 -0.7193
   13SAPS  H11Y 1707   5.787   3.339   3.763 -0.0900 -0.2479  1.1181
   13SAPS  C312 1708   5.826   3.188   3.911  0.1708  0.9645  0.4116
   13SAPS  H12X 1709   5.928   3.148   3.896  0.2014  0.5130  1.7586
   13SAPS  H12Y 1710   5.767   3.100   3.946  0.8787  0.4687  0.3538
   13SAPS  C313 1711   5.843   3.306   4.013 -0.0179  0.6075  0.2888
   13SAPS  H13X 1712   5.849   3.402   3.957  4.3200  0.5850  0.5716
   13SAPS  H13Y 1713   5.939   3.292   4.066  1.0286 -2.0852 -2.1749
   13SAPS  C314 1714   5.731   3.318   4.122  0.6588  0.6150  0.2014
   13SAPS  H14X 1715   5.722   3.216   4.164 -0.6453  0.3158 -0.7513
   13SAPS  H14Y 1716   5.631   3.334   4.076  0.4740 -0.9097  0.0428
   13SAPS  C315 1717   5.758   3.422   4.227 -0.1677  0.3594 -0.0302
   13SAPS  H15X 1718   5.861   3.427   4.269 -0.4814 -0.5891  0.8960
   13SAPS  H15Y 1719   5.689   3.393   4.310 -0.7426 -1.5449 -1.1470
   13SAPS  C316 1720   5.747   3.565   4.173 -0.6349  0.0929  0.4925
   13SAPS  H16X 1721   5.642   3.602   4.178  0.2035  2.4964  0.7914
   13SAPS  H16Y 1722   5.777   3.575   4.066 -0.5500 -1.5667  0.3455
   13SAPS  C317 1723   5.839   3.656   4.253 -0.0871  0.2691  0.2628
   13SAPS  H17X 1724   5.842   3.756   4.204  0.4864  0.3629  0.4862
   13SAPS  H17Y 1725   5.939   3.608   4.242 -0.0557  0.4089 -0.0576
   13SAPS  C318 1726   5.808   3.686   4.403 -0.2711  0.3819  1.0215
   13SAPS  H18X 1727   5.869   3.624   4.472  1.4393 -0.6201 -1.3056
   13SAPS  H18Y 1728   5.697   3.678   4.409 -0.1178 -1.2356  2.0829
   13SAPS  H18Z 1729   5.825   3.795   4.417 -0.4528  0.6117 -0.4406
   14SAPS     N 1730   3.667   2.456   2.310  0.2067 -0.0497 -0.3661
   14SAPS   HN1 1731   3.611   2.487   2.392  0.8937  0.8180 -0.2251
   14SAPS   HN2 1732   3.752   2.409   2.346 -0.0085 -0.2864 -0.1701
   14SAPS   HN3 1733   3.694   2.547   2.268 -1.6909  0.7407  0.0733
   14SAPS   C12 1734   3.596   2.376   2.217 -0.0732  0.3312  0.2404
   14SAPS  H12A 1735   3.562   2.296   2.282  0.8534 -0.0389  0.2825
   14SAPS   C13 1736   3.486   2.443   2.135 -0.0223 -0.9347  0.3340
   14SAPS  O13A 1737   3.470   2.569   2.138 -0.4809 -0.0789 -0.7527
   14SAPS  O13B 1738   3.405   2.377   2.059  0.1593  0.2118 -0.2986
   14SAPS   C11 1739   3.699   2.324   2.109 -0.2205 -0.4203  0.1507
   14SAPS  H11A 1740   3.747   2.404   2.048  0.4408 -2.0540 -1.5031
   14SAPS  H11B 1741   3.640   2.257   2.044 -0.2082 -0.4856  0.2066
   14SAPS     P 1742   3.793   2.105   2.208 -0.2263  0.3404 -0.6474
   14SAPS   O13 1743   3.827   2.027   2.089  0.0950  0.6521  0.1722
   14SAPS   O14 1744   3.872   2.083   2.332 -0.2609  0.0380  1.1828
   14SAPS   O12 1745   3.809   2.258   2.172 -0.3140 -0.2703  0.2894
   14SAPS   O11 1746   3.643   2.084   2.237  0.2605 -0.3478  0.2840
   14SAPS    C1 1747   3.602   1.949   2.277 -0.4535 -0.1814 -0.4185
   14SAPS    HA 1748   3.570   1.887   2.191 -0.2604  0.1809 -0.7537
   14SAPS    HB 1749   3.687   1.900   2.329 -1.0843 -0.6765  0.1552
   14SAPS    C2 1750   3.480   1.956   2.372  0.3875  0.5345 -0.4957
   14SAPS    HS 1751   3.399   1.989   2.303  0.2045  1.8958  0.3452
   14SAPS   O21 1752   3.519   2.052   2.470  0.1479 -0.6025 -0.3396
   14SAPS   C21 1753   3.415   2.125   2.517  0.0668  0.1777 -0.5028
   14SAPS   O22 1754   3.308   2.145   2.459 -0.2953  0.2512 -0.2597
   14SAPS   C22 1755   3.453   2.194   2.649  0.1688  0.1517  0.2347
   14SAPS   H2R 1756   3.557   2.167   2.674 -0.0728 -1.3009 -0.2971
   14SAPS   H2S 1757   3.453   2.305   2.651  2.9515  0.1753  0.8611
   14SAPS    C3 1758   3.433   1.832   2.446  0.4022 -0.4562 -0.0167
   14SAPS    HX 1759   3.401   1.746   2.383 -2.9232  0.8080 -0.1545
   14SAPS    HY 1760   3.337   1.864   2.491 -0.3765  0.7389 -2.3972
   14SAPS   O31 1761   3.510   1.791   2.558  0.1033 -0.0749  0.1910
   14SAPS   C31 1762   3.596   1.690   2.532  0.1440 -0.8096 -0.8341
   14SAPS   O32 1763   3.620   1.649   2.422 -0.1648 -0.3431  0.1015
   14SAPS   C32 1764   3.670   1.654   2.661  0.6016 -0.1779  0.3592
   14SAPS   H2X 1765   3.774   1.688   2.642  0.5788 -1.3276 -1.9825
   14SAPS   H2Y 1766   3.678   1.547   2.686 -0.8571 -0.0375  1.4695
   14SAPS   C23 1767   3.361   2.145   2.766 -0.1996 -0.7605 -0.1697
   14SAPS   H3R 1768   3.376   2.037   2.787 -0.9649 -1.0521 -1.0825
   14SAPS   H3S 1769   3.254   2.159   2.738 -0.9009 -1.4923  2.0730
   14SAPS   C24 1770   3.376   2.234   2.892 -0.0447  0.1298 -0.5015
   14SAPS   H4R 1771   3.294   2.214   2.963  0.3960 -1.6128 -0.4678
   14SAPS   H4S 1772   3.365   2.342   2.868  1.6741  0.4236 -0.0261
   14SAPS   C25 1773   3.504   2.220   2.969  0.1957 -0.6270  0.3553
   14SAPS   H5R 1774   3.589   2.288   2.953 -0.6207  1.0611  2.7952
   14SAPS   C26 1775   3.523   2.127   3.057  0.0052  0.9793 -0.0419
   14SAPS   H6R 1776   3.616   2.119   3.114 -0.0412 -0.2127 -0.1130
   14SAPS   C27 1777   3.418   2.018   3.089 -0.3610 -0.3731 -0.8029
   14SAPS   H7R 1778   3.429   1.924   3.031 -0.2254 -2.1142  1.9343
   14SAPS   H7S 1779   3.313   2.053   3.086 -0.1502  0.3253 -0.3608
   14SAPS   C28 1780   3.444   1.966   3.226 -0.2828  0.0660  0.3955
   14SAPS   H8R 1781   3.523   2.021   3.280  1.4054 -1.5013 -0.4410
   14SAPS   C29 1782   3.395   1.855   3.284 -0.5417 -0.6854  0.2742
   14SAPS   H9R 1783   3.422   1.828   3.387 -1.1168 -0.9610  0.3503
   14SAPS  C210 1784   3.298   1.757   3.220 -0.3983  0.2063  0.1469
   14SAPS  H10R 1785   3.256   1.789   3.122  0.8457  1.3346 -0.0391
   14SAPS  H10S 1786   3.211   1.739   3.286 -0.3278  2.1148  0.7914
   14SAPS  C211 1787   3.361   1.622   3.196 -0.0955  0.0052  0.0215
   14SAPS  H11R 1788   3.389   1.589   3.095 -0.9299 -0.3293 -0.1037
   14SAPS  C212 1789   3.362   1.525   3.287  0.6123  0.1436  0.3859
   14SAPS  H12R 1790   3.419   1.433   3.268  0.3341  0.2886 -1.2245
   14SAPS  C213 1791   3.311   1.528   3.433 -0.4379  0.0549 -0.0806
   14SAPS  H13R 1792   3.261   1.625   3.455  0.4776 -0.1257  2.9802
   14SAPS  H13S 1793   3.393   1.514   3.506 -0.2725 -0.9192 -0.4481
   14SAPS  C214 1794   3.208   1.418   3.461 -0.3196 -0.3201 -0.0559
   14SAPS  H14R 1795   3.181   1.346   3.382  0.7121  0.5397 -1.2217
   14SAPS  C215 1796   3.154   1.394   3.579 -0.4498 -0.0164  0.5130
   14SAPS  H15R 1797   3.098   1.299   3.584  0.0537 -0.3245  0.3173
   14SAPS  C216 1798   3.184   1.470   3.705 -0.0932  0.8768 -0.1295
   14SAPS  H16R 1799   3.087   1.520   3.729  0.4686  1.5629  0.7758
   14SAPS  H16S 1800   3.269   1.541   3.696 -0.7042  1.5415 -0.7377
   14SAPS  C217 1801   3.227   1.389   3.827 -0.0969  0.5642  0.4902
   14SAPS  H17R 1802   3.319   1.332   3.806 -0.8344 -0.6916  0.6066
   14SAPS  H17S 1803   3.139   1.324   3.845 -0.5341  0.9241 -0.2919
   14SAPS  C218 1804   3.247   1.463   3.962  0.3740  0.8464 -0.2121
   14SAPS  H18R 1805   3.152   1.520   3.974 -0.3545 -0.7398  1.8071
   14SAPS  H18S 1806   3.339   1.525   3.958  0.5074  0.7335  0.8879
   14SAPS  C219 1807   3.260   1.363   4.073 -0.0969  0.2234  0.0073
   14SAPS  H19R 1808   3.341   1.288   4.059 -0.3232 -0.3074  1.5089
   14SAPS  H19S 1809   3.172   1.295   4.070 -0.6508  0.9820 -2.0158
   14SAPS  C220 1810   3.268   1.426   4.213 -0.7655  0.1498 -0.1969
   14SAPS  H20R 1811   3.171   1.475   4.238 -1.1876 -0.7178 -0.1316
   14SAPS  H20S 1812   3.340   1.511   4.212  0.7468 -1.1188 -1.9992
   14SAPS  H20T 1813   3.300   1.355   4.292  2.9929  2.3075  0.3542
   14SAPS   C33 1814   3.628   1.720   2.793  0.3613  0.6879 -0.1218
   14SAPS   H3X 1815   3.542   1.662   2.832 -0.2383 -0.0965 -2.5213
   14SAPS   H3Y 1816   3.592   1.824   2.783  1.6627  1.6334  3.8938
   14SAPS   C34 1817   3.741   1.722   2.893 -0.3267 -0.0208  0.2582
   14SAPS   H4X 1818   3.828   1.781   2.857  1.0394 -1.4793  1.1160
   14SAPS   H4Y 1819   3.795   1.625   2.904 -0.2658  0.1745  1.7002
   14SAPS   C35 1820   3.706   1.773   3.040 -0.0098  0.1897  0.2370
   14SAPS   H5X 1821   3.625   1.713   3.086  0.6667 -0.8075  0.1417
   14SAPS   H5Y 1822   3.693   1.883   3.033 -0.2626  0.4404  3.6510
   14SAPS   C36 1823   3.827   1.756   3.134  0.2373 -0.1711  0.5037
   14SAPS   H6X 1824   3.918   1.810   3.102 -0.1724  0.1671 -0.1136
   14SAPS   H6Y 1825   3.865   1.652   3.132  1.2474  0.1607  1.7928
   14SAPS   C37 1826   3.786   1.797   3.280 -0.4656 -0.3317 -0.3406
   14SAPS   H7X 1827   3.701   1.743   3.326 -1.0274 -0.0858 -1.0869
   14SAPS   H7Y 1828   3.752   1.903   3.285 -1.2173 -0.5982  0.2652
   14SAPS   C38 1829   3.897   1.784   3.383  0.5461  0.1454 -0.3796
   14SAPS   H8X 1830   3.984   1.850   3.361 -0.0141  1.7601  2.0621
   14SAPS   H8Y 1831   3.935   1.680   3.390  0.5698  0.3050  2.3169
   14SAPS   C39 1832   3.848   1.826   3.525  0.4271 -0.5404  0.0091
   14SAPS   H9X 1833   3.806   1.927   3.506 -2.1997 -1.7692 -0.8427
   14SAPS   H9Y 1834   3.937   1.838   3.591  1.5006  2.7243 -1.9006
   14SAPS  C310 1835   3.748   1.723   3.581  0.7711  0.2869  1.0065
   14SAPS  H10X 1836   3.794   1.622   3.574  2.1768  0.8622  1.5057
   14SAPS  H10Y 1837   3.651   1.732   3.529  2.1104  0.0739 -1.5987
   14SAPS  C311 1838   3.708   1.735   3.733  0.8070 -0.1575  0.5505
   14SAPS  H11X 1839   3.794   1.708   3.798  1.2416 -1.0823 -0.3987
   14SAPS  H11Y 1840   3.627   1.661   3.745  2.3332 -1.4803  3.2867
   14SAPS  C312 1841   3.671   1.885   3.765  0.1035  0.3149  0.1356
   14SAPS  H12X 1842   3.760   1.947   3.742  1.7216 -1.9189  0.1813
   14SAPS  H12Y 1843   3.659   1.896   3.875 -2.3774 -2.8721  0.2586
   14SAPS  C313 1844   3.546   1.937   3.691 -0.5413 -0.6685  0.4249
   14SAPS  H13X 1845   3.563   1.926   3.582 -0.0415  0.6169  0.3637
   14SAPS  H13Y 1846   3.547   2.048   3.693 -0.0164 -0.6887  1.9629
   14SAPS  C314 1847   3.421   1.869   3.736 -0.1397 -0.2843 -0.0427
   14SAPS  H14X 1848   3.419   1.875   3.847 -1.0485 -0.9046 -0.0139
   14SAPS  H14Y 1849   3.411   1.759   3.719 -1.5148 -0.6285  2.7621
   14SAPS  C315 1850   3.290   1.940   3.692  0.2590  0.0187  0.0291
   14SAPS  H15X 1851   3.281   1.905   3.587 -1.1078 -0.0942  0.1777
   14SAPS  H15Y 1852   3.302   2.051   3.686 -2.3337  0.3237  0.0225
   14SAPS  C316 1853   3.164   1.899   3.776  0.6282 -0.5382 -0.8622
   14SAPS  H16X 1854   3.185   1.912   3.885 -0.0924  0.5247 -0.8513
   14SAPS  H16Y 1855   3.141   1.791   3.761 -0.7012 -0.5068  0.7967
   14SAPS  C317 1856   3.041   1.981   3.742  0.1199  0.2764  0.1291
   14SAPS  H17X 1857   3.038   2.007   3.634 -4.2377 -0.7739 -0.0932
   14SAPS  H17Y 1858   3.042   2.076   3.800  2.8095  0.2623  0.1713
   14SAPS  C318 1859   2.911   1.911   3.782 -0.6007  0.6734  0.2617
   14SAPS  H18X 1860   2.907   1.892   3.891  0.9429 -0.9203  0.0697
   14SAPS  H18Y 1861   2.923   1.809   3.738 -0.0422  0.6309  0.5099
   14SAPS  H18Z 1862   2.827   1.966   3.734 -0.8066  0.2455  0.1267
   15SAPS     N 1863   4.848   6.411   2.059  0.0466  0.0435  0.1827
   15SAPS   HN1 1864   4.764   6.348   2.063  0.1942 -0.3816 -2.1621
   15SAPS   HN2 1865   4.836   6.485   2.131 -0.3818 -2.1838  2.4852
   15SAPS   HN3 1866   4.866   6.446   1.963 -0.4068 -3.2825 -1.1999
   15SAPS   C12 1867   4.961   6.328   2.099 -0.8968  0.1789 -0.2309
   15SAPS  H12A 1868   4.958   6.236   2.043  0.1019  1.2020 -2.0238
   15SAPS   C13 1869   5.096   6.407   2.100 -0.4483 -0.1137  0.0608
   15SAPS  O13A 1870   5.097   6.530   2.079 -0.0199  0.8878  0.1045
   15SAPS  O13B 1871   5.198   6.331   2.107  0.0203  0.4843  0.4500
   15SAPS   C11 1872   4.948   6.279   2.252 -0.4258 -0.1782 -0.1081
   15SAPS  H11A 1873   4.943   6.380   2.297 -0.6983 -1.0580  1.8875
   15SAPS  H11B 1874   5.039   6.220   2.277 -0.6874 -0.5673 -0.0720
   15SAPS     P 1875   4.835   6.048   2.294  0.0642  0.1778  0.5930
   15SAPS   O13 1876   4.701   5.995   2.326 -0.4560 -0.1791  0.6363
   15SAPS   O14 1877   4.895   6.005   2.169  0.5021 -0.0640  0.6059
   15SAPS   O12 1878   4.826   6.204   2.281  0.0638 -0.1274  0.1823
   15SAPS   O11 1879   4.937   6.027   2.406  0.7776 -0.4703 -0.0840
   15SAPS    C1 1880   4.906   6.077   2.535 -0.1125  0.1109  0.1164
   15SAPS    HA 1881   4.935   6.184   2.534 -3.9549  1.2156  2.0606
   15SAPS    HB 1882   4.801   6.052   2.559 -0.1344  1.4230  1.4090
   15SAPS    C2 1883   4.971   5.999   2.649  0.6791 -0.6000 -0.6625
   15SAPS    HS 1884   5.079   6.024   2.650  0.0115  2.4583 -1.0471
   15SAPS   O21 1885   4.946   5.863   2.622  0.7379  0.3182  0.2648
   15SAPS   C21 1886   5.026   5.781   2.675 -0.3308  0.5784  0.4351
   15SAPS   O22 1887   5.127   5.813   2.731  0.3335  0.9364  0.1620
   15SAPS   C22 1888   4.973   5.642   2.648  0.5395 -0.1852  0.2114
   15SAPS   H2R 1889   4.871   5.646   2.692 -1.0517  0.6780 -3.3111
   15SAPS   H2S 1890   4.967   5.629   2.538 -0.5468  0.7221  0.1511
   15SAPS    C3 1891   4.904   6.029   2.790 -0.2523 -0.2296  0.5773
   15SAPS    HX 1892   4.924   6.136   2.812  1.9113  0.2588 -3.3635
   15SAPS    HY 1893   4.954   5.970   2.870 -2.2874 -0.5439  1.6594
   15SAPS   O31 1894   4.761   5.994   2.813  0.5528 -0.4789  0.5016
   15SAPS   C31 1895   4.668   6.088   2.794 -0.5806 -0.2055 -0.5551
   15SAPS   O32 1896   4.684   6.189   2.731 -0.0506  0.2487 -0.0465
   15SAPS   C32 1897   4.549   6.053   2.883  0.2069  0.1828  0.3880
   15SAPS   H2X 1898   4.600   6.032   2.979 -1.0465 -2.2351  0.5687
   15SAPS   H2Y 1899   4.515   5.952   2.852  1.9887 -0.4293  0.3708
   15SAPS   C23 1900   5.071   5.530   2.695 -0.2321  0.3718 -0.4552
   15SAPS   H3R 1901   5.097   5.555   2.800  0.4590  0.1013 -0.5609
   15SAPS   H3S 1902   5.167   5.519   2.639 -0.4147  1.8384 -1.0735
   15SAPS   C24 1903   5.011   5.391   2.711  0.0273  0.0502 -0.2151
   15SAPS   H4R 1904   4.921   5.410   2.774  0.0056  0.6834 -0.4315
   15SAPS   H4S 1905   5.081   5.329   2.770  1.0248 -0.8479 -2.2707
   15SAPS   C25 1906   4.986   5.319   2.583  0.1784  0.6798 -0.5942
   15SAPS   H5R 1907   5.043   5.348   2.494  0.5329 -1.1052 -0.9822
   15SAPS   C26 1908   4.898   5.221   2.563 -0.2712  1.3486 -0.1794
   15SAPS   H6R 1909   4.889   5.183   2.460 -1.5960 -1.4748  0.9350
   15SAPS   C27 1910   4.821   5.154   2.677 -0.2510  0.3110  0.2383
   15SAPS   H7R 1911   4.717   5.120   2.656  0.1154 -1.0197  0.5314
   15SAPS   H7S 1912   4.797   5.228   2.756 -0.9918 -0.4421  0.7261
   15SAPS   C28 1913   4.894   5.036   2.746 -0.0813 -0.2044  0.5801
   15SAPS   H8R 1914   4.905   4.943   2.689  2.4537  0.0145  0.6865
   15SAPS   C29 1915   4.956   5.032   2.861  0.1989  0.0349  0.0776
   15SAPS   H9R 1916   5.020   4.946   2.889 -1.9429 -2.0821 -1.3720
   15SAPS  C210 1917   4.976   5.127   2.969  0.2062 -0.2771 -0.0300
   15SAPS  H10R 1918   5.040   5.209   2.930 -1.1360  0.8806  0.1772
   15SAPS  H10S 1919   5.036   5.074   3.047 -2.2910 -1.7853  0.9528
   15SAPS  C211 1920   4.851   5.190   3.035 -0.2433  0.4576  0.7122
   15SAPS  H11R 1921   4.771   5.116   3.046 -0.6415  0.4957 -1.6468
   15SAPS  C212 1922   4.830   5.314   3.075  0.4849  0.1744  0.3146
   15SAPS  H12R 1923   4.728   5.329   3.111  0.2679  2.1574 -1.0265
   15SAPS  C213 1924   4.919   5.440   3.059 -0.6022  0.6975  0.0356
   15SAPS  H13R 1925   5.020   5.418   3.017 -0.6079 -0.7921  0.7356
   15SAPS  H13S 1926   4.952   5.481   3.157  1.6906  0.4007 -0.5631
   15SAPS  C214 1927   4.850   5.554   2.989 -0.8505  0.5747 -0.6851
   15SAPS  H14R 1928   4.751   5.535   2.947 -0.7710 -2.1325  0.2629
   15SAPS  C215 1929   4.894   5.682   2.993 -0.1084 -0.0802 -0.3237
   15SAPS  H15R 1930   4.832   5.760   2.947 -0.1983 -1.2544 -2.2602
   15SAPS  C216 1931   5.013   5.735   3.068 -0.3073 -0.0035 -0.6727
   15SAPS  H16R 1932   5.077   5.792   2.997  0.3085 -0.8031 -0.7618
   15SAPS  H16S 1933   5.083   5.654   3.099 -1.4193  0.1283  2.2458
   15SAPS  C217 1934   4.971   5.814   3.196 -0.3077  0.3375  0.8012
   15SAPS  H17R 1935   5.062   5.845   3.252  0.2010  2.2903 -1.0459
   15SAPS  H17S 1936   4.917   5.742   3.261  0.0832  0.0078  0.7631
   15SAPS  C218 1937   4.868   5.926   3.178  0.3599  0.7791 -0.4040
   15SAPS  H18R 1938   4.771   5.881   3.149  1.4770 -0.1744 -2.7770
   15SAPS  H18S 1939   4.894   5.993   3.093 -0.4436  0.2067 -1.1104
   15SAPS  C219 1940   4.861   6.014   3.298  0.3129  0.4421 -0.6208
   15SAPS  H19R 1941   4.803   6.103   3.265 -0.5715  0.8040  1.8126
   15SAPS  H19S 1942   4.966   6.042   3.323  0.3771 -0.6465  0.3418
   15SAPS  C220 1943   4.795   5.944   3.419 -0.6427 -0.4857  0.0352
   15SAPS  H20R 1944   4.688   5.926   3.396 -0.9348  0.2808  0.7623
   15SAPS  H20S 1945   4.806   6.017   3.502  1.5817 -0.2940 -0.4141
   15SAPS  H20T 1946   4.857   5.853   3.434  0.5211  0.4031  0.6852
   15SAPS   C33 1947   4.433   6.157   2.883 -0.9045  0.5114 -0.2926
   15SAPS   H3X 1948   4.403   6.159   2.776 -4.4553  2.3450  0.6818
   15SAPS   H3Y 1949   4.485   6.250   2.912 -1.7995  1.0130 -0.2924
   15SAPS   C34 1950   4.319   6.119   2.973  0.1299  0.3037 -0.1648
   15SAPS   H4X 1951   4.286   6.015   2.951  0.3852  0.2563 -0.3154
   15SAPS   H4Y 1952   4.237   6.194   2.965 -0.8559 -0.6692  0.5878
   15SAPS   C35 1953   4.359   6.122   3.127  0.0861 -0.3133 -0.2194
   15SAPS   H5X 1954   4.384   6.228   3.146 -0.4818 -0.2834  0.3603
   15SAPS   H5Y 1955   4.449   6.060   3.147 -0.2015 -0.0267  2.0805
   15SAPS   C36 1956   4.245   6.061   3.210  0.0938  0.3666 -0.7498
   15SAPS   H6X 1957   4.250   5.950   3.207 -2.2216  0.2502 -1.5047
   15SAPS   H6Y 1958   4.154   6.084   3.152 -0.9004  1.6875  1.2791
   15SAPS   C37 1959   4.235   6.112   3.357 -0.2708 -0.0722  0.2780
   15SAPS   H7X 1960   4.150   6.064   3.410 -0.3542  0.9092  1.0627
   15SAPS   H7Y 1961   4.231   6.222   3.342 -3.0280  0.3535  3.5639
   15SAPS   C38 1962   4.373   6.093   3.432 -0.0254  0.1140 -0.4511
   15SAPS   H8X 1963   4.444   6.171   3.396  1.3095  0.6706  3.2179
   15SAPS   H8Y 1964   4.416   5.993   3.410 -0.2039  0.1093 -0.7834
   15SAPS   C39 1965   4.360   6.116   3.582  0.1077  0.4502 -0.3214
   15SAPS   H9X 1966   4.295   6.048   3.641  0.4118 -0.7932 -1.4060
   15SAPS   H9Y 1967   4.309   6.214   3.583 -1.3668 -0.2795 -1.9612
   15SAPS  C310 1968   4.499   6.112   3.659  0.2915 -0.6309 -0.4644
   15SAPS  H10X 1969   4.557   6.191   3.606 -0.5097  2.5349  3.1479
   15SAPS  H10Y 1970   4.552   6.015   3.649 -1.5941 -2.0086  2.3494
   15SAPS  C311 1971   4.474   6.151   3.804 -0.6377 -0.3378 -0.4401
   15SAPS  H11X 1972   4.416   6.245   3.809 -2.3193 -1.3947  0.3587
   15SAPS  H11Y 1973   4.576   6.155   3.850 -0.3846 -4.2503 -0.5006
   15SAPS  C312 1974   4.403   6.036   3.882  0.1688 -0.0495  0.1892
   15SAPS  H12X 1975   4.447   5.942   3.843  2.1929  0.4202  1.2430
   15SAPS  H12Y 1976   4.298   6.031   3.847 -0.0889  1.0428  0.7446
   15SAPS  C313 1977   4.421   6.032   4.031  0.1704 -0.0905 -0.0200
   15SAPS  H13X 1978   4.523   5.994   4.055 -0.1738 -0.6555  0.5554
   15SAPS  H13Y 1979   4.342   5.969   4.076  0.4753  0.8252  1.8422
   15SAPS  C314 1980   4.398   6.171   4.094 -0.2212 -0.0451  0.1324
   15SAPS  H14X 1981   4.295   6.209   4.076 -0.0370  0.4296  0.0642
   15SAPS  H14Y 1982   4.455   6.254   4.046  0.9641 -0.6416  0.4913
   15SAPS  C315 1983   4.420   6.170   4.242 -0.6833 -0.1851  0.1645
   15SAPS  H15X 1984   4.522   6.132   4.264 -0.0002 -0.1998 -2.7829
   15SAPS  H15Y 1985   4.346   6.103   4.291 -0.7979 -1.2854 -1.4570
   15SAPS  C316 1986   4.415   6.304   4.302 -1.0117  0.1885 -0.0909
   15SAPS  H16X 1987   4.311   6.343   4.307 -1.1773  0.2242 -2.9631
   15SAPS  H16Y 1988   4.467   6.367   4.226  1.2957  1.1824  2.2129
   15SAPS  C317 1989   4.497   6.310   4.436 -1.4560  0.5097  0.4600
   15SAPS  H17X 1990   4.600   6.275   4.411 -0.3331  1.3718  3.6547
   15SAPS  H17Y 1991   4.458   6.236   4.509  0.4684  0.2321  1.2294
   15SAPS  C318 1992   4.509   6.448   4.491  0.0734 -0.2409 -0.3386
   15SAPS  H18X 1993   4.421   6.505   4.453 -0.2111 -0.7855 -0.5059
   15SAPS  H18Y 1994   4.600   6.503   4.461 -0.1121 -0.0780 -0.6120
   15SAPS  H18Z 1995   4.508   6.451   4.602  1.2719 -0.0717 -0.3300
   16SAPS     N 1996   6.483   4.312   2.080 -0.3139  0.1040  0.1851
   16SAPS   HN1 1997   6.405   4.270   2.134 -1.4046  1.4212 -0.3352
   16SAPS   HN2 1998   6.434   4.323   1.990 -0.7862  0.1238  0.4423
   16SAPS   HN3 1999   6.559   4.241   2.080  1.8324  2.3562 -0.7124
   16SAPS   C12 2000   6.534   4.441   2.126  0.1644 -0.3421  0.3215
   16SAPS  H12A 2001   6.571   4.421   2.225  2.1186  1.3074 -0.0497
   16SAPS   C13 2002   6.654   4.488   2.043  0.3802  0.3092 -0.5116
   16SAPS  O13A 2003   6.695   4.413   1.950 -0.6530 -0.2402 -0.2632
   16SAPS  O13B 2004   6.705   4.598   2.065 -0.6433 -0.4596 -0.5559
   16SAPS   C11 2005   6.423   4.550   2.106 -0.3373 -0.6978 -0.4989
   16SAPS  H11A 2006   6.401   4.580   2.001  0.0732  0.9029 -0.1495
   16SAPS  H11B 2007   6.465   4.640   2.156 -0.0758 -1.1753  0.1417
   16SAPS     P 2008   6.189   4.632   2.165  0.5183 -0.1570  0.4287
   16SAPS   O13 2009   6.239   4.740   2.255 -0.5809 -0.8324 -0.1839
   16SAPS   O14 2010   6.165   4.673   2.022  0.2850  0.3503 -0.0439
   16SAPS   O12 2011   6.298   4.515   2.166 -0.3469  0.1693 -0.6446
   16SAPS   O11 2012   6.053   4.569   2.228  0.5345  0.0981  0.1440
   16SAPS    C1 2013   6.044   4.425   2.244  0.1478  0.1900  0.1335
   16SAPS    HA 2014   6.040   4.379   2.143  0.4394  0.1271  0.1507
   16SAPS    HB 2015   6.125   4.377   2.304 -0.7884 -1.0409  0.4260
   16SAPS    C2 2016   5.914   4.377   2.326  0.0407 -0.3803  0.7103
   16SAPS    HS 2017   5.832   4.437   2.281  0.0469 -1.7896 -1.2797
   16SAPS   O21 2018   5.937   4.413   2.462  0.5093 -0.6154  0.3692
   16SAPS   C21 2019   5.914   4.536   2.501 -0.2147  0.3025 -0.6221
   16SAPS   O22 2020   5.844   4.615   2.437  0.0424 -0.1777 -0.5367
   16SAPS   C22 2021   5.979   4.556   2.634  0.0006 -0.4051 -0.5029
   16SAPS   H2R 2022   5.893   4.555   2.706 -1.2289  0.3296 -1.9369
   16SAPS   H2S 2023   6.042   4.470   2.666 -1.6154 -1.4359  0.0518
   16SAPS    C3 2024   5.883   4.224   2.311 -0.1712  0.6508 -1.2954
   16SAPS    HX 2025   5.978   4.171   2.334 -1.2950 -1.4982 -1.4261
   16SAPS    HY 2026   5.861   4.202   2.205 -0.2210  2.5449 -1.6877
   16SAPS   O31 2027   5.779   4.164   2.400 -0.4135 -0.6170 -0.2833
   16SAPS   C31 2028   5.663   4.185   2.367  0.3884 -0.0278  0.3284
   16SAPS   O32 2029   5.630   4.246   2.264 -0.3377 -0.5860  0.1469
   16SAPS   C32 2030   5.570   4.124   2.480  0.1052  1.0951  0.4263
   16SAPS   H2X 2031   5.623   4.108   2.576  0.0808 -1.4761  0.0484
   16SAPS   H2Y 2032   5.551   4.021   2.443  1.7908  0.5597  0.9914
   16SAPS   C23 2033   6.033   4.701   2.638  0.1313  1.0497  0.1771
   16SAPS   H3R 2034   5.955   4.775   2.610 -1.3791 -0.1811  1.0077
   16SAPS   H3S 2035   6.107   4.710   2.556  1.5252  1.2968  1.4324
   16SAPS   C24 2036   6.095   4.726   2.774 -0.2244  0.0733  0.4244
   16SAPS   H4R 2037   6.175   4.803   2.771 -0.8283  0.7595  1.4673
   16SAPS   H4S 2038   6.150   4.637   2.812 -0.5773 -1.2514 -2.0431
   16SAPS   C25 2039   5.987   4.764   2.870 -0.5276 -0.3863 -0.0428
   16SAPS   H5R 2040   5.909   4.825   2.822 -0.8513 -0.5360  0.2913
   16SAPS   C26 2041   5.976   4.727   3.000  0.3503 -0.1192 -0.1747
   16SAPS   H6R 2042   5.894   4.768   3.060  0.6829  0.8486 -0.3808
   16SAPS   C27 2043   6.069   4.637   3.074  0.7324 -0.4045  0.7686
   16SAPS   H7R 2044   6.135   4.584   3.001  0.3968  1.3715 -0.8642
   16SAPS   H7S 2045   6.011   4.558   3.125 -0.3167 -0.8593 -1.0841
   16SAPS   C28 2046   6.166   4.706   3.167 -0.8434  0.5289  0.0273
   16SAPS   H8R 2047   6.244   4.771   3.124 -1.1450 -0.2234 -1.7221
   16SAPS   C29 2048   6.180   4.675   3.300 -0.2588  0.1903  0.2892
   16SAPS   H9R 2049   6.241   4.735   3.369 -0.2681  0.0832  0.3901
   16SAPS  C210 2050   6.107   4.566   3.375 -0.4478 -0.7895  0.2917
   16SAPS  H10R 2051   6.175   4.518   3.449 -0.9456  1.5974  2.3913
   16SAPS  H10S 2052   6.081   4.482   3.307 -3.8172 -1.7333  2.6334
   16SAPS  C211 2053   5.977   4.602   3.436 -0.4230 -0.7957  0.1779
   16SAPS  H11R 2054   5.954   4.710   3.432  1.1206 -0.4475  0.3001
   16SAPS  C212 2055   5.893   4.526   3.512 -0.6309 -0.0011 -0.1035
   16SAPS  H12R 2056   5.801   4.571   3.554 -0.2937 -0.8154  1.5016
   16SAPS  C213 2057   5.911   4.381   3.545  0.0814  0.5438  0.4575
   16SAPS  H13R 2058   5.959   4.338   3.455 -1.6423 -0.0573 -0.1872
   16SAPS  H13S 2059   5.817   4.322   3.554  1.1093 -1.4928 -1.7334
   16SAPS  C214 2060   6.000   4.356   3.668 -0.1910  0.2148 -0.4566
   16SAPS  H14R 2061   6.051   4.438   3.719 -0.5956 -1.5145  2.8777
   16SAPS  C215 2062   5.994   4.231   3.723 -0.8640 -0.5186  0.4429
   16SAPS  H15R 2063   6.059   4.210   3.809  2.4111  0.2201 -1.7683
   16SAPS  C216 2064   5.919   4.109   3.674  0.1617  0.0676  0.7285
   16SAPS  H16R 2065   5.995   4.028   3.680  0.1558  0.0725  0.8781
   16SAPS  H16S 2066   5.882   4.125   3.570  1.2461  0.8491  0.4513
   16SAPS  C217 2067   5.794   4.074   3.761 -0.0182  0.5430  0.7035
   16SAPS  H17R 2068   5.711   4.142   3.730 -1.7262 -0.6363  2.5736
   16SAPS  H17S 2069   5.807   4.098   3.869 -0.4673  0.0758  0.8613
   16SAPS  C218 2070   5.754   3.927   3.739 -0.4120 -0.3070 -0.4597
   16SAPS  H18R 2071   5.838   3.860   3.765 -0.6275 -0.4027 -0.0118
   16SAPS  H18S 2072   5.734   3.907   3.631 -0.7313 -2.2699 -0.0557
   16SAPS  C219 2073   5.632   3.877   3.830 -0.0731 -0.1849 -0.7652
   16SAPS  H19R 2074   5.669   3.895   3.933 -0.7995 -3.2344  0.0925
   16SAPS  H19S 2075   5.624   3.767   3.812  1.3522 -0.2919 -0.8110
   16SAPS  C220 2076   5.494   3.933   3.807  0.5283 -0.3191  0.7863
   16SAPS  H20R 2077   5.415   3.882   3.866  0.6204  0.0019  1.1895
   16SAPS  H20S 2078   5.468   3.923   3.700  0.8917  2.0680  0.4539
   16SAPS  H20T 2079   5.485   4.039   3.837 -0.8851 -0.5597  1.2232
   16SAPS   C33 2080   5.432   4.188   2.491  0.2716 -0.3636  0.2430
   16SAPS   H3X 2081   5.372   4.112   2.545  0.6289 -2.0742 -1.7178
   16SAPS   H3Y 2082   5.371   4.208   2.400 -0.3200  0.2855  0.7812
   16SAPS   C34 2083   5.444   4.312   2.581  0.0046 -0.3318 -0.0417
   16SAPS   H4X 2084   5.503   4.298   2.674  0.9993 -0.8839 -0.7474
   16SAPS   H4Y 2085   5.340   4.324   2.618  0.0211  0.3166 -0.1872
   16SAPS   C35 2086   5.484   4.441   2.503 -0.4540  0.1637  0.4096
   16SAPS   H5X 2087   5.417   4.454   2.416  1.0238  1.1762 -0.6131
   16SAPS   H5Y 2088   5.589   4.422   2.471 -0.4940  0.6187 -0.0002
   16SAPS   C36 2089   5.485   4.570   2.589  0.0780  0.1752  0.6000
   16SAPS   H6X 2090   5.395   4.586   2.652  1.9007  2.9994  2.6045
   16SAPS   H6Y 2091   5.496   4.653   2.516 -1.8204  0.0889  0.1988
   16SAPS   C37 2092   5.611   4.580   2.680 -0.2089 -0.1742  0.1591
   16SAPS   H7X 2093   5.679   4.650   2.629 -1.4283  1.4156  0.6837
   16SAPS   H7Y 2094   5.668   4.484   2.674  0.9015  0.3748  1.6323
   16SAPS   C38 2095   5.597   4.635   2.824 -0.2690  0.2927  0.7493
   16SAPS   H8X 2096   5.559   4.739   2.815 -1.2371 -0.1767 -0.8130
   16SAPS   H8Y 2097   5.698   4.628   2.870  0.6215  1.0242 -1.0486
   16SAPS   C39 2098   5.504   4.548   2.911  0.0143  0.0477  1.3392
   16SAPS   H9X 2099   5.562   4.467   2.959  0.4652 -1.4561 -1.6177
   16SAPS   H9Y 2100   5.425   4.513   2.840  0.9738 -1.6394  1.0670
   16SAPS  C310 2101   5.439   4.635   3.022 -0.1730 -0.1413 -0.9532
   16SAPS  H10X 2102   5.374   4.569   3.083 -0.1839  0.8979  0.1707
   16SAPS  H10Y 2103   5.369   4.710   2.979 -1.2657 -0.7785 -0.3037
   16SAPS  C311 2104   5.535   4.707   3.116 -0.5023 -0.5010 -0.4673
   16SAPS  H11X 2105   5.564   4.807   3.077  1.5209 -0.9978 -0.3100
   16SAPS  H11Y 2106   5.619   4.635   3.129 -1.7664 -1.8314  0.4938
   16SAPS  C312 2107   5.480   4.724   3.259  0.1846 -0.5511 -0.1640
   16SAPS  H12X 2108   5.450   4.628   3.306 -1.3624  0.5121  1.0515
   16SAPS  H12Y 2109   5.396   4.796   3.268  1.2828  0.6708  0.5649
   16SAPS  C313 2110   5.602   4.771   3.354  0.4758 -0.5181 -0.0070
   16SAPS  H13X 2111   5.619   4.879   3.338 -0.2363 -0.1570  1.5670
   16SAPS  H13Y 2112   5.690   4.710   3.324 -0.8502 -2.0011 -0.9702
   16SAPS  C314 2113   5.582   4.717   3.500  0.0137 -1.2824  0.8855
   16SAPS  H14X 2114   5.680   4.739   3.548  1.8507  1.9606 -3.9765
   16SAPS  H14Y 2115   5.558   4.609   3.512  0.0056 -1.3246  0.5034
   16SAPS  C315 2116   5.477   4.796   3.573  0.8179  0.2041 -0.4283
   16SAPS  H15X 2117   5.375   4.798   3.528 -0.3796 -0.0559  2.1690
   16SAPS  H15Y 2118   5.507   4.903   3.580  0.5430  0.2332  0.3724
   16SAPS  C316 2119   5.453   4.742   3.717 -0.7109 -0.5826 -0.2935
   16SAPS  H16X 2120   5.552   4.717   3.761 -1.5018  1.1385  2.5813
   16SAPS  H16Y 2121   5.382   4.656   3.714  0.3196 -1.4611  0.1393
   16SAPS  C317 2122   5.379   4.842   3.816  0.0125  0.0164 -0.4509
   16SAPS  H17X 2123   5.275   4.859   3.779  0.1806 -0.9054 -1.3704
   16SAPS  H17Y 2124   5.418   4.946   3.809  0.2882 -0.1720 -1.9714
   16SAPS  C318 2125   5.371   4.801   3.959  0.0706  0.0412  0.3394
   16SAPS  H18X 2126   5.336   4.697   3.970 -1.1931  0.3890 -0.2712
   16SAPS  H18Y 2127   5.300   4.864   4.017  0.5228  0.7554  0.1377
   16SAPS  H18Z 2128   5.470   4.816   4.008 -0.4055 -1.1929  1.7141
   17SAPS     N 2129   2.349   6.003   2.160 -0.1570 -0.2528  0.3164
   17SAPS   HN1 2130   2.323   5.904   2.140 -2.6215  0.3798  0.2869
   17SAPS   HN2 2131   2.404   6.046   2.083  0.6188  0.2470  1.1403
   17SAPS   HN3 2132   2.404   6.007   2.249 -0.6242  1.5381  0.5296
   17SAPS   C12 2133   2.228   6.079   2.186 -0.2120 -0.2227  0.1419
   17SAPS  H12A 2134   2.219   6.103   2.291 -1.2321  0.9788 -0.2116
   17SAPS   C13 2135   2.227   6.213   2.119 -0.2928  0.8676  0.8216
   17SAPS  O13A 2136   2.312   6.237   2.029  0.5508 -1.1335  1.0689
   17SAPS  O13B 2137   2.131   6.296   2.139  0.3610  0.1582 -0.0281
   17SAPS   C11 2138   2.103   6.002   2.126  0.0047 -0.5868 -0.8910
   17SAPS  H11A 2139   2.117   6.002   2.016  0.0174  0.5781 -0.8951
   17SAPS  H11B 2140   2.004   6.048   2.149 -0.4260 -1.1003 -1.6948
   17SAPS     P 2141   2.005   5.820   2.296  0.1376 -0.7392  0.3737
   17SAPS   O13 2142   1.876   5.891   2.277 -0.1896  0.1003  0.0972
   17SAPS   O14 2143   1.992   5.673   2.298  0.2016 -0.2936  0.4947
   17SAPS   O12 2144   2.105   5.867   2.184  0.3497 -0.0677 -0.3024
   17SAPS   O11 2145   2.071   5.880   2.427  0.2481 -0.4004  0.5874
   17SAPS    C1 2146   2.177   5.812   2.498 -0.2225 -0.6032  0.1248
   17SAPS    HA 2147   2.257   5.786   2.425  0.7726  1.5299  0.4126
   17SAPS    HB 2148   2.235   5.881   2.563  0.9556  0.6531 -2.2073
   17SAPS    C2 2149   2.127   5.685   2.572  0.3512  0.5865 -0.5357
   17SAPS    HS 2150   2.094   5.609   2.498  1.1456 -1.6997  1.4169
   17SAPS   O21 2151   2.020   5.729   2.658 -0.0230 -0.5524  0.3465
   17SAPS   C21 2152   1.954   5.626   2.716  0.3147  0.5211  0.3966
   17SAPS   O22 2153   1.963   5.514   2.673  0.0987  0.2964  0.3197
   17SAPS   C22 2154   1.863   5.684   2.823  0.4478 -0.8563  0.0288
   17SAPS   H2R 2155   1.906   5.779   2.862 -2.0317  0.3624 -0.1363
   17SAPS   H2S 2156   1.769   5.711   2.771  0.1844 -3.5420 -0.9607
   17SAPS    C3 2157   2.244   5.622   2.649  0.1613  0.4425  0.7445
   17SAPS    HX 2158   2.311   5.580   2.570  0.4300 -0.9463  1.6904
   17SAPS    HY 2159   2.213   5.534   2.709 -2.1773  0.9438  0.3265
   17SAPS   O31 2160   2.313   5.721   2.727  0.7067 -0.1985 -0.7503
   17SAPS   C31 2161   2.275   5.736   2.847  0.6164  0.1827 -0.3756
   17SAPS   O32 2162   2.195   5.673   2.915 -0.2913 -0.1721 -0.1987
   17SAPS   C32 2163   2.340   5.857   2.905  0.7767 -0.5649 -0.2207
   17SAPS   H2X 2164   2.423   5.806   2.959 -0.5973 -1.9080  0.6437
   17SAPS   H2Y 2165   2.282   5.905   2.986  0.9176  0.7235 -0.8616
   17SAPS   C23 2166   1.815   5.583   2.935  0.7562  0.3507  0.2567
   17SAPS   H3R 2167   1.855   5.481   2.919 -0.0577  0.2488 -1.2522
   17SAPS   H3S 2168   1.707   5.572   2.910  0.8268  2.6416 -1.2312
   17SAPS   C24 2169   1.836   5.606   3.084 -0.6240 -0.8537 -0.3198
   17SAPS   H4R 2170   1.764   5.549   3.145 -0.7708 -1.0073 -0.6365
   17SAPS   H4S 2171   1.805   5.709   3.112  1.1370 -0.1966 -0.7388
   17SAPS   C25 2172   1.974   5.576   3.137  0.2683 -0.2964  0.4357
   17SAPS   H5R 2173   2.052   5.556   3.062 -1.2120  0.2096 -1.2610
   17SAPS   C26 2174   2.011   5.566   3.267 -1.0707  0.2380  0.0703
   17SAPS   H6R 2175   2.114   5.529   3.279 -0.4262  2.0481  0.3778
   17SAPS   C27 2176   1.932   5.577   3.399  0.6014 -0.0398 -0.1205
   17SAPS   H7R 2177   1.823   5.564   3.378  0.5880  1.2530 -0.8870
   17SAPS   H7S 2178   1.930   5.680   3.441 -0.4069  0.1257 -0.5342
   17SAPS   C28 2179   1.976   5.480   3.505  0.9853 -0.3196 -0.2168
   17SAPS   H8R 2180   2.021   5.385   3.472 -0.7058 -0.5301 -2.0678
   17SAPS   C29 2181   1.977   5.495   3.639  0.0666  0.0876 -0.8264
   17SAPS   H9R 2182   2.000   5.407   3.701 -4.9445 -0.7272  0.1468
   17SAPS  C210 2183   1.942   5.618   3.719 -0.2598 -0.2921 -0.7373
   17SAPS  H10R 2184   2.010   5.704   3.702 -0.4763  0.1863  0.7358
   17SAPS  H10S 2185   1.951   5.590   3.827 -3.4065 -0.0770 -0.3953
   17SAPS  C211 2186   1.797   5.654   3.704 -0.0917 -0.5849 -0.0292
   17SAPS  H11R 2187   1.744   5.601   3.624 -0.3273  0.0879 -0.3200
   17SAPS  C212 2188   1.739   5.760   3.761 -0.4251 -0.2499 -0.6273
   17SAPS  H12R 2189   1.632   5.784   3.750  0.3014  3.0476 -1.0434
   17SAPS  C213 2190   1.802   5.849   3.862  0.2751 -0.7442 -0.1170
   17SAPS  H13R 2191   1.879   5.917   3.819 -0.1486 -0.3828 -0.3151
   17SAPS  H13S 2192   1.863   5.788   3.932  0.4942 -1.6875 -1.1215
   17SAPS  C214 2193   1.720   5.947   3.942  0.6214  0.0429 -0.3917
   17SAPS  H14R 2194   1.613   5.926   3.934  0.3749  2.0104 -2.7482
   17SAPS  C215 2195   1.776   6.037   4.031 -0.1043  0.1663 -0.1091
   17SAPS  H15R 2196   1.716   6.101   4.098  0.3464 -0.6519  1.1063
   17SAPS  C216 2197   1.912   6.050   4.065  0.1631 -0.3749  0.1124
   17SAPS  H16R 2198   1.940   6.150   4.026 -0.4272  0.1947  1.1335
   17SAPS  H16S 2199   1.971   5.975   4.007  0.9986 -0.4404  1.0223
   17SAPS  C217 2200   1.919   6.042   4.222  0.0647  0.2004 -0.3077
   17SAPS  H17R 2201   1.864   6.130   4.262 -0.7954 -0.1501 -0.7024
   17SAPS  H17S 2202   2.023   6.069   4.247  0.3431 -1.3342  0.2598
   17SAPS  C218 2203   1.879   5.904   4.274  0.4705  0.5532 -0.2056
   17SAPS  H18R 2204   1.938   5.838   4.207 -0.0866 -0.3616  0.1902
   17SAPS  H18S 2205   1.774   5.885   4.244  0.6061 -0.3546 -0.1297
   17SAPS  C219 2206   1.913   5.885   4.427  0.3181 -0.7768 -0.5338
   17SAPS  H19R 2207   2.021   5.857   4.435  0.0283 -1.6204  0.5546
   17SAPS  H19S 2208   1.859   5.789   4.444 -3.3267  1.0251 -1.5638
   17SAPS  C220 2209   1.870   5.994   4.524  0.2199  0.5035  0.5450
   17SAPS  H20R 2210   1.932   6.084   4.504  1.0953 -0.2371 -0.0904
   17SAPS  H20S 2211   1.887   5.954   4.626  1.3118  0.8003  0.4792
   17SAPS  H20T 2212   1.764   6.026   4.513 -0.2710 -1.4716 -0.7437
   17SAPS   C33 2213   2.388   5.961   2.803  1.6120 -0.2383 -0.4057
   17SAPS   H3X 2214   2.301   5.988   2.740  2.0391  0.9939 -0.4908
   17SAPS   H3Y 2215   2.471   5.922   2.741  0.8045 -0.1800 -1.5192
   17SAPS   C34 2216   2.453   6.076   2.873 -0.5335 -0.0123 -0.7402
   17SAPS   H4X 2217   2.502   6.149   2.805  0.1409  0.8103  0.6124
   17SAPS   H4Y 2218   2.536   6.036   2.935 -0.6784 -0.7671 -1.0237
   17SAPS   C35 2219   2.379   6.158   2.980  0.0364  0.0551  0.6882
   17SAPS   H5X 2220   2.454   6.230   3.019 -1.2944  1.0129  1.5164
   17SAPS   H5Y 2221   2.336   6.098   3.063 -0.0733  0.0622  0.6352
   17SAPS   C36 2222   2.269   6.250   2.920 -0.0832  0.2036 -0.0040
   17SAPS   H6X 2223   2.182   6.187   2.892 -0.2623  0.6620 -0.4788
   17SAPS   H6Y 2224   2.314   6.295   2.829 -0.6707 -0.3182 -0.5563
   17SAPS   C37 2225   2.230   6.360   3.011 -0.2921  0.5168 -0.2718
   17SAPS   H7X 2226   2.154   6.421   2.957 -0.7652 -0.9404 -1.2832
   17SAPS   H7Y 2227   2.300   6.446   3.019  1.7939 -1.0789 -1.0224
   17SAPS   C38 2228   2.186   6.306   3.149 -0.4823  0.8378  0.1697
   17SAPS   H8X 2229   2.270   6.290   3.219  0.5306  1.4804 -0.8676
   17SAPS   H8Y 2230   2.145   6.204   3.134  2.1657 -0.0827 -1.0994
   17SAPS   C39 2231   2.063   6.375   3.215  0.1086  0.0916 -0.5217
   17SAPS   H9X 2232   2.006   6.417   3.129 -0.1957  1.0607  0.1381
   17SAPS   H9Y 2233   2.077   6.467   3.277 -2.3449  1.1652 -1.4607
   17SAPS  C310 2234   1.945   6.289   3.283 -0.9157 -0.2016  0.3513
   17SAPS  H10X 2235   1.996   6.231   3.363 -0.6120  2.4026  2.1330
   17SAPS  H10Y 2236   1.904   6.225   3.203  2.9789 -2.0996 -0.2508
   17SAPS  C311 2237   1.834   6.376   3.347  0.0739  0.5388  0.7149
   17SAPS  H11X 2238   1.741   6.324   3.315 -0.8239  2.1909  0.5943
   17SAPS  H11Y 2239   1.823   6.473   3.295 -1.2122 -0.2282 -0.4955
   17SAPS  C312 2240   1.835   6.390   3.497 -0.5166 -0.1655 -0.7239
   17SAPS  H12X 2241   1.931   6.435   3.531 -0.1375 -1.3377 -0.2143
   17SAPS  H12Y 2242   1.825   6.288   3.541  0.2031 -0.1927 -0.6129
   17SAPS  C313 2243   1.714   6.474   3.541  1.2591 -0.2921  0.4553
   17SAPS  H13X 2244   1.624   6.415   3.511 -0.6719  1.7172  2.0501
   17SAPS  H13Y 2245   1.705   6.560   3.472  1.9782  0.7076  1.6033
   17SAPS  C314 2246   1.714   6.514   3.689  0.0628  0.7868 -0.2110
   17SAPS  H14X 2247   1.798   6.585   3.704  1.1341 -0.4408 -0.3832
   17SAPS  H14Y 2248   1.725   6.433   3.765  1.6129  0.1850 -1.0678
   17SAPS  C315 2249   1.580   6.571   3.735 -0.2998 -0.4974  0.3673
   17SAPS  H15X 2250   1.498   6.503   3.705  1.2505 -1.2240 -2.4004
   17SAPS  H15Y 2251   1.563   6.669   3.685 -0.6449 -0.5210  0.4401
   17SAPS  C316 2252   1.575   6.584   3.891 -0.5002  0.2412 -0.7872
   17SAPS  H16X 2253   1.664   6.636   3.933 -0.2807 -1.2917  0.7013
   17SAPS  H16Y 2254   1.577   6.488   3.948 -1.9560 -0.4870 -1.9106
   17SAPS  C317 2255   1.449   6.670   3.923 -0.6968  0.1035  0.5195
   17SAPS  H17X 2256   1.360   6.629   3.870 -0.9090  4.2639 -2.6099
   17SAPS  H17Y 2257   1.473   6.766   3.872  0.7171 -0.4450  0.1401
   17SAPS  C318 2258   1.442   6.686   4.068  0.7582  0.1425 -0.4775
   17SAPS  H18X 2259   1.530   6.748   4.096  0.1137  1.4164 -1.2780
   17SAPS  H18Y 2260   1.450   6.586   4.118 -0.3592  0.8963  1.2614
   17SAPS  H18Z 2261   1.344   6.726   4.101  0.1635  0.2341 -2.3112
   18SAPS     N 2262   6.769   3.767   1.910  1.0190 -0.1940  0.2616
   18SAPS   HN1 2263   6.675   3.805   1.886  0.2804 -2.6024 -0.7204
   18SAPS   HN2 2264   6.795   3.780   2.010 -1.6308  1.3678  0.7969
   18SAPS   HN3 2265   6.838   3.821   1.854  1.2892 -0.2213  0.5704
   18SAPS   C12 2266   6.769   3.627   1.868  0.0561  0.2620  0.1285
   18SAPS  H12A 2267   6.705   3.604   1.784 -0.0302  2.2071 -0.3589
   18SAPS   C13 2268   6.913   3.583   1.827  0.1786 -0.4640 -0.4680
   18SAPS  O13A 2269   7.012   3.666   1.836 -0.5261 -0.3590  0.2108
   18SAPS  O13B 2270   6.937   3.473   1.766 -0.6215  0.2109 -0.0900
   18SAPS   C11 2271   6.726   3.535   1.989 -1.2317  0.0879  0.4210
   18SAPS  H11A 2272   6.809   3.522   2.062  2.1241  2.1415 -2.8291
   18SAPS  H11B 2273   6.709   3.434   1.945  0.6082 -0.3237  0.6247
   18SAPS     P 2274   6.565   3.672   2.165  0.4492  0.1199 -0.4192
   18SAPS   O13 2275   6.589   3.813   2.132 -0.7603  0.0878 -0.2087
   18SAPS   O14 2276   6.432   3.642   2.221  0.4282  0.2719 -0.2029
   18SAPS   O12 2277   6.597   3.580   2.039  0.5879 -0.0451 -0.5529
   18SAPS   O11 2278   6.678   3.626   2.257  0.3280 -0.3550 -0.4243
   18SAPS    C1 2279   6.680   3.485   2.305  0.2823  0.0364 -0.5045
   18SAPS    HA 2280   6.585   3.432   2.283 -0.2464  1.0964 -0.8224
   18SAPS    HB 2281   6.757   3.423   2.255 -1.3854  0.9512 -4.4115
   18SAPS    C2 2282   6.718   3.467   2.453 -0.6558  0.1280 -0.0254
   18SAPS    HS 2283   6.624   3.502   2.503 -0.7202  1.3287 -0.9469
   18SAPS   O21 2284   6.836   3.544   2.485  0.0829  0.1603 -0.3737
   18SAPS   C21 2285   6.833   3.586   2.609 -1.0011  0.6473  0.1971
   18SAPS   O22 2286   6.737   3.590   2.688 -0.3874  0.1793  0.3349
   18SAPS   C22 2287   6.979   3.622   2.654  1.0196 -0.0006  0.1820
   18SAPS   H2R 2288   6.999   3.540   2.727 -0.4894 -1.1177 -0.6324
   18SAPS   H2S 2289   7.047   3.627   2.567  2.6518  1.3609  1.4906
   18SAPS    C3 2290   6.738   3.320   2.489 -0.6322 -0.2247  0.0581
   18SAPS    HX 2291   6.841   3.290   2.458  0.5201  2.3832  1.2574
   18SAPS    HY 2292   6.676   3.251   2.427  0.1360 -0.7091 -0.1873
   18SAPS   O31 2293   6.687   3.292   2.634 -0.0483  0.5256 -0.0958
   18SAPS   C31 2294   6.786   3.255   2.713 -0.0172  0.5481 -0.3617
   18SAPS   O32 2295   6.905   3.254   2.686 -0.4837  0.0696  0.5570
   18SAPS   C32 2296   6.725   3.223   2.852 -0.4207 -0.5456  0.2111
   18SAPS   H2X 2297   6.726   3.112   2.855 -1.2448 -0.5571  0.1521
   18SAPS   H2Y 2298   6.617   3.246   2.856 -0.1819  0.7996 -0.8133
   18SAPS   C23 2299   6.994   3.757   2.725 -0.0331 -0.7302  0.7302
   18SAPS   H3R 2300   6.896   3.797   2.759  0.3990  0.7568  0.2641
   18SAPS   H3S 2301   7.027   3.842   2.662 -1.0037 -0.0850  1.0752
   18SAPS   C24 2302   7.093   3.748   2.839 -0.3963  0.0347  0.2650
   18SAPS   H4R 2303   7.122   3.845   2.884  0.2521  0.0839 -0.2614
   18SAPS   H4S 2304   7.187   3.699   2.806 -0.3431 -0.1830  0.7322
   18SAPS   C25 2305   7.026   3.668   2.945 -0.5753 -0.3258  0.2673
   18SAPS   H5R 2306   6.919   3.687   2.960 -0.8391 -2.0490  0.6372
   18SAPS   C26 2307   7.086   3.572   3.019 -0.1892 -0.5094 -0.1996
   18SAPS   H6R 2308   7.022   3.521   3.094  0.2847 -0.6913  0.0820
   18SAPS   C27 2309   7.226   3.523   3.014  0.1730  0.3220 -0.2486
   18SAPS   H7R 2310   7.272   3.532   3.115 -1.0108 -1.1864  0.4390
   18SAPS   H7S 2311   7.287   3.571   2.934 -2.0813  1.2602 -1.4275
   18SAPS   C28 2312   7.224   3.377   2.989  0.1866  0.1956 -0.3462
   18SAPS   H8R 2313   7.163   3.352   2.901 -1.5441 -1.8044  1.3416
   18SAPS   C29 2314   7.276   3.273   3.065  0.0911 -0.2527  0.0892
   18SAPS   H9R 2315   7.292   3.180   3.008  0.9115  0.6069 -1.0941
   18SAPS  C210 2316   7.352   3.290   3.197 -0.2957  0.2593 -0.5792
   18SAPS  H10R 2317   7.283   3.308   3.282  0.8857 -2.6467  1.0305
   18SAPS  H10S 2318   7.414   3.382   3.196  1.4064 -0.8670 -0.5902
   18SAPS  C211 2319   7.443   3.172   3.230 -0.4477  0.4149 -0.2626
   18SAPS  H11R 2320   7.503   3.151   3.140 -2.5125  0.7456 -1.7862
   18SAPS  C212 2321   7.462   3.110   3.351  0.5205 -0.1122 -0.1561
   18SAPS  H12R 2322   7.530   3.024   3.362 -3.0497 -3.1802 -1.1615
   18SAPS  C213 2323   7.404   3.163   3.485 -0.1669 -0.1479  0.8427
   18SAPS  H13R 2324   7.420   3.271   3.507  0.3010 -0.2871  1.1885
   18SAPS  H13S 2325   7.448   3.107   3.570 -0.3234 -1.5934  0.0023
   18SAPS  C214 2326   7.257   3.106   3.487  0.0978  0.9503  0.1147
   18SAPS  H14R 2327   7.242   2.999   3.462  0.8967 -0.1986  4.1422
   18SAPS  C215 2328   7.153   3.169   3.534 -0.4663  0.7306 -0.3126
   18SAPS  H15R 2329   7.049   3.135   3.522 -0.8561  1.2436  1.4743
   18SAPS  C216 2330   7.136   3.315   3.579  0.5301  0.1579 -0.4112
   18SAPS  H16R 2331   7.033   3.355   3.564  1.0075  1.5614 -0.0202
   18SAPS  H16S 2332   7.203   3.386   3.526  0.3854  0.7233  0.1588
   18SAPS  C217 2333   7.159   3.327   3.731 -0.5024  0.8750  0.0299
   18SAPS  H17R 2334   7.163   3.433   3.763  1.6760  0.2207  2.0845
   18SAPS  H17S 2335   7.262   3.289   3.750 -0.5049  0.9124  0.1230
   18SAPS  C218 2336   7.066   3.242   3.822  0.1060  0.5323 -0.7385
   18SAPS  H18R 2337   7.093   3.136   3.802  1.1552  0.6221  0.1213
   18SAPS  H18S 2338   6.964   3.276   3.794  0.6060  1.1789 -1.7988
   18SAPS  C219 2339   7.099   3.266   3.974  0.2901  0.4118  0.1848
   18SAPS  H19R 2340   7.204   3.232   3.991  0.6151  0.6194 -1.3405
   18SAPS  H19S 2341   7.037   3.193   4.030  0.2960  0.8158  0.7265
   18SAPS  C220 2342   7.083   3.406   4.025 -0.1341 -0.1482  0.7759
   18SAPS  H20R 2343   7.172   3.463   3.991  1.3308 -2.2256  1.0235
   18SAPS  H20S 2344   7.084   3.410   4.136 -2.3312 -1.3275  0.8789
   18SAPS  H20T 2345   6.988   3.449   3.986 -0.3311 -1.6801 -0.4934
   18SAPS   C33 2346   6.799   3.281   2.971  0.2894  0.7103 -0.0228
   18SAPS   H3X 2347   6.802   3.392   2.965 -1.6426  0.7009 -1.6262
   18SAPS   H3Y 2348   6.903   3.242   2.975 -0.4272 -1.0613  1.8728
   18SAPS   C34 2349   6.737   3.239   3.107 -0.1275  0.0664 -0.2373
   18SAPS   H4X 2350   6.761   3.134   3.134  2.9192  0.7656 -0.0882
   18SAPS   H4Y 2351   6.627   3.254   3.103  0.1361  1.9890 -0.5881
   18SAPS   C35 2352   6.794   3.317   3.229 -0.4824 -0.2763 -0.3754
   18SAPS   H5X 2353   6.772   3.426   3.229  1.8827  0.2406  0.8324
   18SAPS   H5Y 2354   6.904   3.308   3.218 -0.1561  2.5485  0.2130
   18SAPS   C36 2355   6.763   3.248   3.357  0.3331 -0.1553 -0.6159
   18SAPS   H6X 2356   6.829   3.299   3.431 -3.7704 -0.2504  3.3075
   18SAPS   H6Y 2357   6.788   3.140   3.358 -1.8283 -0.6612 -0.0958
   18SAPS   C37 2358   6.621   3.281   3.413 -0.0316  0.0134 -0.2561
   18SAPS   H7X 2359   6.533   3.248   3.355 -1.4312  1.3271  1.0662
   18SAPS   H7Y 2360   6.599   3.389   3.420  0.7798  0.1752 -0.1578
   18SAPS   C38 2361   6.618   3.208   3.552  0.0376  0.7416  0.5396
   18SAPS   H8X 2362   6.672   3.111   3.543 -1.6815 -0.3994  2.2119
   18SAPS   H8Y 2363   6.512   3.189   3.577  1.0852 -2.2028  3.0573
   18SAPS   C39 2364   6.682   3.283   3.668 -0.0202  0.1982  0.3317
   18SAPS   H9X 2365   6.645   3.387   3.654 -0.8166 -0.2085 -0.6807
   18SAPS   H9Y 2366   6.792   3.297   3.665 -0.0415  1.3527  3.4856
   18SAPS  C310 2367   6.645   3.239   3.805  0.3739  0.0284 -0.0001
   18SAPS  H10X 2368   6.697   3.142   3.817 -0.5546 -0.6115 -1.0342
   18SAPS  H10Y 2369   6.536   3.226   3.819  0.2657  0.5786 -0.3053
   18SAPS  C311 2370   6.692   3.331   3.914 -0.6611 -0.7005 -0.2252
   18SAPS  H11X 2371   6.641   3.428   3.896  1.9864  0.2781 -3.0174
   18SAPS  H11Y 2372   6.800   3.351   3.901 -1.1750  1.6091 -1.3100
   18SAPS  C312 2373   6.664   3.284   4.057  0.4097  0.1354  0.2273
   18SAPS  H12X 2374   6.663   3.173   4.043 -2.7055  0.3453 -1.6956
   18SAPS  H12Y 2375   6.557   3.307   4.075  0.0730  0.1158 -1.6040
   18SAPS  C313 2376   6.741   3.350   4.165 -0.5026  0.3669 -0.0398
   18SAPS  H13X 2377   6.852   3.339   4.165 -0.2663  2.4775 -0.6110
   18SAPS  H13Y 2378   6.702   3.304   4.259 -1.3064 -3.2688 -2.0862
   18SAPS  C314 2379   6.708   3.502   4.165 -0.7829  0.2422  0.0262
   18SAPS  H14X 2380   6.601   3.504   4.195 -1.3896  3.5258 -2.1760
   18SAPS  H14Y 2381   6.718   3.538   4.061  0.3381 -0.3602 -0.0899
   18SAPS  C315 2382   6.795   3.587   4.258 -0.7097  0.2357 -0.0215
   18SAPS  H15X 2383   6.904   3.577   4.238 -0.6543 -0.4398  0.5926
   18SAPS  H15Y 2384   6.785   3.561   4.365  2.2377  1.0026  0.4821
   18SAPS  C316 2385   6.762   3.739   4.244 -0.9445 -0.3422 -0.3834
   18SAPS  H16X 2386   6.658   3.752   4.283 -0.3301 -0.2336  1.2535
   18SAPS  H16Y 2387   6.764   3.770   4.137 -0.5777 -1.0995 -0.5921
   18SAPS  C317 2388   6.856   3.831   4.329 -0.6429 -0.1576 -1.3657
   18SAPS  H17X 2389   6.965   3.813   4.317 -0.2300  1.7663 -0.5776
   18SAPS  H17Y 2390   6.841   3.798   4.434  0.2169  0.1191 -1.1550
   18SAPS  C318 2391   6.818   3.980   4.318  0.0474  0.2603 -0.1914
   18SAPS  H18X 2392   6.708   3.986   4.329  0.3050 -0.5524  3.3745
   18SAPS  H18Y 2393   6.847   4.024   4.220 -2.1953 -0.5298 -1.2533
   18SAPS  H18Z 2394   6.859   4.037   4.404  0.0662  1.8150 -1.2110
   19SAPS     N 2395   2.454   0.846   2.231 -0.0658  0.0650 -0.2873
   19SAPS   HN1 2396   2.365   0.870   2.279  0.1889 -1.0639  0.7611
   19SAPS   HN2 2397   2.530   0.838   2.301 -1.4797 -0.4128  1.1981
   19SAPS   HN3 2398   2.491   0.918   2.165 -1.5281  0.2287 -0.9544
   19SAPS   C12 2399   2.439   0.715   2.156  0.5394  0.2498 -0.4604
   19SAPS  H12A 2400   2.376   0.662   2.226 -1.6974  1.8155 -1.2569
   19SAPS   C13 2401   2.355   0.716   2.029 -0.2390  0.0220 -0.0350
   19SAPS  O13A 2402   2.295   0.823   2.004  0.3251 -0.2293  0.2022
   19SAPS  O13B 2403   2.370   0.625   1.941 -0.4045  0.4444 -0.2344
   19SAPS   C11 2404   2.575   0.654   2.131 -0.1168  0.1521  0.3700
   19SAPS  H11A 2405   2.568   0.559   2.073  2.3238  1.0424 -1.4494
   19SAPS  H11B 2406   2.624   0.632   2.228 -1.0488 -1.9380  0.3909
   19SAPS     P 2407   2.804   0.722   2.045 -0.1319  0.7561  0.6064
   19SAPS   O13 2408   2.818   0.592   1.977 -0.3950  0.0398 -0.5404
   19SAPS   O14 2409   2.866   0.838   1.973 -0.2753 -0.3479  0.3234
   19SAPS   O12 2410   2.653   0.752   2.061  0.0236  0.3538 -0.2908
   19SAPS   O11 2411   2.851   0.720   2.194 -0.1090 -0.0937 -0.2408
   19SAPS    C1 2412   2.995   0.712   2.209  0.1990 -0.0825  0.6106
   19SAPS    HA 2413   3.051   0.718   2.113 -0.0203  1.6528  0.5654
   19SAPS    HB 2414   3.032   0.801   2.264 -1.4493  1.0409 -0.0276
   19SAPS    C2 2415   3.041   0.574   2.273  0.1467  0.1913 -0.1703
   19SAPS    HS 2416   3.011   0.503   2.193  0.0487  1.3160 -1.1559
   19SAPS   O21 2417   2.981   0.560   2.400 -0.1433  0.2182  0.1912
   19SAPS   C21 2418   2.964   0.425   2.434 -0.3093 -0.7744  0.2257
   19SAPS   O22 2419   2.982   0.329   2.363  0.0544  0.6607  0.1887
   19SAPS   C22 2420   2.915   0.427   2.578  0.3743 -0.2891 -0.0575
   19SAPS   H2R 2421   3.003   0.462   2.636  0.5710 -1.4363  0.3489
   19SAPS   H2S 2422   2.821   0.487   2.583  0.0525 -0.4212 -3.6208
   19SAPS    C3 2423   3.193   0.571   2.280 -0.2371  0.2432 -0.2089
   19SAPS    HX 2424   3.234   0.592   2.179  1.1603 -0.3545  0.2129
   19SAPS    HY 2425   3.230   0.468   2.300 -1.4941 -0.2945 -0.6303
   19SAPS   O31 2426   3.245   0.667   2.385 -0.7157 -0.6995 -0.3713
   19SAPS   C31 2427   3.268   0.632   2.512  0.4809 -0.0973  0.5644
   19SAPS   O32 2428   3.245   0.517   2.552 -0.4585 -0.0010 -0.4522
   19SAPS   C32 2429   3.340   0.752   2.582 -0.1950  0.7336 -0.0115
   19SAPS   H2X 2430   3.295   0.842   2.534  1.2763  1.0731 -0.7703
   19SAPS   H2Y 2431   3.441   0.746   2.537 -1.3778 -1.5395 -2.4961
   19SAPS   C23 2432   2.885   0.280   2.637  0.8332 -0.0403 -0.1212
   19SAPS   H3R 2433   2.976   0.219   2.623  3.6872  2.8249  4.5558
   19SAPS   H3S 2434   2.798   0.233   2.586  0.5612  0.7927 -0.4434
   19SAPS   C24 2435   2.853   0.272   2.788 -0.1445 -0.3791  0.0863
   19SAPS   H4R 2436   2.865   0.166   2.817 -0.1945  0.3689  2.9325
   19SAPS   H4S 2437   2.752   0.311   2.815 -0.7563 -2.8126  1.4629
   19SAPS   C25 2438   2.953   0.346   2.874  0.4036  0.6056 -0.1297
   19SAPS   H5R 2439   3.059   0.337   2.848  0.3550  2.9919 -1.2758
   19SAPS   C26 2440   2.924   0.408   2.992  0.2834  0.0443 -0.3716
   19SAPS   H6R 2441   3.008   0.449   3.051  0.0741  0.2648 -0.2277
   19SAPS   C27 2442   2.795   0.415   3.069  0.5845  0.2560  0.4609
   19SAPS   H7R 2443   2.713   0.441   2.999  0.6727  0.8666  0.5804
   19SAPS   H7S 2444   2.808   0.502   3.137  2.6338 -0.7822  1.4353
   19SAPS   C28 2445   2.744   0.283   3.138  0.5307 -0.6007 -0.6230
   19SAPS   H8R 2446   2.744   0.195   3.072  2.7927  0.3088 -1.8768
   19SAPS   C29 2447   2.709   0.271   3.268 -0.8644 -0.0489  0.3003
   19SAPS   H9R 2448   2.662   0.175   3.294  1.8864 -1.4652  0.2139
   19SAPS  C210 2449   2.707   0.371   3.378  0.5282 -0.4889  0.4980
   19SAPS  H10R 2450   2.772   0.457   3.353 -0.4146  0.6849  1.9782
   19SAPS  H10S 2451   2.740   0.330   3.476  0.0100  0.9986  1.3047
   19SAPS  C211 2452   2.572   0.435   3.406  0.0057 -0.7372  0.3151
   19SAPS  H11R 2453   2.538   0.516   3.339  2.0091  0.2581  0.4407
   19SAPS  C212 2454   2.478   0.397   3.494 -0.0326  0.3355 -0.5748
   19SAPS  H12R 2455   2.392   0.464   3.512  0.4299  0.7841 -0.0408
   19SAPS  C213 2456   2.487   0.278   3.596  0.4263 -0.5436  0.6521
   19SAPS  H13R 2457   2.553   0.201   3.551 -2.3738 -3.9189  2.1114
   19SAPS  H13S 2458   2.391   0.224   3.609  1.6959 -2.2870  3.0912
   19SAPS  C214 2459   2.540   0.315   3.731  0.3670  0.2410  0.1638
   19SAPS  H14R 2460   2.546   0.424   3.747  0.1610  0.4733 -1.2546
   19SAPS  C215 2461   2.564   0.230   3.835  0.2350 -0.4548  0.0662
   19SAPS  H15R 2462   2.614   0.267   3.926 -1.8709 -0.2908  1.1921
   19SAPS  C216 2463   2.559   0.084   3.828 -0.0139  0.2465 -0.4410
   19SAPS  H16R 2464   2.652   0.030   3.799  0.9394  1.2184  0.7721
   19SAPS  H16S 2465   2.486   0.039   3.757 -0.9920 -0.5875  1.0529
   19SAPS  C217 2466   2.519   0.014   3.964 -0.5818  0.0290 -0.1348
   19SAPS  H17R 2467   2.571   0.065   4.048 -0.1789  1.6199 -1.3312
   19SAPS  H17S 2468   2.533  -0.096   3.958 -0.2543 -0.0243  1.3870
   19SAPS  C218 2469   2.373   0.024   4.001 -0.1685 -0.9014  0.0088
   19SAPS  H18R 2470   2.333  -0.045   3.924  1.0284 -0.3884 -1.0860
   19SAPS  H18S 2471   2.327   0.119   3.968 -1.9424 -1.9198 -0.5288
   19SAPS  C219 2472   2.330  -0.021   4.138  0.1188  1.4507 -0.3983
   19SAPS  H19R 2473   2.354   0.061   4.209  0.3672  1.4234 -0.4510
   19SAPS  H19S 2474   2.389  -0.115   4.151 -1.0382  0.7609  0.0274
   19SAPS  C220 2475   2.180  -0.050   4.147  0.6119 -0.2019  0.1554
   19SAPS  H20R 2476   2.117   0.040   4.129 -0.9215 -0.9269  1.8272
   19SAPS  H20S 2477   2.161  -0.077   4.253  1.0652  1.0138  0.5538
   19SAPS  H20T 2478   2.158  -0.126   4.069 -0.5968  0.1591  0.1306
   19SAPS   C33 2479   3.325   0.734   2.736 -0.0726 -0.6155 -0.2548
   19SAPS   H3X 2480   3.220   0.713   2.767  0.4488  0.2981  2.2985
   19SAPS   H3Y 2481   3.373   0.827   2.774  1.6063 -0.5973 -2.3546
   19SAPS   C34 2482   3.421   0.622   2.799 -0.3417  0.4444  1.1851
   19SAPS   H4X 2483   3.528   0.629   2.768 -0.4153 -0.8988  0.6124
   19SAPS   H4Y 2484   3.383   0.524   2.764  1.3929  1.0096 -2.5351
   19SAPS   C35 2485   3.419   0.625   2.954 -0.2578 -0.1279 -0.3683
   19SAPS   H5X 2486   3.445   0.730   2.979 -0.2385  0.0024 -0.9275
   19SAPS   H5Y 2487   3.499   0.564   3.003 -1.5415  0.3910  2.4725
   19SAPS   C36 2488   3.289   0.583   3.017  0.1153  0.2890  0.7360
   19SAPS   H6X 2489   3.262   0.478   2.995 -0.0767  0.9192 -2.2436
   19SAPS   H6Y 2490   3.211   0.657   2.990 -0.9735 -1.2536 -0.4429
   19SAPS   C37 2491   3.300   0.590   3.167  0.0578  0.3235  0.4317
   19SAPS   H7X 2492   3.331   0.693   3.194  1.9837 -0.3599  0.9170
   19SAPS   H7Y 2493   3.371   0.520   3.216 -1.1662  0.2269  2.1009
   19SAPS   C38 2494   3.160   0.577   3.234  0.3405  0.0833  0.2748
   19SAPS   H8X 2495   3.131   0.470   3.220 -1.4411  0.6818 -0.8038
   19SAPS   H8Y 2496   3.085   0.643   3.185  0.7041  0.5278  0.3101
   19SAPS   C39 2497   3.161   0.610   3.377 -0.3314  0.6002 -0.1198
   19SAPS   H9X 2498   3.188   0.717   3.396  0.8521 -0.2873  3.6512
   19SAPS   H9Y 2499   3.218   0.537   3.438 -0.1005  1.1566  0.3379
   19SAPS  C310 2500   3.011   0.600   3.436  0.3521  0.0519  0.5227
   19SAPS  H10X 2501   2.989   0.491   3.425  0.7259 -0.0224  0.4783
   19SAPS  H10Y 2502   2.934   0.654   3.378  0.6621  0.0189  0.0784
   19SAPS  C311 2503   2.994   0.650   3.582  0.1236 -0.1631 -0.3386
   19SAPS  H11X 2504   3.085   0.711   3.601 -1.1771  1.9040 -0.5722
   19SAPS  H11Y 2505   3.018   0.560   3.643  0.9593  1.2032  1.3938
   19SAPS  C312 2506   2.854   0.686   3.618 -0.4410 -0.2151  0.0712
   19SAPS  H12X 2507   2.780   0.614   3.577 -0.3564 -2.2507  3.3602
   19SAPS  H12Y 2508   2.826   0.789   3.588 -2.7213 -0.5070  1.1365
   19SAPS  C313 2509   2.832   0.674   3.767  0.2611 -0.4337 -0.1410
   19SAPS  H13X 2510   2.894   0.734   3.837  1.1193 -0.3908 -0.9224
   19SAPS  H13Y 2511   2.852   0.568   3.792  1.9363 -0.1138 -0.0396
   19SAPS  C314 2512   2.677   0.696   3.791  0.1167  0.1278 -0.0589
   19SAPS  H14X 2513   2.615   0.622   3.737  2.2402 -2.7161  1.2366
   19SAPS  H14Y 2514   2.657   0.805   3.781  1.5160  0.3864 -0.1463
   19SAPS  C315 2515   2.632   0.661   3.934  0.2237  0.3670  0.3114
   19SAPS  H15X 2516   2.621   0.551   3.943 -1.3092  0.2344 -2.4296
   19SAPS  H15Y 2517   2.524   0.689   3.934  0.2344  0.4118  0.8105
   19SAPS  C316 2518   2.718   0.713   4.051 -0.1937 -0.5288  0.0967
   19SAPS  H16X 2519   2.697   0.820   4.071 -1.3011 -1.1931  2.7635
   19SAPS  H16Y 2520   2.826   0.709   4.026 -0.2528 -0.0822 -0.2269
   19SAPS  C317 2521   2.681   0.639   4.173  0.0517  0.4821  0.6276
   19SAPS  H17X 2522   2.700   0.529   4.173 -0.7516  0.3275 -0.3593
   19SAPS  H17Y 2523   2.571   0.652   4.188 -0.2289 -0.3941 -0.5399
   19SAPS  C318 2524   2.765   0.701   4.288  0.4561 -0.7783  0.4714
   19SAPS  H18X 2525   2.735   0.807   4.301  1.3365 -0.4824  0.1713
   19SAPS  H18Y 2526   2.875   0.703   4.269  0.6075 -2.2960  1.1207
   19SAPS  H18Z 2527   2.738   0.645   4.380  0.4788 -2.4871 -0.5342
   20SAPS     N 2528   4.373   0.331   1.899  0.8696 -0.2221  0.6079
   20SAPS   HN1 2529   4.427   0.303   1.815  0.6981  0.1728  0.3673
   20SAPS   HN2 2530   4.418   0.298   1.987  1.1799  1.1524  0.9689
   20SAPS   HN3 2531   4.273   0.304   1.887  0.3852  2.4262 -1.8804
   20SAPS   C12 2532   4.367   0.486   1.889  0.2573 -0.1436  0.4525
   20SAPS  H12A 2533   4.468   0.523   1.895  0.5299 -0.9111  0.6361
   20SAPS   C13 2534   4.302   0.560   1.767 -0.0602 -0.4315  0.7208
   20SAPS  O13A 2535   4.280   0.481   1.670  0.7089 -0.2022 -0.2915
   20SAPS  O13B 2536   4.312   0.682   1.754 -0.1419  0.4029 -0.6023
   20SAPS   C11 2537   4.288   0.523   2.010  0.0902 -0.8840 -0.3100
   20SAPS  H11A 2538   4.198   0.458   2.014  0.1947 -1.1255 -1.6667
   20SAPS  H11B 2539   4.264   0.630   1.993  2.4229 -0.4320 -0.9162
   20SAPS     P 2540   4.319   0.550   2.275 -0.0274  0.3773 -0.1676
   20SAPS   O13 2541   4.363   0.440   2.360  0.0659 -0.2646  1.2304
   20SAPS   O14 2542   4.370   0.688   2.302 -0.0819 -0.8235  0.3102
   20SAPS   O12 2543   4.374   0.521   2.123  0.2156 -0.2782  0.2091
   20SAPS   O11 2544   4.156   0.551   2.261 -0.0408  0.2367 -0.5759
   20SAPS    C1 2545   4.072   0.647   2.326  0.4933 -0.0736 -0.3130
   20SAPS    HA 2546   4.129   0.688   2.412 -0.9445 -1.3041  1.2754
   20SAPS    HB 2547   4.036   0.716   2.247 -0.4899  2.8562  2.5738
   20SAPS    C2 2548   3.944   0.584   2.390 -1.1115 -0.6530 -0.2884
   20SAPS    HS 2549   3.902   0.643   2.475  1.9668 -2.3800  2.5644
   20SAPS   O21 2550   3.978   0.461   2.458  0.1981 -0.6471 -0.5235
   20SAPS   C21 2551   4.052   0.474   2.572 -0.0418 -0.4277 -0.0277
   20SAPS   O22 2552   4.067   0.575   2.632  0.7939  0.1768 -0.4474
   20SAPS   C22 2553   4.104   0.335   2.621  1.0814  0.1637 -0.2294
   20SAPS   H2R 2554   4.012   0.313   2.678  0.1879  3.2617 -0.3801
   20SAPS   H2S 2555   4.121   0.278   2.528 -0.0264 -0.3055 -0.1484
   20SAPS    C3 2556   3.837   0.573   2.274  0.0446 -0.0487 -0.5832
   20SAPS    HX 2557   3.880   0.517   2.188 -0.6810 -2.4909  0.5801
   20SAPS    HY 2558   3.835   0.679   2.242  0.7637  0.6273  1.5306
   20SAPS   O31 2559   3.708   0.530   2.321  0.3269  0.3354  0.0919
   20SAPS   C31 2560   3.697   0.403   2.309  0.4054  0.5445 -0.4771
   20SAPS   O32 2561   3.771   0.325   2.257 -0.2564  0.6389 -0.3742
   20SAPS   C32 2562   3.574   0.353   2.391  0.0315  0.1284 -0.3887
   20SAPS   H2X 2563   3.571   0.243   2.372  1.1507  0.1796 -0.9113
   20SAPS   H2Y 2564   3.478   0.399   2.362 -1.6053 -0.2390  4.1608
   20SAPS   C23 2565   4.230   0.352   2.703 -0.2361  0.7063  0.3703
   20SAPS   H3R 2566   4.214   0.421   2.789  1.6732  1.8912 -0.1881
   20SAPS   H3S 2567   4.306   0.393   2.633 -1.3151 -0.1977 -1.3629
   20SAPS   C24 2568   4.302   0.225   2.755  0.0112 -0.1084  0.0077
   20SAPS   H4R 2569   4.396   0.262   2.800 -0.9396  0.1911  1.7966
   20SAPS   H4S 2570   4.330   0.159   2.669  1.6813  1.2838 -0.5386
   20SAPS   C25 2571   4.218   0.157   2.856 -0.1192 -0.2001 -0.6810
   20SAPS   H5R 2572   4.159   0.073   2.817 -1.6592  0.2055  0.6921
   20SAPS   C26 2573   4.199   0.194   2.987  0.6825  0.5155  0.1304
   20SAPS   H6R 2574   4.146   0.125   3.055 -1.2412  1.5132 -0.3207
   20SAPS   C27 2575   4.260   0.304   3.061  0.0082 -0.2390 -0.4005
   20SAPS   H7R 2576   4.224   0.403   3.029  2.3484  2.1548  3.8289
   20SAPS   H7S 2577   4.366   0.300   3.029  0.3029  0.3420  0.4659
   20SAPS   C28 2578   4.264   0.310   3.212  0.3143  0.9331 -0.1658
   20SAPS   H8R 2579   4.166   0.294   3.259  0.8337  2.3908  1.4338
   20SAPS   C29 2580   4.373   0.326   3.289  0.0012  0.2196  0.1175
   20SAPS   H9R 2581   4.364   0.341   3.398  0.6153 -1.8842  0.4765
   20SAPS  C210 2582   4.516   0.336   3.247  0.2207 -0.0054  0.0937
   20SAPS  H10R 2583   4.572   0.414   3.303  1.6141 -0.7845 -0.1998
   20SAPS  H10S 2584   4.528   0.345   3.136 -2.4763 -3.8431 -0.5802
   20SAPS  C211 2585   4.579   0.203   3.271  0.0192  0.3177 -0.6746
   20SAPS  H11R 2586   4.516   0.114   3.252  0.4041 -0.5087  1.7769
   20SAPS  C212 2587   4.687   0.168   3.339  0.4432 -0.0947  0.9018
   20SAPS  H12R 2588   4.715   0.061   3.341  1.1837  0.0747  0.0025
   20SAPS  C213 2589   4.780   0.262   3.410  0.1112  0.2455 -0.1718
   20SAPS  H13R 2590   4.733   0.349   3.460  1.4381  0.3914  0.8523
   20SAPS  H13S 2591   4.845   0.302   3.329  1.2877 -0.9899  0.1446
   20SAPS  C214 2592   4.874   0.198   3.511  0.1212  0.0605 -0.5006
   20SAPS  H14R 2593   4.981   0.198   3.484  0.1482 -2.0604 -0.4807
   20SAPS  C215 2594   4.835   0.148   3.634  0.3492  0.0632  0.3518
   20SAPS  H15R 2595   4.907   0.091   3.695  1.2427  1.4396  0.6119
   20SAPS  C216 2596   4.690   0.161   3.683 -0.3711 -0.2752  0.9856
   20SAPS  H16R 2597   4.656   0.062   3.721 -0.9746 -0.1268  0.8450
   20SAPS  H16S 2598   4.619   0.170   3.598 -0.6864  0.0496  1.2832
   20SAPS  C217 2599   4.664   0.258   3.808 -0.4062 -0.3795  0.6566
   20SAPS  H17R 2600   4.659   0.364   3.776 -0.2052 -0.7588 -0.6411
   20SAPS  H17S 2601   4.753   0.248   3.875 -0.6470 -0.4169  0.9734
   20SAPS  C218 2602   4.542   0.211   3.889  0.0144 -0.1568  0.2817
   20SAPS  H18R 2603   4.575   0.108   3.915 -1.0436 -0.4783  0.4133
   20SAPS  H18S 2604   4.453   0.202   3.823 -0.7938 -1.7090  1.5364
   20SAPS  C219 2605   4.529   0.294   4.020 -0.1876  0.0380  0.4378
   20SAPS  H19R 2606   4.524   0.400   3.986 -0.2183 -0.0542  0.1518
   20SAPS  H19S 2607   4.626   0.295   4.073  1.2921  1.2018 -2.1769
   20SAPS  C220 2608   4.424   0.240   4.118  1.0454  0.1471  0.0507
   20SAPS  H20R 2609   4.486   0.175   4.183  0.8917  0.1401  0.1939
   20SAPS  H20S 2610   4.329   0.206   4.071  2.4162 -1.5643 -1.5617
   20SAPS  H20T 2611   4.391   0.317   4.191  0.3080  0.3568 -0.4911
   20SAPS   C33 2612   3.583   0.383   2.542  0.3910 -0.0905  0.6330
   20SAPS   H3X 2613   3.482   0.361   2.581 -0.3313 -0.8624 -1.5992
   20SAPS   H3Y 2614   3.594   0.492   2.559  3.1103 -0.4731  1.5884
   20SAPS   C34 2615   3.679   0.290   2.615 -0.6440 -0.3678  0.1976
   20SAPS   H4X 2616   3.785   0.302   2.582 -0.1937 -1.3631  1.2512
   20SAPS   H4Y 2617   3.649   0.187   2.586  0.7973 -0.8203  0.2915
   20SAPS   C35 2618   3.688   0.306   2.772  0.0364 -0.0517  0.6787
   20SAPS   H5X 2619   3.589   0.313   2.822 -0.4472 -2.9315  0.2496
   20SAPS   H5Y 2620   3.745   0.397   2.799 -0.6746  0.7038 -0.3222
   20SAPS   C36 2621   3.759   0.186   2.839 -0.7832  0.3926 -0.4504
   20SAPS   H6X 2622   3.864   0.186   2.803 -0.8225 -0.0841 -0.5647
   20SAPS   H6Y 2623   3.715   0.092   2.798  3.2853 -0.6028 -2.7486
   20SAPS   C37 2624   3.768   0.195   2.986 -0.6194  0.5984 -0.8378
   20SAPS   H7X 2625   3.678   0.227   3.043  1.2692  0.9024  2.0691
   20SAPS   H7Y 2626   3.852   0.267   3.000  0.4294 -0.7172 -0.3207
   20SAPS   C38 2627   3.825   0.063   3.042  0.4111  0.7368 -0.1374
   20SAPS   H8X 2628   3.905   0.020   2.978 -0.0267 -0.7416  0.2751
   20SAPS   H8Y 2629   3.744  -0.014   3.041 -0.8788  2.0712  0.1536
   20SAPS   C39 2630   3.876   0.078   3.182 -0.1761 -0.5255 -0.4544
   20SAPS   H9X 2631   3.968   0.139   3.199 -0.4370 -0.4151  0.6230
   20SAPS   H9Y 2632   3.923  -0.018   3.211  1.1368 -0.0722 -1.0328
   20SAPS  C310 2633   3.772   0.124   3.292  0.1114  0.0458  0.2464
   20SAPS  H10X 2634   3.684   0.057   3.291 -1.9586  2.6912 -1.9005
   20SAPS  H10Y 2635   3.728   0.224   3.273  0.5284  0.1756 -0.0604
   20SAPS  C311 2636   3.827   0.115   3.438 -0.1071 -0.0259 -0.1154
   20SAPS  H11X 2637   3.898   0.029   3.446  0.2284 -0.0246 -2.6317
   20SAPS  H11Y 2638   3.733   0.107   3.496  0.6168  1.1550  1.2404
   20SAPS  C312 2639   3.904   0.238   3.480 -0.0803  0.0847 -0.2540
   20SAPS  H12X 2640   3.855   0.332   3.448  1.8801  0.1733 -3.1458
   20SAPS  H12Y 2641   3.997   0.246   3.419 -0.5006  0.2706 -0.8699
   20SAPS  C313 2642   3.932   0.229   3.631  0.1191 -0.2545  0.1847
   20SAPS  H13X 2643   3.985   0.131   3.640 -1.2286 -0.9551  0.6266
   20SAPS  H13Y 2644   3.837   0.227   3.688 -0.4533  0.4695 -0.7428
   20SAPS  C314 2645   4.021   0.347   3.683 -1.3610 -0.8877  0.1202
   20SAPS  H14X 2646   3.961   0.441   3.692  0.2734  0.0453  1.5979
   20SAPS  H14Y 2647   4.099   0.367   3.606 -0.8637 -2.2096  0.2635
   20SAPS  C315 2648   4.095   0.315   3.812 -0.0968  0.0841 -0.7016
   20SAPS  H15X 2649   4.180   0.385   3.826 -1.1947  0.7461  3.1442
   20SAPS  H15Y 2650   4.130   0.210   3.803 -0.8608 -0.1375 -1.1148
   20SAPS  C316 2651   3.993   0.321   3.936  0.3291  0.1562 -0.4909
   20SAPS  H16X 2652   4.030   0.266   4.024 -0.9009  2.6836  1.6789
   20SAPS  H16Y 2653   3.899   0.263   3.923  0.7511 -0.6709  0.1731
   20SAPS  C317 2654   3.983   0.464   3.996 -0.2074 -0.0085 -0.4103
   20SAPS  H17X 2655   3.934   0.527   3.918 -2.1163  0.1275  0.8644
   20SAPS  H17Y 2656   4.087   0.500   4.007 -0.8395  1.5987  0.6128
   20SAPS  C318 2657   3.910   0.471   4.130 -0.3191 -0.0474 -0.3487
   20SAPS  H18X 2658   3.973   0.427   4.210  1.2843  2.1753 -0.3472
   20SAPS  H18Y 2659   3.814   0.415   4.122  0.3108 -1.1767 -0.0568
   20SAPS  H18Z 2660   3.894   0.576   4.160 -0.8214 -0.0938 -0.4413
   21CHL1    C3 2661   2.716   4.209   6.035 -0.6457 -0.5956 -0.5883
   21CHL1    H3 2662   2.680   4.112   6.076 -0.4040  0.2378  1.6322
   21CHL1    O3 2663   2.700   4.308   6.134 -0.6091 -0.1948 -0.4059
   21CHL1   H3' 2664   2.748   4.279   6.213 -2.5826  0.4596  1.0825
   21CHL1    C4 2665   2.866   4.203   6.001  0.2926  1.0871  0.2916
   21CHL1   H4A 2666   2.902   4.302   5.966  0.9605  0.4890 -0.7526
   21CHL1   H4B 2667   2.929   4.177   6.090 -0.9270 -0.5772  0.7046
   21CHL1    C5 2668   2.892   4.106   5.891  0.4080 -0.7556 -0.1082
   21CHL1    C6 2669   2.979   4.006   5.896  0.2357  0.1586  0.4729
   21CHL1    H6 2670   3.027   3.988   5.993 -0.3488  1.1030  0.9413
   21CHL1    C7 2671   3.028   3.935   5.775  0.3499  0.5200 -0.0479
   21CHL1   H7A 2672   3.137   3.916   5.783  0.0132 -1.2169  0.8695
   21CHL1   H7B 2673   2.970   3.840   5.771 -0.6079  1.1740 -2.3669
   21CHL1    C8 2674   2.997   4.007   5.638 -0.0069 -0.2017  0.1962
   21CHL1    H8 2675   3.058   4.100   5.631 -0.3532 -0.1264 -2.0068
   21CHL1   C14 2676   3.025   3.929   5.517 -0.2188  0.0262  0.2447
   21CHL1   H14 2677   2.965   3.836   5.521  0.1220 -0.2000  0.0618
   21CHL1   C15 2678   3.171   3.887   5.494 -0.5214  0.0171 -1.1967
   21CHL1  H15A 2679   3.232   3.972   5.531  2.5214 -2.1032 -1.1485
   21CHL1  H15B 2680   3.203   3.797   5.551  0.3369  0.6294 -0.7014
   21CHL1   C16 2681   3.190   3.868   5.343  0.5747  0.3742  0.9329
   21CHL1  H16A 2682   3.273   3.934   5.310 -0.9385  1.6134 -0.5360
   21CHL1  H16B 2683   3.214   3.763   5.317 -1.0104  0.2168  0.0084
   21CHL1   C17 2684   3.056   3.914   5.279 -0.1401 -0.0697 -0.5250
   21CHL1   H17 2685   2.991   3.824   5.279  1.2147 -1.0972  2.1756
   21CHL1   C13 2686   2.990   4.002   5.385  0.1761 -0.0085  0.8921
   21CHL1   C18 2687   3.066   4.139   5.363  0.0978  0.3906 -0.1695
   21CHL1  H18A 2688   3.026   4.201   5.281 -0.9129 -0.9447 -0.6953
   21CHL1  H18B 2689   3.064   4.202   5.455  0.5870 -0.0645  0.1562
   21CHL1  H18C 2690   3.170   4.128   5.326  0.5757 -0.1327  1.3158
   21CHL1   C12 2691   2.835   4.019   5.390 -0.5797 -0.0332 -0.2646
   21CHL1  H12A 2692   2.788   4.059   5.298 -0.1276  0.8661 -0.1165
   21CHL1  H12B 2693   2.791   3.917   5.399 -0.8507  0.1791  0.8844
   21CHL1   C11 2694   2.799   4.101   5.516  0.8194  0.0489 -0.3101
   21CHL1  H11A 2695   2.823   4.206   5.488  1.5353 -0.2596 -0.8323
   21CHL1  H11B 2696   2.688   4.106   5.514  0.8200 -0.1632 -0.7253
   21CHL1    C9 2697   2.849   4.054   5.649  0.1798 -0.5446  0.6176
   21CHL1    H9 2698   2.791   3.962   5.672 -1.9788  0.4320 -0.7460
   21CHL1   C10 2699   2.822   4.154   5.761 -0.2750  0.2974 -0.2288
   21CHL1   C19 2700   2.865   4.293   5.710 -0.4657 -0.1161 -0.0886
   21CHL1  H19A 2701   2.796   4.321   5.627  1.1448  1.0735 -1.0694
   21CHL1  H19B 2702   2.856   4.372   5.787 -0.6198 -1.1007  0.9072
   21CHL1  H19C 2703   2.967   4.280   5.669  0.2745  0.6465  1.5030
   21CHL1    C1 2704   2.671   4.155   5.795  0.2863  0.1263 -0.4251
   21CHL1   H1A 2705   2.610   4.199   5.713  2.2641  2.1487 -0.8736
   21CHL1   H1B 2706   2.632   4.051   5.806  0.5778  0.0704  0.1102
   21CHL1    C2 2707   2.637   4.250   5.913 -0.7039  0.1915  0.0529
   21CHL1   H2A 2708   2.529   4.247   5.938 -1.5811 -0.9830 -3.6004
   21CHL1   H2B 2709   2.662   4.356   5.891 -0.5714 -0.0572 -0.9885
   21CHL1   C20 2710   3.062   3.959   5.126  0.8427 -0.1811 -0.0112
   21CHL1   H20 2711   3.134   4.042   5.114  0.3668  0.7891  3.3479
   21CHL1   C21 2712   2.924   4.008   5.075  0.0459 -0.3725 -0.0512
   21CHL1  H21A 2713   2.889   4.095   5.134  0.0247 -1.5065  1.6489
   21CHL1  H21B 2714   2.853   3.925   5.094  0.0755 -0.4827 -0.4253
   21CHL1  H21C 2715   2.924   4.052   4.973  1.0601  0.0531  0.1221
   21CHL1   C22 2716   3.126   3.842   5.037  0.4451 -0.8035 -0.1841
   21CHL1  H22A 2717   3.233   3.827   5.061  0.3839 -0.0582  0.5657
   21CHL1  H22B 2718   3.072   3.753   5.076 -1.9994  0.9222  0.4871
   21CHL1   C23 2719   3.112   3.850   4.890  0.2902 -0.2959 -1.0317
   21CHL1  H23A 2720   3.019   3.800   4.857 -0.6088  1.3358 -1.0108
   21CHL1  H23B 2721   3.124   3.955   4.857 -2.9689  1.1029  2.0059
   21CHL1   C24 2722   3.223   3.768   4.817 -0.5009 -0.3329 -1.1312
   21CHL1  H24A 2723   3.322   3.811   4.845 -0.2063  0.1156 -2.8031
   21CHL1  H24B 2724   3.218   3.660   4.845 -0.0368 -0.1482 -0.3192
   21CHL1   C25 2725   3.226   3.775   4.667  0.1477  0.2226 -0.2781
   21CHL1   H25 2726   3.124   3.754   4.627  0.0512  1.0926 -0.4903
   21CHL1   C26 2727   3.250   3.916   4.620  0.0125 -0.2995  0.9394
   21CHL1  H26A 2728   3.256   3.923   4.509 -0.5909  1.2804  0.9976
   21CHL1  H26B 2729   3.166   3.973   4.663  0.8138  0.2518  1.8018
   21CHL1  H26C 2730   3.349   3.953   4.655  0.7115  1.0724 -2.3036
   21CHL1   C27 2731   3.319   3.671   4.608  0.1187 -0.1815 -0.2799
   21CHL1  H27A 2732   3.414   3.672   4.664 -0.0177  0.0195 -0.0517
   21CHL1  H27B 2733   3.267   3.575   4.628  1.7121 -0.6025  1.9059
   21CHL1  H27C 2734   3.328   3.670   4.497  0.2790  1.7271 -0.3109
   22CHL1    C3 2735   3.014   3.343   6.013  0.9296  0.1024 -0.4268
   22CHL1    H3 2736   2.957   3.254   5.977  0.1256  0.8162 -0.9339
   22CHL1    O3 2737   2.997   3.366   6.152 -0.4529  0.0694  0.3384
   22CHL1   H3' 2738   2.903   3.373   6.168 -0.5884  0.2612 -0.4857
   22CHL1    C4 2739   3.164   3.331   5.976 -0.2173  0.0634  0.3199
   22CHL1   H4A 2740   3.218   3.411   6.031 -3.5322 -0.2751  4.3502
   22CHL1   H4B 2741   3.195   3.233   6.020  1.2143  0.6252  0.5706
   22CHL1    C5 2742   3.179   3.330   5.825 -0.5885  0.8465 -0.4036
   22CHL1    C6 2743   3.251   3.230   5.773  0.4708  0.4125 -0.0388
   22CHL1    H6 2744   3.291   3.151   5.837 -0.2774 -0.7370 -0.9735
   22CHL1    C7 2745   3.280   3.209   5.628  0.5942  0.8518 -0.7385
   22CHL1   H7A 2746   3.385   3.177   5.608  1.1929  1.0720  1.8453
   22CHL1   H7B 2747   3.210   3.127   5.601  0.1750  1.0190 -0.1731
   22CHL1    C8 2748   3.238   3.331   5.542 -0.3549  0.0298 -0.4254
   22CHL1    H8 2749   3.305   3.419   5.553 -2.1677  1.2619  0.9591
   22CHL1   C14 2750   3.233   3.293   5.395  0.0172 -0.4678 -0.3323
   22CHL1   H14 2751   3.157   3.212   5.385  0.5541 -0.9577 -0.4206
   22CHL1   C15 2752   3.351   3.218   5.336 -0.2191  0.5512 -0.0219
   22CHL1  H15A 2753   3.442   3.272   5.368  0.5097  0.2325 -1.5346
   22CHL1  H15B 2754   3.363   3.111   5.364 -2.5005 -0.7248 -3.5633
   22CHL1   C16 2755   3.332   3.232   5.184 -0.4260  0.6299 -0.3886
   22CHL1  H16A 2756   3.414   3.296   5.145  0.6389 -0.6361 -0.2626
   22CHL1  H16B 2757   3.332   3.134   5.132 -1.2411 -0.6494  1.9494
   22CHL1   C17 2758   3.199   3.307   5.165 -0.0922  0.1447 -0.2270
   22CHL1   H17 2759   3.107   3.246   5.180 -0.4165  0.3994 -1.1638
   22CHL1   C13 2760   3.185   3.396   5.289 -0.8848  0.1081 -0.2435
   22CHL1   C18 2761   3.296   3.517   5.291 -0.0338 -0.0244  1.1095
   22CHL1  H18A 2762   3.287   3.574   5.386 -0.7593  1.2484  0.2883
   22CHL1  H18B 2763   3.397   3.471   5.288 -0.0657 -0.0388  0.3645
   22CHL1  H18C 2764   3.274   3.581   5.203  0.1890 -1.7432 -0.2040
   22CHL1   C12 2765   3.045   3.450   5.327  0.3745  0.2448  0.7526
   22CHL1  H12A 2766   3.024   3.539   5.264 -0.1949  0.4066  1.1668
   22CHL1  H12B 2767   2.977   3.366   5.302  1.3679 -0.2340 -0.3635
   22CHL1   C11 2768   3.040   3.494   5.478  0.4697 -0.3924 -0.3680
   22CHL1  H11A 2769   3.097   3.587   5.497  0.0580 -0.2322  0.0796
   22CHL1  H11B 2770   2.932   3.514   5.497 -0.3556 -3.2718 -1.7277
   22CHL1    C9 2771   3.099   3.387   5.582 -0.3039  0.7209 -0.3882
   22CHL1    H9 2772   3.022   3.306   5.575 -2.6069  2.7693  0.5026
   22CHL1   C10 2773   3.105   3.431   5.736  0.8687  0.2262  0.0459
   22CHL1   C19 2774   3.176   3.567   5.751  0.5463 -0.0284  0.8017
   22CHL1  H19A 2775   3.116   3.641   5.694  0.4871 -0.7349 -0.0660
   22CHL1  H19B 2776   3.173   3.605   5.855 -1.5748 -0.3683  0.8954
   22CHL1  H19C 2777   3.279   3.575   5.711  0.8241 -0.5107  1.4225
   22CHL1    C1 2778   2.964   3.444   5.791  1.1715  0.9480  0.2753
   22CHL1   H1A 2779   2.896   3.520   5.747 -0.1001 -0.5993 -0.5077
   22CHL1   H1B 2780   2.910   3.348   5.775  2.3090 -0.1252  2.6126
   22CHL1    C2 2781   2.957   3.468   5.939  0.3179  0.0746 -0.3170
   22CHL1   H2A 2782   2.851   3.482   5.970  0.3535 -0.7662  0.2132
   22CHL1   H2B 2783   3.016   3.558   5.968 -0.2683 -0.4221  2.6342
   22CHL1   C20 2784   3.195   3.367   5.022  0.1939 -0.6577 -0.1943
   22CHL1   H20 2785   3.280   3.437   5.007 -0.3471 -0.0432 -0.4068
   22CHL1   C21 2786   3.062   3.447   5.007 -0.3183 -0.6064 -0.0234
   22CHL1  H21A 2787   3.037   3.463   4.900  0.8127 -3.5699 -0.7865
   22CHL1  H21B 2788   3.079   3.547   5.052  0.2150 -0.6309 -0.1762
   22CHL1  H21C 2789   2.976   3.393   5.054 -1.0749  0.1001 -0.5706
   22CHL1   C22 2790   3.209   3.262   4.912  0.2536 -0.5866  0.3860
   22CHL1  H22A 2791   3.311   3.218   4.921 -0.3218 -1.6451  1.8131
   22CHL1  H22B 2792   3.138   3.178   4.924 -0.6201  0.4120  2.4864
   22CHL1   C23 2793   3.199   3.322   4.769 -0.0712  0.4172  0.2686
   22CHL1  H23A 2794   3.099   3.360   4.740 -0.5812 -0.1389  1.2530
   22CHL1  H23B 2795   3.268   3.409   4.763 -0.1433  0.4820  0.3852
   22CHL1   C24 2796   3.246   3.215   4.659  0.0873  0.1916 -0.1087
   22CHL1  H24A 2797   3.336   3.165   4.702 -1.9868 -0.7547  3.2786
   22CHL1  H24B 2798   3.164   3.141   4.658  0.4599 -0.2491 -3.0345
   22CHL1   C25 2799   3.275   3.266   4.514 -0.0861 -0.1986  0.3698
   22CHL1   H25 2800   3.358   3.336   4.539  0.5864 -0.2011 -1.8085
   22CHL1   C26 2801   3.330   3.163   4.419 -0.2228 -0.2430 -0.7212
   22CHL1  H26A 2802   3.434   3.136   4.449 -0.5054 -0.0745  0.4559
   22CHL1  H26B 2803   3.261   3.077   4.403 -1.0661  0.2433  0.2008
   22CHL1  H26C 2804   3.352   3.204   4.318  0.4940  1.9907  0.3088
   22CHL1   C27 2805   3.150   3.343   4.463 -0.2630 -0.5319  0.0124
   22CHL1  H27A 2806   3.070   3.269   4.444  0.2173 -1.1705  0.4351
   22CHL1  H27B 2807   3.108   3.417   4.534  0.2072  0.5284 -0.7988
   22CHL1  H27C 2808   3.166   3.411   4.377 -1.3705  1.2750  1.2133
   23CHL1    C3 2809   2.561   3.656   5.936 -0.3795 -0.3731 -0.0133
   23CHL1    H3 2810   2.575   3.549   5.912 -0.7286 -0.3489 -0.3372
   23CHL1    O3 2811   2.593   3.691   6.072  0.0969 -0.9589 -0.5508
   23CHL1   H3' 2812   2.680   3.729   6.059 -0.2926  0.5324  0.9438
   23CHL1    C4 2813   2.649   3.731   5.836 -0.9325  0.1730 -1.0815
   23CHL1   H4A 2814   2.666   3.836   5.869 -1.3852 -0.2847  0.6945
   23CHL1   H4B 2815   2.749   3.694   5.867 -0.9801 -2.1013 -3.5309
   23CHL1    C5 2816   2.617   3.712   5.693  0.1649 -0.2752 -0.2157
   23CHL1    C6 2817   2.707   3.664   5.601 -0.5615  0.1993  0.9624
   23CHL1    H6 2818   2.807   3.636   5.639  0.0558  0.9364 -0.0835
   23CHL1    C7 2819   2.697   3.655   5.458  0.0613  0.3155  0.8320
   23CHL1   H7A 2820   2.780   3.708   5.406  0.2069 -0.7736 -0.0696
   23CHL1   H7B 2821   2.696   3.547   5.431 -1.0082  0.4854  0.1808
   23CHL1    C8 2822   2.562   3.713   5.411 -0.0376 -0.0943 -0.5244
   23CHL1    H8 2823   2.572   3.823   5.403  1.7365 -0.1880  0.1118
   23CHL1   C14 2824   2.523   3.655   5.275 -0.3836  0.5511 -0.6456
   23CHL1   H14 2825   2.504   3.549   5.302 -0.9533  0.9771  0.6564
   23CHL1   C15 2826   2.636   3.658   5.166  0.2693 -0.4155  0.3828
   23CHL1  H15A 2827   2.697   3.749   5.181 -2.9185  1.3942  2.9979
   23CHL1  H15B 2828   2.698   3.566   5.169  1.1408  0.1563 -0.0418
   23CHL1   C16 2829   2.559   3.655   5.036 -0.1461 -0.0469 -0.1605
   23CHL1  H16A 2830   2.562   3.754   4.984 -1.2981 -1.0704 -2.2685
   23CHL1  H16B 2831   2.597   3.575   4.969 -0.2353 -1.1064  1.0479
   23CHL1   C17 2832   2.408   3.639   5.073 -0.0836  0.1064 -0.5764
   23CHL1   H17 2833   2.385   3.532   5.093 -1.6186  0.5893  0.2631
   23CHL1   C13 2834   2.397   3.707   5.208 -0.8895 -0.0253  0.1736
   23CHL1   C18 2835   2.404   3.863   5.191  0.8070  0.1765 -0.5230
   23CHL1  H18A 2836   2.310   3.892   5.140 -1.7741 -3.1154  2.1755
   23CHL1  H18B 2837   2.424   3.918   5.285  1.9288  0.0537 -0.6815
   23CHL1  H18C 2838   2.487   3.885   5.120 -0.1861 -2.2326 -2.5303
   23CHL1   C12 2839   2.283   3.660   5.303  0.7503 -0.6768 -0.0865
   23CHL1  H12A 2840   2.191   3.716   5.276  0.3920 -0.5758  1.2703
   23CHL1  H12B 2841   2.266   3.551   5.294  2.2091 -0.8441 -0.8577
   23CHL1   C11 2842   2.301   3.712   5.444 -0.6969  0.0331  0.1305
   23CHL1  H11A 2843   2.284   3.821   5.441  0.5106  0.2293  0.1196
   23CHL1  H11B 2844   2.223   3.667   5.510 -1.3008  1.6973  0.5694
   23CHL1    C9 2845   2.441   3.685   5.505 -0.1821 -0.1756 -0.1151
   23CHL1    H9 2846   2.443   3.576   5.527  1.1929 -0.0555  0.4010
   23CHL1   C10 2847   2.471   3.746   5.647 -0.2669 -0.1752  0.9298
   23CHL1   C19 2848   2.443   3.901   5.647 -0.2260 -0.0450  0.3249
   23CHL1  H19A 2849   2.341   3.923   5.610 -1.7265 -0.8059  3.8105
   23CHL1  H19B 2850   2.441   3.944   5.750  2.0985 -0.7665  0.6888
   23CHL1  H19C 2851   2.517   3.954   5.583  0.9051  0.4557  2.0243
   23CHL1    C1 2852   2.385   3.677   5.755  0.4452 -0.1036  0.1511
   23CHL1   H1A 2853   2.277   3.703   5.740 -0.4114 -1.2650  3.7636
   23CHL1   H1B 2854   2.395   3.568   5.734  2.3240  0.4218 -1.7349
   23CHL1    C2 2855   2.419   3.705   5.907 -0.1546  1.3245  0.1238
   23CHL1   H2A 2856   2.335   3.658   5.963 -2.8973  1.4916 -3.6459
   23CHL1   H2B 2857   2.422   3.813   5.934  0.4649  0.8818  1.9182
   23CHL1   C20 2858   2.312   3.682   4.954  0.2074 -0.0099  1.0612
   23CHL1   H20 2859   2.308   3.793   4.950  1.2692  0.1127  2.8161
   23CHL1   C21 2860   2.168   3.634   4.996  0.0772  0.6904  0.1025
   23CHL1  H21A 2861   2.129   3.693   5.082 -1.3432  0.1331 -0.1492
   23CHL1  H21B 2862   2.166   3.527   5.023  0.9595  0.6725  0.1393
   23CHL1  H21C 2863   2.100   3.651   4.910  0.2031  0.0696 -0.1165
   23CHL1   C22 2864   2.352   3.643   4.809  0.2501 -0.0230  0.6002
   23CHL1  H22A 2865   2.454   3.686   4.796  0.6013 -1.0233 -0.0219
   23CHL1  H22B 2866   2.368   3.533   4.805 -1.4104 -0.1938 -2.1299
   23CHL1   C23 2867   2.264   3.690   4.705 -0.3541  0.3475  0.0889
   23CHL1  H23A 2868   2.171   3.630   4.708  0.2637 -0.6383 -0.2051
   23CHL1  H23B 2869   2.249   3.800   4.716 -2.2353 -0.0579  1.9244
   23CHL1   C24 2870   2.327   3.679   4.562 -0.5545  0.2553 -0.9744
   23CHL1  H24A 2871   2.416   3.744   4.552 -1.3234  1.0620 -2.7903
   23CHL1  H24B 2872   2.363   3.576   4.538 -1.1859 -0.0817 -0.4828
   23CHL1   C25 2873   2.230   3.704   4.444  0.3116 -0.3462 -0.1456
   23CHL1   H25 2874   2.133   3.653   4.459  0.2270  0.0989  0.8609
   23CHL1   C26 2875   2.195   3.852   4.422  0.5974 -0.2548  0.2336
   23CHL1  H26A 2876   2.143   3.894   4.511  0.4805  0.8537 -0.3451
   23CHL1  H26B 2877   2.291   3.907   4.413 -0.6717  1.7284 -1.8211
   23CHL1  H26C 2878   2.119   3.859   4.341  0.2360  4.3811  0.8144
   23CHL1   C27 2879   2.281   3.650   4.324  0.4052 -0.2819 -0.1194
   23CHL1  H27A 2880   2.211   3.655   4.239  1.9287  2.6574 -1.2804
   23CHL1  H27B 2881   2.370   3.703   4.283  0.3115 -1.6563 -2.1407
   23CHL1  H27C 2882   2.294   3.540   4.319 -2.7412 -0.7070  0.2534
   24CHL1    C3 2883   2.734   4.948   6.021 -0.0292 -0.1865 -0.2868
   24CHL1    H3 2884   2.645   4.995   5.975  1.3580  1.4339 -1.3509
   24CHL1    O3 2885   2.731   4.969   6.164 -0.3204  0.1463  0.8269
   24CHL1   H3' 2886   2.796   4.910   6.203 -0.4906 -1.1671 -0.8228
   24CHL1    C4 2887   2.728   4.798   5.995 -0.3238 -0.4788  0.1409
   24CHL1   H4A 2888   2.804   4.744   6.056  0.9261 -1.4800 -2.2559
   24CHL1   H4B 2889   2.638   4.747   6.036 -0.5990 -1.1057 -1.2197
   24CHL1    C5 2890   2.750   4.758   5.851  0.6168 -0.1396 -0.7317
   24CHL1    C6 2891   2.670   4.679   5.782  0.0351 -0.2525  0.4570
   24CHL1    H6 2892   2.579   4.634   5.824  0.7113 -1.9045  0.1630
   24CHL1    C7 2893   2.693   4.642   5.641 -0.1023 -0.2657  0.1438
   24CHL1   H7A 2894   2.660   4.538   5.621 -1.4788  0.1069  0.3954
   24CHL1   H7B 2895   2.627   4.705   5.578  1.2031  0.3016 -0.6802
   24CHL1    C8 2896   2.839   4.666   5.596  0.6593  0.8190 -0.5181
   24CHL1    H8 2897   2.910   4.588   5.633  1.2068  2.7410  2.6737
   24CHL1   C14 2898   2.862   4.645   5.446  0.1637  0.2480 -0.6167
   24CHL1   H14 2899   2.798   4.725   5.403  2.1917  1.5338 -1.2825
   24CHL1   C15 2900   2.806   4.519   5.379 -0.1267  0.5848 -0.0623
   24CHL1  H15A 2901   2.841   4.431   5.437  1.0365  0.4884 -0.9008
   24CHL1  H15B 2902   2.696   4.529   5.369 -0.2814 -1.3557 -0.2965
   24CHL1   C16 2903   2.875   4.518   5.242 -0.1920 -0.2289 -0.5960
   24CHL1  H16A 2904   2.920   4.416   5.249 -0.5578 -0.3390  0.3430
   24CHL1  H16B 2905   2.809   4.513   5.153 -2.2989  0.3641  0.9105
   24CHL1   C17 2906   2.990   4.620   5.239  0.1999 -0.6815 -0.3313
   24CHL1   H17 2907   2.953   4.713   5.190  0.9727 -0.3699 -0.3331
   24CHL1   C13 2908   3.008   4.666   5.389  0.5151  0.6644 -0.6831
   24CHL1   C18 2909   3.099   4.564   5.462  0.3645  0.4959 -0.3473
   24CHL1  H18A 2910   3.057   4.461   5.458  1.7387 -0.0427 -1.4938
   24CHL1  H18B 2911   3.205   4.561   5.427  0.5718  1.4263  0.1861
   24CHL1  H18C 2912   3.106   4.598   5.567 -0.3194  1.5188 -0.6258
   24CHL1   C12 2913   3.038   4.810   5.423 -0.1525 -0.6818 -0.2619
   24CHL1  H12A 2914   3.145   4.832   5.400 -0.6270  1.0319 -0.9435
   24CHL1  H12B 2915   2.965   4.874   5.369 -0.5321 -0.9259 -0.0322
   24CHL1   C11 2916   3.026   4.840   5.573 -0.6465 -0.0400  0.3716
   24CHL1  H11A 2917   3.112   4.786   5.619  0.5816  0.2866 -1.4649
   24CHL1  H11B 2918   3.049   4.948   5.587 -0.1826  0.2689 -2.4367
   24CHL1    C9 2919   2.885   4.799   5.642 -0.5397 -0.6883 -0.7621
   24CHL1    H9 2920   2.824   4.870   5.582  2.3171  2.1694 -0.3896
   24CHL1   C10 2921   2.878   4.822   5.792  0.4617  1.2484 -0.2800
   24CHL1   C19 2922   2.997   4.746   5.860 -0.4737  0.5906  0.2646
   24CHL1  H19A 2923   3.099   4.777   5.829 -0.7377 -0.2261 -1.4730
   24CHL1  H19B 2924   3.010   4.766   5.968 -0.2278 -0.8863  0.5255
   24CHL1  H19C 2925   2.989   4.635   5.859  0.0081  0.5451  1.0071
   24CHL1    C1 2926   2.882   4.976   5.824  0.0382 -0.4502 -0.8980
   24CHL1   H1A 2927   2.985   5.010   5.799  0.4109 -2.2429 -1.8721
   24CHL1   H1B 2928   2.804   5.031   5.767  1.8351  2.7663 -0.3606
   24CHL1    C2 2929   2.866   5.013   5.975 -0.3756  0.6162 -0.3292
   24CHL1   H2A 2930   2.871   5.122   5.996 -0.1381  0.6628 -0.6307
   24CHL1   H2B 2931   2.946   4.970   6.039 -1.3700  0.1963  0.6489
   24CHL1   C20 2932   3.112   4.587   5.160 -0.6240  0.2470  0.1992
   24CHL1   H20 2933   3.178   4.509   5.204 -0.9976  0.5358  1.2872
   24CHL1   C21 2934   3.192   4.723   5.153  0.3749  0.0015  0.1014
   24CHL1  H21A 2935   3.255   4.734   5.244 -0.2834 -1.1593  0.7154
   24CHL1  H21B 2936   3.117   4.805   5.142  0.8016  0.3758 -0.0130
   24CHL1  H21C 2937   3.258   4.722   5.064 -0.1184 -1.8939 -0.2730
   24CHL1   C22 2938   3.076   4.537   5.014  0.2696  0.0713 -0.4674
   24CHL1  H22A 2939   3.176   4.505   4.981  0.0101 -1.8174  0.4946
   24CHL1  H22B 2940   3.018   4.442   5.025 -2.1387  1.4240 -1.0464
   24CHL1   C23 2941   3.011   4.635   4.919  0.5599 -0.3727  0.2631
   24CHL1  H23A 2942   2.927   4.676   4.980  0.3720 -0.7941  0.2909
   24CHL1  H23B 2943   3.081   4.714   4.883 -0.5290  0.1011 -0.8643
   24CHL1   C24 2944   2.933   4.569   4.810 -0.0099  0.2543 -0.1737
   24CHL1  H24A 2945   2.853   4.501   4.847  1.4996 -0.9662  0.9276
   24CHL1  H24B 2946   2.876   4.647   4.755 -0.9391  1.7562  2.7790
   24CHL1   C25 2947   3.012   4.483   4.703 -0.2262 -0.1721  0.1418
   24CHL1   H25 2948   3.101   4.546   4.681 -0.5063 -0.7529 -2.8542
   24CHL1   C26 2949   3.056   4.343   4.744  0.4942  0.0420 -0.5615
   24CHL1  H26A 2950   3.139   4.351   4.817  1.7538 -0.0118 -1.9523
   24CHL1  H26B 2951   2.976   4.295   4.803  0.9490 -1.3074 -1.0264
   24CHL1  H26C 2952   3.093   4.272   4.667  1.2646 -1.4891  1.1883
   24CHL1   C27 2953   2.930   4.467   4.576  0.6723 -0.7412 -0.0276
   24CHL1  H27A 2954   2.840   4.405   4.595 -0.6903  0.7956 -1.2290
   24CHL1  H27B 2955   2.901   4.567   4.536 -1.9054 -0.2533  2.8320
   24CHL1  H27C 2956   2.994   4.420   4.498 -1.2699  0.9432 -2.7066
   25CHL1    C3 2957   3.301   5.268   5.902 -0.2754 -0.1525 -0.2950
   25CHL1    H3 2958   3.340   5.164   5.914 -1.8626 -0.6296  0.9868
   25CHL1    O3 2959   3.274   5.329   6.026  0.4019  0.2235  0.0648
   25CHL1   H3' 2960   3.276   5.425   6.021 -1.0991  0.2656  0.1826
   25CHL1    C4 2961   3.403   5.350   5.820 -0.0285 -0.7729  0.1926
   25CHL1   H4A 2962   3.364   5.454   5.816  3.2756  0.5791  0.6903
   25CHL1   H4B 2963   3.501   5.361   5.872 -0.2984 -2.3943  1.0676
   25CHL1    C5 2964   3.425   5.310   5.674  0.8028  0.0830  0.1201
   25CHL1    C6 2965   3.548   5.297   5.628  0.5340 -0.2027 -0.0625
   25CHL1    H6 2966   3.632   5.310   5.698  1.0749 -0.3852 -0.6715
   25CHL1    C7 2967   3.582   5.259   5.486 -1.2009 -0.3482  0.4606
   25CHL1   H7A 2968   3.659   5.324   5.441 -1.3326  0.7724  1.8255
   25CHL1   H7B 2969   3.622   5.155   5.483  0.6039  0.3767 -4.4599
   25CHL1    C8 2970   3.454   5.244   5.393 -0.8255 -0.0677 -0.0254
   25CHL1    H8 2971   3.430   5.345   5.352  1.9730  0.5017 -0.4082
   25CHL1   C14 2972   3.484   5.149   5.280  0.1881 -0.3936 -0.2095
   25CHL1   H14 2973   3.494   5.047   5.323  0.5021 -0.6649 -0.9210
   25CHL1   C15 2974   3.620   5.149   5.190  0.3872 -1.1903 -0.2718
   25CHL1  H15A 2975   3.666   5.248   5.167 -0.6979 -0.9140 -1.2891
   25CHL1  H15B 2976   3.702   5.088   5.233  1.6822  0.6092 -0.1149
   25CHL1   C16 2977   3.585   5.081   5.056 -0.3780 -0.2131  0.1837
   25CHL1  H16A 2978   3.615   5.153   4.977  1.1193 -0.4319  0.5351
   25CHL1  H16B 2979   3.658   4.998   5.042  0.1719  0.7084 -2.6549
   25CHL1   C17 2980   3.437   5.046   5.061 -1.1546 -0.5294 -0.3568
   25CHL1   H17 2981   3.439   4.942   5.099  3.1812 -0.9491 -1.4045
   25CHL1   C13 2982   3.374   5.135   5.171  0.2238  1.2147 -0.6738
   25CHL1   C18 2983   3.337   5.271   5.115 -0.2140 -0.1978  0.1782
   25CHL1  H18A 2984   3.270   5.315   5.192 -0.8461 -2.4559  0.9405
   25CHL1  H18B 2985   3.427   5.337   5.110  0.5550 -1.2751 -0.4444
   25CHL1  H18C 2986   3.282   5.276   5.018 -3.1469  1.1334  1.8558
   25CHL1   C12 2987   3.257   5.068   5.243  0.4027 -0.3365 -0.6201
   25CHL1  H12A 2988   3.167   5.060   5.178 -0.4266  4.1274 -0.1685
   25CHL1  H12B 2989   3.287   4.963   5.265  0.4397 -0.2156 -0.0877
   25CHL1   C11 2990   3.217   5.137   5.375  0.1845 -1.2000 -0.2507
   25CHL1  H11A 2991   3.155   5.223   5.343 -1.0519 -1.7413  0.6608
   25CHL1  H11B 2992   3.160   5.060   5.432  0.8489 -1.7810 -0.3599
   25CHL1    C9 2993   3.332   5.191   5.472  0.1202 -0.3533  0.0394
   25CHL1    H9 2994   3.375   5.097   5.513 -1.0206 -1.0185 -0.2640
   25CHL1   C10 2995   3.299   5.279   5.599 -0.4614 -0.4563  0.3559
   25CHL1   C19 2996   3.221   5.411   5.555  0.5698 -0.0085 -0.2547
   25CHL1  H19A 2997   3.185   5.463   5.646  0.1209 -1.2064  0.2708
   25CHL1  H19B 2998   3.281   5.487   5.501  3.8230 -1.7435  0.7439
   25CHL1  H19C 2999   3.134   5.382   5.494  0.5618 -1.4797  0.4151
   25CHL1    C1 3000   3.201   5.195   5.683 -0.0763 -0.3123 -0.7437
   25CHL1   H1A 3001   3.107   5.197   5.624 -0.7761 -2.2018  0.2474
   25CHL1   H1B 3002   3.248   5.095   5.695  0.3759  0.0774  0.8840
   25CHL1    C2 3003   3.176   5.261   5.819  0.3425 -0.2790 -0.8384
   25CHL1   H2A 3004   3.104   5.185   5.857 -0.4761  1.0891  0.3744
   25CHL1   H2B 3005   3.113   5.352   5.813 -0.6594 -0.8793  0.1658
   25CHL1   C20 3006   3.378   5.026   4.924  0.3328  0.1737  0.0972
   25CHL1   H20 3007   3.403   5.118   4.865 -1.5519  0.2267 -0.6407
   25CHL1   C21 3008   3.226   5.015   4.918  0.7717 -0.2659  0.1139
   25CHL1  H21A 3009   3.200   4.930   4.984 -1.3746  1.4068  1.4747
   25CHL1  H21B 3010   3.181   5.000   4.817 -2.7640  3.1827  1.0470
   25CHL1  H21C 3011   3.170   5.110   4.933  1.3313 -0.0945  1.1497
   25CHL1   C22 3012   3.440   4.903   4.850  0.0983 -0.1112  0.3183
   25CHL1  H22A 3013   3.549   4.924   4.855  0.4479 -1.7025 -0.4031
   25CHL1  H22B 3014   3.397   4.812   4.896  0.2050 -0.6824 -0.6896
   25CHL1   C23 3015   3.420   4.911   4.694 -0.1052  0.5882  0.2512
   25CHL1  H23A 3016   3.446   4.812   4.649  1.1293  1.3201 -0.6775
   25CHL1  H23B 3017   3.311   4.923   4.675 -0.4265 -1.6625  0.5142
   25CHL1   C24 3018   3.507   5.019   4.635 -0.6636 -0.1809  0.5816
   25CHL1  H24A 3019   3.488   5.120   4.676 -1.3986 -0.1530  0.1802
   25CHL1  H24B 3020   3.612   4.991   4.657  0.0528 -1.5147 -3.9955
   25CHL1   C25 3021   3.482   5.027   4.484 -0.4330  0.2468 -0.2607
   25CHL1   H25 3022   3.377   5.062   4.478 -1.0295 -1.4276  0.0228
   25CHL1   C26 3023   3.583   5.132   4.434  0.6731  0.6591  0.0352
   25CHL1  H26A 3024   3.571   5.226   4.492 -1.2091 -0.5721  1.7106
   25CHL1  H26B 3025   3.688   5.094   4.440  1.0607  1.6606 -0.3774
   25CHL1  H26C 3026   3.563   5.149   4.326  0.5658  0.1983 -0.0219
   25CHL1   C27 3027   3.507   4.888   4.415  0.2907 -0.4288  0.8216
   25CHL1  H27A 3028   3.426   4.813   4.432  1.0540 -1.4840 -0.1184
   25CHL1  H27B 3029   3.495   4.911   4.307  0.3006 -0.2043  0.8681
   25CHL1  H27C 3030   3.608   4.847   4.434  0.7783  1.0092  1.3967
   26CHL1    C3 3031   2.951   2.746   5.949 -0.2634  0.2122  0.4740
   26CHL1    H3 3032   2.841   2.752   5.934  0.1940 -0.4776 -3.4880
   26CHL1    O3 3033   2.988   2.730   6.089  0.0923 -0.3820  0.2288
   26CHL1   H3' 3034   2.943   2.649   6.115  1.5115 -1.6351 -1.1267
   26CHL1    C4 3035   3.007   2.618   5.878 -0.3469  0.6181 -0.0734
   26CHL1   H4A 3036   3.114   2.601   5.902  0.1792  0.6616 -2.2597
   26CHL1   H4B 3037   2.949   2.534   5.922 -2.4507  1.0674 -1.8954
   26CHL1    C5 3038   2.996   2.638   5.727 -0.8330 -0.1577 -0.0320
   26CHL1    C6 3039   2.916   2.549   5.657 -0.0439 -0.1830  0.1034
   26CHL1    H6 3040   2.877   2.466   5.718 -2.1831  1.3190  0.8230
   26CHL1    C7 3041   2.912   2.547   5.505  0.0705 -0.4035 -0.6731
   26CHL1   H7A 3042   2.920   2.448   5.457  0.1976  0.5167 -2.5787
   26CHL1   H7B 3043   2.814   2.591   5.477 -0.1708  1.8250  3.2515
   26CHL1    C8 3044   3.026   2.637   5.438 -0.4483  0.0940 -0.1897
   26CHL1    H8 3045   3.125   2.587   5.433 -0.8426 -0.7750  0.5719
   26CHL1   C14 3046   2.988   2.670   5.289 -0.3269 -0.6280  0.0791
   26CHL1   H14 3047   2.890   2.720   5.299 -1.4599 -2.3798 -1.7034
   26CHL1   C15 3048   2.949   2.563   5.189  0.8588 -0.0947  0.5989
   26CHL1  H15A 3049   3.025   2.482   5.185  1.9460  0.9241  0.1799
   26CHL1  H15B 3050   2.848   2.519   5.207  0.9999 -0.8176 -0.3236
   26CHL1   C16 3051   2.959   2.642   5.054 -0.5652  0.8572  0.1363
   26CHL1  H16A 3052   3.006   2.577   4.976 -0.3229  1.8499 -0.5568
   26CHL1  H16B 3053   2.862   2.674   5.010  1.1433  1.4978 -3.3924
   26CHL1   C17 3054   3.039   2.778   5.080  1.0073  0.1579  0.2893
   26CHL1   H17 3055   2.954   2.849   5.083 -0.5087 -1.5533 -1.1378
   26CHL1   C13 3056   3.086   2.769   5.227  0.1305 -0.1809  0.0483
   26CHL1   C18 3057   3.229   2.708   5.222  0.2354  0.4490 -0.1903
   26CHL1  H18A 3058   3.228   2.601   5.193  1.3717 -0.2507  2.2746
   26CHL1  H18B 3059   3.307   2.765   5.166 -0.0062  1.0075  0.0342
   26CHL1  H18C 3060   3.263   2.701   5.327 -1.6925  3.9875  0.7301
   26CHL1   C12 3061   3.075   2.901   5.296  0.1599  0.1475  0.2294
   26CHL1  H12A 3062   3.136   2.978   5.244 -1.5428 -0.3706 -2.6654
   26CHL1  H12B 3063   2.972   2.941   5.287 -0.3021 -0.7615  1.3829
   26CHL1   C11 3064   3.116   2.891   5.441 -0.0504 -0.6575 -0.3837
   26CHL1  H11A 3065   3.226   2.881   5.449  0.0161  0.1322 -0.3004
   26CHL1  H11B 3066   3.100   2.984   5.499 -0.3395 -1.0093  0.1058
   26CHL1    C9 3067   3.033   2.776   5.520  0.8016 -0.1666  0.5431
   26CHL1    H9 3068   2.927   2.806   5.524  0.9052  0.1478  1.0277
   26CHL1   C10 3069   3.067   2.764   5.671 -0.9260  0.2759  0.6011
   26CHL1   C19 3070   3.223   2.749   5.684  0.4843  0.2984  0.1048
   26CHL1  H19A 3071   3.250   2.647   5.648  0.6240  0.2717  0.2848
   26CHL1  H19B 3072   3.285   2.819   5.623 -0.1811  1.5809  0.8776
   26CHL1  H19C 3073   3.253   2.743   5.790  2.0591  2.9798 -0.1383
   26CHL1    C1 3074   3.015   2.890   5.735  0.3714 -0.2847  0.2083
   26CHL1   H1A 3075   3.085   2.972   5.710  0.4290 -0.0520  1.1102
   26CHL1   H1B 3076   2.912   2.921   5.706 -0.9043 -1.1881  3.4468
   26CHL1    C2 3077   3.013   2.872   5.892  0.3963 -0.6185  0.0239
   26CHL1   H2A 3078   2.968   2.965   5.933  1.4789  0.5827 -1.4535
   26CHL1   H2B 3079   3.123   2.869   5.911  0.6704  0.9614 -1.2299
   26CHL1   C20 3080   3.138   2.821   4.976  1.0421  0.8552 -0.5570
   26CHL1   H20 3081   3.212   2.887   5.026  0.3138  0.3645  1.1834
   26CHL1   C21 3082   3.067   2.913   4.880  0.4319 -0.0337 -0.5259
   26CHL1  H21A 3083   3.142   2.940   4.802  1.3085 -1.5347 -0.2165
   26CHL1  H21B 3084   3.032   3.010   4.921  2.2706  0.7248 -0.7075
   26CHL1  H21C 3085   2.979   2.871   4.826  0.2278  0.5926 -0.6746
   26CHL1   C22 3086   3.218   2.717   4.899  0.5129 -0.4550 -0.4624
   26CHL1  H22A 3087   3.224   2.628   4.967  0.2621 -1.1597 -1.3529
   26CHL1  H22B 3088   3.160   2.687   4.809 -0.7981  1.9028 -0.4349
   26CHL1   C23 3089   3.347   2.768   4.842 -0.2363 -0.3847 -0.2619
   26CHL1  H23A 3090   3.331   2.866   4.792  0.8242 -0.2258 -0.3129
   26CHL1  H23B 3091   3.428   2.784   4.917  0.5259 -4.1322 -0.2079
   26CHL1   C24 3092   3.412   2.673   4.735  0.3183  0.4405 -0.1540
   26CHL1  H24A 3093   3.434   2.577   4.787  0.4997  2.6338  4.0495
   26CHL1  H24B 3094   3.347   2.646   4.649 -0.1131 -0.7938  0.5395
   26CHL1   C25 3095   3.549   2.715   4.674 -0.2294 -0.1871  0.9748
   26CHL1   H25 3096   3.533   2.809   4.616 -1.8298  0.2454  2.0831
   26CHL1   C26 3097   3.661   2.748   4.777 -0.4736  0.1774  0.0858
   26CHL1  H26A 3098   3.759   2.758   4.726 -0.5163 -0.2816 -0.0840
   26CHL1  H26B 3099   3.634   2.838   4.836 -1.6038 -1.7414  2.6095
   26CHL1  H26C 3100   3.671   2.663   4.848 -0.1539 -1.3192 -1.7280
   26CHL1   C27 3101   3.597   2.606   4.578 -0.8593 -1.2710 -0.6775
   26CHL1  H27A 3102   3.519   2.581   4.503 -1.8529  0.6118 -0.3064
   26CHL1  H27B 3103   3.690   2.633   4.522 -0.2464  2.9948  2.1652
   26CHL1  H27C 3104   3.613   2.519   4.644 -2.1091 -0.3471  0.8873
   27CHL1    C3 3105   2.486   3.034   5.888  0.5487  0.1548 -0.3685
   27CHL1    H3 3106   2.388   3.000   5.847  0.8787 -0.7172 -0.4416
   27CHL1    O3 3107   2.473   3.014   6.033 -0.0421  0.3061  0.0765
   27CHL1   H3' 3108   2.437   2.926   6.047 -0.5124  0.6725  1.1829
   27CHL1    C4 3109   2.609   2.948   5.837 -0.6255  0.2697  0.6728
   27CHL1   H4A 3110   2.701   2.992   5.881  0.8265 -0.7579 -1.2473
   27CHL1   H4B 3111   2.590   2.845   5.873 -1.4520  0.3570  0.4788
   27CHL1    C5 3112   2.610   2.956   5.684  0.1239  0.4875  0.5493
   27CHL1    C6 3113   2.615   2.846   5.602 -0.4728 -1.0647 -0.6848
   27CHL1    H6 3114   2.602   2.743   5.639 -1.2196 -0.4859  0.6967
   27CHL1    C7 3115   2.630   2.855   5.454  0.5774 -0.3612  0.2616
   27CHL1   H7A 3116   2.714   2.789   5.426  0.9870 -0.0589  0.7726
   27CHL1   H7B 3117   2.537   2.812   5.410  0.3934  1.3791 -1.1005
   27CHL1    C8 3118   2.657   2.996   5.402 -0.2604  0.2271  0.1965
   27CHL1    H8 3119   2.766   3.016   5.412  0.4598 -2.1323 -2.1587
   27CHL1   C14 3120   2.617   3.001   5.256  0.0639  0.2993 -0.2665
   27CHL1   H14 3121   2.506   2.998   5.255  0.0583  0.4337  0.0034
   27CHL1   C15 3122   2.664   2.884   5.168  0.2917 -0.3536  0.6161
   27CHL1  H15A 3123   2.775   2.874   5.171  0.4180  1.4458  1.9602
   27CHL1  H15B 3124   2.615   2.785   5.184  0.5791 -0.6695 -0.3957
   27CHL1   C16 3125   2.655   2.942   5.028  0.0744  0.0273 -0.5896
   27CHL1  H16A 3126   2.751   2.951   4.972 -1.0592 -0.7047 -2.7076
   27CHL1  H16B 3127   2.582   2.884   4.967 -1.4093  0.0712  1.1085
   27CHL1   C17 3128   2.597   3.087   5.041 -0.1627 -0.0278 -0.2255
   27CHL1   H17 3129   2.487   3.078   5.038 -0.2674  0.8639  0.6479
   27CHL1   C13 3130   2.640   3.136   5.177 -0.1702 -0.0194  0.1118
   27CHL1   C18 3131   2.793   3.164   5.183  0.2031  0.2070 -0.5563
   27CHL1  H18A 3132   2.845   3.069   5.161 -1.1395 -0.7165  0.1755
   27CHL1  H18B 3133   2.832   3.242   5.114  1.3938 -1.1889 -1.4789
   27CHL1  H18C 3134   2.820   3.190   5.288  0.6226  2.0300 -1.0940
   27CHL1   C12 3135   2.562   3.246   5.261  0.4690  0.3842 -0.2917
   27CHL1  H12A 3136   2.571   3.348   5.218  2.2775  0.0435 -0.7510
   27CHL1  H12B 3137   2.454   3.220   5.255 -0.3517  3.4740  0.1283
   27CHL1   C11 3138   2.592   3.250   5.406 -0.3521 -0.3690 -0.1539
   27CHL1  H11A 3139   2.695   3.292   5.410  0.2292 -1.7827  0.1598
   27CHL1  H11B 3140   2.527   3.327   5.453 -1.1397 -0.7304 -0.6552
   27CHL1    C9 3141   2.579   3.106   5.473  0.1718  0.1148 -0.6840
   27CHL1    H9 3142   2.471   3.084   5.459  0.3137 -1.5622  0.6382
   27CHL1   C10 3143   2.611   3.101   5.623  0.0283 -0.3871 -0.6282
   27CHL1   C19 3144   2.742   3.168   5.653  0.1452  0.4249  0.2553
   27CHL1  H19A 3145   2.722   3.277   5.644 -0.4491  0.3884  1.0844
   27CHL1  H19B 3146   2.777   3.159   5.758 -0.0537 -0.1296  0.2708
   27CHL1  H19C 3147   2.819   3.131   5.582  0.0000  0.7427 -0.0710
   27CHL1    C1 3148   2.504   3.183   5.700  0.1337 -0.6488  0.6884
   27CHL1   H1A 3149   2.527   3.290   5.680  0.3919 -1.0416 -1.2706
   27CHL1   H1B 3150   2.403   3.149   5.668  1.1408 -2.6536 -0.4880
   27CHL1    C2 3151   2.498   3.179   5.854  0.3096 -0.8311 -0.2699
   27CHL1   H2A 3152   2.416   3.240   5.898  1.6029 -0.8413  2.2259
   27CHL1   H2B 3153   2.595   3.214   5.897  0.2839  0.2321 -1.0519
   27CHL1   C20 3154   2.637   3.175   4.923  0.5576  0.0481  0.6525
   27CHL1   H20 3155   2.748   3.164   4.916  0.6361  0.5941  1.0201
   27CHL1   C21 3156   2.608   3.325   4.943 -0.3443 -0.0633  0.3709
   27CHL1  H21A 3157   2.643   3.377   4.851 -2.2035  1.8096  0.6819
   27CHL1  H21B 3158   2.667   3.364   5.029 -0.9935 -2.6230  2.0329
   27CHL1  H21C 3159   2.499   3.345   4.956 -0.1078  0.3821  1.7819
   27CHL1   C22 3160   2.571   3.127   4.793 -0.7156 -0.5173 -0.1368
   27CHL1  H22A 3161   2.620   3.196   4.721 -0.0651 -1.1915 -0.3434
   27CHL1  H22B 3162   2.605   3.023   4.773  1.7704  0.1392  0.4170
   27CHL1   C23 3163   2.414   3.137   4.785  0.7566  0.5144 -0.1103
   27CHL1  H23A 3164   2.369   3.092   4.876 -0.1338  1.3870 -0.1117
   27CHL1  H23B 3165   2.383   3.244   4.790  1.3939  0.6362  1.6416
   27CHL1   C24 3166   2.362   3.059   4.663  0.4497  0.2836  0.1399
   27CHL1  H24A 3167   2.402   2.956   4.668  1.6637  0.8434  2.5644
   27CHL1  H24B 3168   2.251   3.059   4.668  0.5300  0.1774  1.9965
   27CHL1   C25 3169   2.397   3.126   4.527  0.3016 -0.0283 -1.2243
   27CHL1   H25 3170   2.506   3.107   4.514  0.3265 -0.0987 -0.9364
   27CHL1   C26 3171   2.320   3.054   4.413 -0.2295  0.6250  0.2765
   27CHL1  H26A 3172   2.328   2.944   4.429  1.4546  0.8292  0.9410
   27CHL1  H26B 3173   2.220   3.099   4.426 -0.6747  0.2178 -1.5364
   27CHL1  H26C 3174   2.352   3.079   4.309  3.0546 -0.5993  0.9450
   27CHL1   C27 3175   2.368   3.276   4.529  0.8270 -0.1217 -0.2398
   27CHL1  H27A 3176   2.430   3.335   4.600  0.1404  0.3797 -0.0529
   27CHL1  H27B 3177   2.262   3.299   4.551  1.1161 -0.0246  1.0859
   27CHL1  H27C 3178   2.385   3.320   4.428 -1.0443 -1.1828 -1.0314
   28CHL1    C3 3179   4.418   2.360   5.991  0.9385 -0.0645  0.1316
   28CHL1    H3 3180   4.475   2.453   5.971  0.8487  0.0989  0.6395
   28CHL1    O3 3181   4.442   2.329   6.126  0.3581  0.1244  0.7063
   28CHL1   H3' 3182   4.393   2.248   6.143 -1.5974  1.1045 -0.1163
   28CHL1    C4 3183   4.263   2.376   5.955  0.5779  0.2193 -0.3070
   28CHL1   H4A 3184   4.195   2.294   5.987  2.0135 -1.0636 -0.4529
   28CHL1   H4B 3185   4.218   2.466   6.000  1.3369  0.7586 -0.6169
   28CHL1    C5 3186   4.243   2.399   5.808 -0.0519  0.1456  0.2660
   28CHL1    C6 3187   4.179   2.508   5.763  0.3267 -0.8290 -0.2350
   28CHL1    H6 3188   4.132   2.582   5.829 -0.5855 -0.6457 -1.0730
   28CHL1    C7 3189   4.157   2.544   5.622 -0.2056  0.0544 -0.0510
   28CHL1   H7A 3190   4.050   2.571   5.613  0.2005  1.1843 -1.8150
   28CHL1   H7B 3191   4.218   2.631   5.589  0.1075 -0.1363  0.0209
   28CHL1    C8 3192   4.183   2.427   5.517 -0.1153 -0.1633 -0.0873
   28CHL1    H8 3193   4.097   2.357   5.526 -1.4823  1.7458  2.3307
   28CHL1   C14 3194   4.190   2.473   5.377  0.8027 -0.1962  0.6351
   28CHL1   H14 3195   4.288   2.526   5.370 -0.2771  1.9181  1.2475
   28CHL1   C15 3196   4.076   2.566   5.331  0.0209  0.1477  0.6833
   28CHL1  H15A 3197   3.977   2.520   5.353 -0.0225 -0.2133 -0.2439
   28CHL1  H15B 3198   4.078   2.666   5.379  0.8917  0.5461 -0.1745
   28CHL1   C16 3199   4.107   2.560   5.185 -0.0339 -0.1147  0.0488
   28CHL1  H16A 3200   4.012   2.552   5.129 -1.6901  2.1753  2.4025
   28CHL1  H16B 3201   4.161   2.654   5.159  0.4055 -0.4654 -0.3162
   28CHL1   C17 3202   4.206   2.444   5.146 -0.3544 -0.0049  0.7498
   28CHL1   H17 3203   4.303   2.489   5.115 -1.3888 -0.6713 -3.8809
   28CHL1   C13 3204   4.210   2.360   5.274  0.2625  0.0770  0.1138
   28CHL1   C18 3205   4.087   2.264   5.283  0.9486  0.3191  0.9535
   28CHL1  H18A 3206   3.988   2.314   5.274  0.1691 -1.4757 -0.6704
   28CHL1  H18B 3207   4.085   2.188   5.202 -0.9314  1.2849  0.0554
   28CHL1  H18C 3208   4.089   2.204   5.377 -2.1271 -1.6446 -0.1744
   28CHL1   C12 3209   4.336   2.282   5.307 -0.0405  0.1553 -0.3487
   28CHL1  H12A 3210   4.355   2.191   5.246 -0.7456 -0.4124  0.2640
   28CHL1  H12B 3211   4.411   2.360   5.283  0.7509 -0.0214  1.4370
   28CHL1   C11 3212   4.348   2.234   5.459 -0.5168 -0.9087  0.4422
   28CHL1  H11A 3213   4.281   2.146   5.470 -0.5220 -0.6528  2.5959
   28CHL1  H11B 3214   4.452   2.203   5.478  0.4221  2.2330  0.7024
   28CHL1    C9 3215   4.308   2.348   5.559 -0.2382 -0.2043 -0.1300
   28CHL1    H9 3216   4.388   2.424   5.546 -0.8605  0.3306 -0.7977
   28CHL1   C10 3217   4.313   2.297   5.710 -0.0741 -0.0612 -0.0373
   28CHL1   C19 3218   4.220   2.178   5.727 -0.0407  0.4434 -0.7157
   28CHL1  H19A 3219   4.124   2.176   5.671 -0.9102  0.0302  0.7597
   28CHL1  H19B 3220   4.275   2.086   5.695 -1.8382  0.0133 -2.6375
   28CHL1  H19C 3221   4.192   2.150   5.831  1.4204 -1.9775 -0.9249
   28CHL1    C1 3222   4.467   2.272   5.751  0.0583 -0.8434  0.5504
   28CHL1   H1A 3223   4.511   2.190   5.692  0.5112  0.4259 -0.9238
   28CHL1   H1B 3224   4.531   2.354   5.712 -0.4295 -1.0172 -0.6123
   28CHL1    C2 3225   4.488   2.249   5.907  0.5279 -0.0047 -0.1641
   28CHL1   H2A 3226   4.595   2.252   5.937  0.4169  2.7387  0.0519
   28CHL1   H2B 3227   4.440   2.153   5.937  0.0103  0.0977 -0.6558
   28CHL1   C20 3228   4.165   2.373   5.014 -0.3138 -0.2225 -0.1264
   28CHL1   H20 3229   4.058   2.346   5.023 -0.5102  1.3188  3.0658
   28CHL1   C21 3230   4.257   2.255   4.981 -1.1317 -0.7869 -0.4372
   28CHL1  H21A 3231   4.245   2.218   4.877  0.8763  0.7667 -1.2600
   28CHL1  H21B 3232   4.237   2.169   5.048 -0.6200 -0.7427 -0.2259
   28CHL1  H21C 3233   4.361   2.278   5.012 -0.6735 -0.8443 -1.9180
   28CHL1   C22 3234   4.172   2.468   4.898 -0.3883 -0.6637  0.0485
   28CHL1  H22A 3235   4.134   2.566   4.936  2.8374 -0.1173  2.0244
   28CHL1  H22B 3236   4.278   2.488   4.870 -0.5413  1.1322  0.6768
   28CHL1   C23 3237   4.092   2.414   4.782  0.2449 -0.0569  0.4198
   28CHL1  H23A 3238   4.147   2.329   4.736  0.0186 -0.5040  0.9673
   28CHL1  H23B 3239   3.986   2.398   4.813  0.3312 -0.2709  0.6011
   28CHL1   C24 3240   4.084   2.525   4.674 -0.7527  0.1295 -0.4106
   28CHL1  H24A 3241   4.084   2.623   4.726  1.9785 -0.0599  0.0072
   28CHL1  H24B 3242   4.178   2.530   4.614  1.6638  2.5333  3.3615
   28CHL1   C25 3243   3.968   2.518   4.579 -0.5111 -0.8575 -0.0224
   28CHL1   H25 3244   3.879   2.553   4.636  2.0881  0.4482  3.4353
   28CHL1   C26 3245   3.982   2.620   4.465 -0.0383  0.0016 -0.6638
   28CHL1  H26A 3246   3.886   2.624   4.409  0.5567  1.7704 -1.5919
   28CHL1  H26B 3247   4.011   2.717   4.512  2.1638 -0.8120 -0.3059
   28CHL1  H26C 3248   4.068   2.598   4.398 -0.2606  0.9462 -1.2594
   28CHL1   C27 3249   3.937   2.378   4.533 -0.6363 -0.0744 -0.1753
   28CHL1  H27A 3250   3.845   2.385   4.471 -0.9820 -0.0423  0.3313
   28CHL1  H27B 3251   4.014   2.339   4.463  0.3701  0.4836  0.5991
   28CHL1  H27C 3252   3.919   2.314   4.622 -0.5529 -1.4593 -1.1526
   29CHL1    C3 3253   1.938   3.828   5.904 -0.8694  0.3592 -0.0411
   29CHL1    H3 3254   1.999   3.741   5.874 -0.3137  0.8810 -0.4307
   29CHL1    O3 3255   1.937   3.823   6.045 -0.2493  0.7447 -0.0643
   29CHL1   H3' 3256   1.870   3.881   6.080  1.0086  0.8509  2.2132
   29CHL1    C4 3257   1.999   3.961   5.869  0.0878  0.0011 -0.4832
   29CHL1   H4A 3258   1.929   4.032   5.918 -0.4762 -0.0251 -1.2426
   29CHL1   H4B 3259   2.100   3.967   5.915  0.0667 -0.3074 -0.3983
   29CHL1    C5 3260   2.003   3.984   5.720  0.0237 -0.4710 -0.0567
   29CHL1    C6 3261   2.114   4.030   5.667  0.3429  0.9077  0.2728
   29CHL1    H6 3262   2.192   4.058   5.740  0.8509  0.4429 -0.0844
   29CHL1    C7 3263   2.123   4.075   5.519  0.8457  0.2884 -0.1384
   29CHL1   H7A 3264   2.166   4.176   5.502  1.0004  0.3136  0.3933
   29CHL1   H7B 3265   2.189   4.009   5.458 -0.4769 -0.1289 -1.1490
   29CHL1    C8 3266   1.992   4.068   5.443 -0.3789  0.0738 -0.9512
   29CHL1    H8 3267   1.931   4.160   5.454 -1.0614 -0.4469 -0.2647
   29CHL1   C14 3268   2.017   4.054   5.294 -0.3845 -0.2081 -0.2637
   29CHL1   H14 3269   2.065   3.953   5.286  0.1563 -0.0363  0.7559
   29CHL1   C15 3270   2.111   4.156   5.231 -0.0845 -0.6624 -0.0668
   29CHL1  H15A 3271   2.086   4.260   5.258  1.7890 -0.5982  1.5315
   29CHL1  H15B 3272   2.216   4.137   5.262 -0.4522 -3.2610 -0.3052
   29CHL1   C16 3273   2.089   4.131   5.082  0.7893  0.2034  0.2127
   29CHL1  H16A 3274   2.074   4.229   5.032  0.7258 -0.7167 -1.6523
   29CHL1  H16B 3275   2.183   4.092   5.037 -0.6683 -1.1705 -1.7261
   29CHL1   C17 3276   1.968   4.035   5.070  0.2671 -0.1414 -0.3972
   29CHL1   H17 3277   2.027   3.940   5.076  0.8146  0.1760 -0.6943
   29CHL1   C13 3278   1.896   4.042   5.212  0.9044 -1.0560  0.0641
   29CHL1   C18 3279   1.805   4.167   5.217 -0.0150 -0.2061  0.0907
   29CHL1  H18A 3280   1.869   4.256   5.200  0.0210 -0.0009  1.2740
   29CHL1  H18B 3281   1.730   4.159   5.135 -0.7985 -0.0915  0.7835
   29CHL1  H18C 3282   1.756   4.186   5.315  0.9216  1.0250  0.3246
   29CHL1   C12 3283   1.815   3.919   5.257 -0.2473 -0.0723  0.8075
   29CHL1  H12A 3284   1.726   3.900   5.194  0.3596 -1.2781  0.3043
   29CHL1  H12B 3285   1.885   3.836   5.233 -0.9807 -0.1295 -1.2256
   29CHL1   C11 3286   1.779   3.916   5.410 -0.3589  0.2585  0.6920
   29CHL1  H11A 3287   1.687   3.977   5.429 -2.3065 -2.3741  0.0682
   29CHL1  H11B 3288   1.756   3.809   5.427 -1.5300  0.1813 -1.1994
   29CHL1    C9 3289   1.904   3.953   5.493 -0.7047 -0.3805  0.6132
   29CHL1    H9 3290   1.976   3.869   5.482  1.5343  1.1641  2.7919
   29CHL1   C10 3291   1.871   3.959   5.649 -0.1519 -1.1079  0.2782
   29CHL1   C19 3292   1.771   4.072   5.679 -0.0241  0.0898  0.6778
   29CHL1  H19A 3293   1.805   4.165   5.629  0.3001  0.0244  0.7708
   29CHL1  H19B 3294   1.668   4.049   5.644 -0.5579  0.5483  1.9568
   29CHL1  H19C 3295   1.764   4.095   5.787 -0.2483  0.4610  0.5831
   29CHL1    C1 3296   1.809   3.827   5.693  0.4226 -0.0996  0.0370
   29CHL1   H1A 3297   1.701   3.824   5.667  0.3375 -1.9414  0.4844
   29CHL1   H1B 3298   1.852   3.743   5.633 -4.2204 -1.2528 -1.9532
   29CHL1    C2 3299   1.802   3.803   5.841 -0.4483  0.3249  0.1161
   29CHL1   H2A 3300   1.777   3.697   5.865 -1.3921  0.0612 -1.9132
   29CHL1   H2B 3301   1.735   3.877   5.890 -1.0915  0.1048 -0.4302
   29CHL1   C20 3302   1.873   4.039   4.952  0.0932 -0.3704  0.6089
   29CHL1   H20 3303   1.779   3.995   4.991  1.1393 -2.4000  0.8854
   29CHL1   C21 3304   1.929   3.939   4.851 -0.2354 -0.2790  0.3659
   29CHL1  H21A 3305   2.030   3.975   4.823 -0.4219 -0.1014 -0.0855
   29CHL1  H21B 3306   1.871   3.926   4.757  1.8966 -0.0140 -0.9958
   29CHL1  H21C 3307   1.921   3.836   4.892 -4.9905 -0.3500 -0.4015
   29CHL1   C22 3308   1.828   4.177   4.890 -0.8608 -0.4118 -0.7990
   29CHL1  H22A 3309   1.824   4.264   4.959  1.8108 -1.3988  0.6970
   29CHL1  H22B 3310   1.899   4.207   4.811  0.6912  1.9631  1.4183
   29CHL1   C23 3311   1.689   4.181   4.826 -0.2614  0.3704 -0.5077
   29CHL1  H23A 3312   1.679   4.091   4.761  1.9830 -0.9475  0.9011
   29CHL1  H23B 3313   1.611   4.171   4.904 -0.8606  1.7948 -0.9167
   29CHL1   C24 3314   1.680   4.303   4.731  0.5246  0.5121  0.1339
   29CHL1  H24A 3315   1.574   4.308   4.701 -0.2131 -1.8197  2.1322
   29CHL1  H24B 3316   1.692   4.395   4.791  1.0636  0.1781  0.5480
   29CHL1   C25 3317   1.762   4.301   4.599 -0.8233 -0.6712 -0.5076
   29CHL1   H25 3318   1.866   4.265   4.618  0.0554  0.6780 -2.6297
   29CHL1   C26 3319   1.702   4.211   4.490 -1.0786  0.5087 -0.0164
   29CHL1  H26A 3320   1.758   4.213   4.394 -2.2275  0.6426 -0.6910
   29CHL1  H26B 3321   1.708   4.108   4.532  1.3472  0.8822  0.6137
   29CHL1  H26C 3322   1.597   4.240   4.467 -1.0109  1.0953  0.3893
   29CHL1   C27 3323   1.770   4.444   4.541 -0.8849 -0.4177  0.4126
   29CHL1  H27A 3324   1.673   4.484   4.506 -1.0681 -0.7165  0.5800
   29CHL1  H27B 3325   1.803   4.507   4.626  1.2847  0.3780 -0.9647
   29CHL1  H27C 3326   1.849   4.447   4.462  0.7504 -0.1843  2.0137
   30CHL1    C3 3327   2.538   5.429   5.829 -0.6035 -0.0769  0.1279
   30CHL1    H3 3328   2.431   5.419   5.803 -0.5035  0.8760 -0.6950
   30CHL1    O3 3329   2.537   5.464   5.965  0.1252  0.3588 -0.4020
   30CHL1   H3' 3330   2.486   5.545   5.973 -1.2754 -0.8014  3.0609
   30CHL1    C4 3331   2.610   5.291   5.824  0.3838  0.2508  0.4995
   30CHL1   H4A 3332   2.717   5.306   5.851  0.5482 -0.4738  0.2572
   30CHL1   H4B 3333   2.563   5.233   5.907 -2.2598  1.6866  0.0579
   30CHL1    C5 3334   2.620   5.235   5.687 -0.2984 -0.2037 -0.0523
   30CHL1    C6 3335   2.567   5.120   5.646  0.0987  0.6380  0.6135
   30CHL1    H6 3336   2.522   5.049   5.717 -1.9648  0.2532 -1.0236
   30CHL1    C7 3337   2.573   5.076   5.502 -0.3240  0.4741  0.9707
   30CHL1   H7A 3338   2.575   4.965   5.494 -2.0559  0.4000  1.3605
   30CHL1   H7B 3339   2.475   5.102   5.458 -0.7299 -1.0287  0.9577
   30CHL1    C8 3340   2.684   5.143   5.420  0.8266 -0.3952 -0.1839
   30CHL1    H8 3341   2.781   5.116   5.468 -0.5809 -3.0275  1.3122
   30CHL1   C14 3342   2.675   5.106   5.274  0.5968  0.3842  0.5521
   30CHL1   H14 3343   2.577   5.145   5.239  0.7469 -1.6605 -2.3167
   30CHL1   C15 3344   2.670   4.957   5.237  0.8033  0.3578 -0.2798
   30CHL1  H15A 3345   2.739   4.890   5.292 -0.6780 -0.6518  0.3761
   30CHL1  H15B 3346   2.565   4.925   5.256  1.2208 -1.5810 -1.1423
   30CHL1   C16 3347   2.696   4.962   5.089 -0.2087 -0.1452  0.6473
   30CHL1  H16A 3348   2.777   4.888   5.073 -2.9051 -2.9489 -0.4513
   30CHL1  H16B 3349   2.607   4.932   5.030 -1.2624  1.4177  1.4001
   30CHL1   C17 3350   2.734   5.106   5.043 -0.7206 -0.1334  0.2415
   30CHL1   H17 3351   2.638   5.158   5.023 -1.3715 -1.2990  0.3116
   30CHL1   C13 3352   2.775   5.173   5.174 -0.3309 -0.4216  0.2224
   30CHL1   C18 3353   2.920   5.131   5.209 -0.0873 -0.5047 -0.2764
   30CHL1  H18A 3354   2.993   5.195   5.154  0.5229 -0.3855  0.6600
   30CHL1  H18B 3355   2.931   5.156   5.316 -1.2850 -1.3306  0.0403
   30CHL1  H18C 3356   2.947   5.028   5.177 -0.5354 -0.8981  0.5957
   30CHL1   C12 3357   2.746   5.326   5.190  0.4827  0.5513 -0.8350
   30CHL1  H12A 3358   2.831   5.374   5.138 -1.5637  2.5980 -2.4425
   30CHL1  H12B 3359   2.651   5.356   5.141 -0.5580  0.2177  0.9243
   30CHL1   C11 3360   2.756   5.377   5.337 -0.4544 -0.0470  0.0597
   30CHL1  H11A 3361   2.865   5.378   5.356 -0.3415  2.0448 -0.5890
   30CHL1  H11B 3362   2.728   5.484   5.335 -0.3853 -0.0094  1.0359
   30CHL1    C9 3363   2.669   5.296   5.437  0.2348  0.3614  0.3032
   30CHL1    H9 3364   2.564   5.315   5.407 -0.1588 -3.6156 -1.2109
   30CHL1   C10 3365   2.683   5.340   5.585 -0.0536  0.0515  0.2940
   30CHL1   C19 3366   2.835   5.339   5.630 -0.4119  0.0882 -0.0997
   30CHL1  H19A 3367   2.840   5.386   5.730 -1.7905  1.2495 -0.5541
   30CHL1  H19B 3368   2.897   5.247   5.622  1.4067  1.2042  1.0094
   30CHL1  H19C 3369   2.889   5.409   5.563 -0.2889  1.3840  1.3435
   30CHL1    C1 3370   2.621   5.483   5.603 -0.8413 -0.3743  0.0578
   30CHL1   H1A 3371   2.694   5.551   5.554  1.2162 -3.1962 -0.8856
   30CHL1   H1B 3372   2.521   5.491   5.555 -1.7411 -1.0221  1.7707
   30CHL1    C2 3373   2.610   5.538   5.750  0.1609  0.0217 -0.3608
   30CHL1   H2A 3374   2.560   5.636   5.735  0.6321  0.1362 -1.1956
   30CHL1   H2B 3375   2.710   5.549   5.795 -0.8581  0.1365  1.9521
   30CHL1   C20 3376   2.823   5.110   4.916 -0.4046 -0.4642 -0.1881
   30CHL1   H20 3377   2.925   5.088   4.954 -0.9577 -1.7856  0.5763
   30CHL1   C21 3378   2.830   5.254   4.865  0.6103 -0.5619 -0.2900
   30CHL1  H21A 3379   2.882   5.315   4.942 -0.2354  1.4253 -1.2560
   30CHL1  H21B 3380   2.732   5.302   4.848 -0.5140 -2.3193  1.0445
   30CHL1  H21C 3381   2.895   5.257   4.774  0.4818  0.1171 -0.3579
   30CHL1   C22 3382   2.793   5.002   4.804  0.4944 -0.4455  0.3736
   30CHL1  H22A 3383   2.804   4.904   4.855  0.4813 -0.8321 -0.3571
   30CHL1  H22B 3384   2.686   5.009   4.777  1.1695  0.6081 -2.2260
   30CHL1   C23 3385   2.876   5.022   4.673 -0.0457  0.0570  1.0679
   30CHL1  H23A 3386   2.840   5.115   4.625 -0.9295 -0.2055  1.2167
   30CHL1  H23B 3387   2.981   5.040   4.706  0.3451  0.1646 -0.2153
   30CHL1   C24 3388   2.856   4.895   4.581  0.0124 -0.5957 -0.1331
   30CHL1  H24A 3389   2.919   4.814   4.623 -2.3955 -2.2683  0.3518
   30CHL1  H24B 3390   2.751   4.865   4.565 -0.2921 -0.4161  1.5120
   30CHL1   C25 3391   2.900   4.920   4.429  0.3882 -0.5207 -0.4131
   30CHL1   H25 3392   3.007   4.950   4.431  0.9669 -2.4443 -1.6652
   30CHL1   C26 3393   2.889   4.785   4.360  0.1189 -0.4223 -0.2136
   30CHL1  H26A 3394   2.901   4.806   4.251 -0.2527 -0.1257 -0.1992
   30CHL1  H26B 3395   2.966   4.715   4.398  3.0628  3.1716  0.5875
   30CHL1  H26C 3396   2.789   4.740   4.380 -0.3469  0.2061 -1.0676
   30CHL1   C27 3397   2.810   5.028   4.364  0.4364 -0.3198 -0.2157
   30CHL1  H27A 3398   2.800   5.040   4.254  1.3139  1.4307 -0.1173
   30CHL1  H27B 3399   2.712   4.996   4.404 -0.0515 -0.5932 -1.5872
   30CHL1  H27C 3400   2.850   5.125   4.401  0.9283  0.2761 -2.2357
   31CHL1    C3 3401   1.403   5.070   5.938  0.2208 -0.3726 -0.2971
   31CHL1    H3 3402   1.500   5.038   5.983  0.4044  1.4708  0.7053
   31CHL1    O3 3403   1.303   5.080   6.043  0.0928 -0.1662  0.1155
   31CHL1   H3' 3404   1.279   4.988   6.060  0.4666 -0.4738 -0.9825
   31CHL1    C4 3405   1.416   5.207   5.864  0.7209  0.6254  0.0416
   31CHL1   H4A 3406   1.311   5.238   5.845  0.6589 -0.2224 -1.0619
   31CHL1   H4B 3407   1.459   5.284   5.931 -0.2483  1.7030 -0.5600
   31CHL1    C5 3408   1.499   5.209   5.732  0.1431 -0.1164 -0.2693
   31CHL1    C6 3409   1.609   5.284   5.716  0.4968 -0.2863  0.4729
   31CHL1    H6 3410   1.655   5.360   5.782 -0.1802  1.3833 -0.9443
   31CHL1    C7 3411   1.691   5.280   5.586 -0.1826 -0.0805  0.8047
   31CHL1   H7A 3412   1.723   5.382   5.556 -1.5798 -0.4399 -2.0328
   31CHL1   H7B 3413   1.787   5.230   5.608  1.1929  2.3014  0.4081
   31CHL1    C8 3414   1.619   5.214   5.464  0.4908 -0.3300 -0.0539
   31CHL1    H8 3415   1.534   5.279   5.434  0.4491 -1.4246 -2.4618
   31CHL1   C14 3416   1.711   5.189   5.345  0.2746  0.1514 -0.2934
   31CHL1   H14 3417   1.798   5.138   5.393  0.3063 -0.4926 -1.0274
   31CHL1   C15 3418   1.778   5.314   5.279  0.5441 -0.0811 -0.5797
   31CHL1  H15A 3419   1.707   5.399   5.270  0.8596  0.3125  0.5547
   31CHL1  H15B 3420   1.861   5.345   5.345  0.3268  1.4483 -0.9890
   31CHL1   C16 3421   1.810   5.272   5.141  0.2231 -0.0152 -0.9453
   31CHL1  H16A 3422   1.768   5.341   5.065 -1.8020 -0.0180  0.1348
   31CHL1  H16B 3423   1.921   5.279   5.132  0.6152 -2.4663  1.1950
   31CHL1   C17 3424   1.768   5.122   5.127  0.0042  0.2275  0.1141
   31CHL1   H17 3425   1.858   5.070   5.167  0.0593 -0.9576 -1.5124
   31CHL1   C13 3426   1.652   5.110   5.235 -0.4731  0.4868  0.0308
   31CHL1   C18 3427   1.534   5.178   5.171  0.6817  0.4653 -0.3791
   31CHL1  H18A 3428   1.565   5.271   5.119  1.7554  0.7756  0.7753
   31CHL1  H18B 3429   1.493   5.117   5.088  1.4090 -2.0297  1.0422
   31CHL1  H18C 3430   1.451   5.207   5.239 -1.7331 -1.5293 -2.3697
   31CHL1   C12 3431   1.609   4.971   5.284 -0.1031 -0.1920  0.0286
   31CHL1  H12A 3432   1.568   4.899   5.209 -2.0406  0.0799  0.7944
   31CHL1  H12B 3433   1.702   4.926   5.324 -0.5856 -0.8228  0.4641
   31CHL1   C11 3434   1.512   4.975   5.402 -0.6561  0.3869  0.5579
   31CHL1  H11A 3435   1.414   5.009   5.362 -0.0700  1.0230 -0.3725
   31CHL1  H11B 3436   1.493   4.875   5.446  0.1193 -0.6472 -1.4282
   31CHL1    C9 3437   1.557   5.079   5.510 -0.4126  0.3224 -0.4540
   31CHL1    H9 3438   1.644   5.026   5.556 -2.4531 -1.5191  1.3695
   31CHL1   C10 3439   1.456   5.100   5.631 -0.3198  0.0862  0.6313
   31CHL1   C19 3440   1.319   5.144   5.571 -0.1507 -0.3443  0.5207
   31CHL1  H19A 3441   1.330   5.240   5.518 -0.7365 -0.0534  0.9145
   31CHL1  H19B 3442   1.261   5.075   5.506 -2.6830  2.8032 -0.6773
   31CHL1  H19C 3443   1.245   5.163   5.652  0.7575  1.3873  0.9606
   31CHL1    C1 3444   1.441   4.962   5.707 -0.1600  0.2164 -0.0043
   31CHL1   H1A 3445   1.416   4.876   5.641 -1.2731  0.4993  0.0439
   31CHL1   H1B 3446   1.545   4.938   5.740 -0.1023  1.5388  0.8039
   31CHL1    C2 3447   1.357   4.968   5.841 -0.3400  0.2985  0.0204
   31CHL1   H2A 3448   1.345   4.866   5.883  3.5213 -0.4264 -0.4072
   31CHL1   H2B 3449   1.260   5.005   5.802  0.5156  2.9850  0.2802
   31CHL1   C20 3450   1.738   5.072   4.981  0.1978  0.2114  0.3046
   31CHL1   H20 3451   1.636   5.105   4.952 -0.8543 -1.0563  2.4600
   31CHL1   C21 3452   1.736   4.924   4.991 -0.1047  0.8090  0.2990
   31CHL1  H21A 3453   1.832   4.888   5.034 -0.9746 -1.3221  0.5146
   31CHL1  H21B 3454   1.720   4.883   4.889 -1.1735  0.2995  0.6695
   31CHL1  H21C 3455   1.652   4.893   5.056 -1.5111 -0.4714 -2.0370
   31CHL1   C22 3456   1.830   5.128   4.875  0.3418 -0.5688 -0.3200
   31CHL1  H22A 3457   1.831   5.239   4.878 -0.7115 -0.5711  0.1099
   31CHL1  H22B 3458   1.929   5.089   4.905  1.3168  2.1455  0.1549
   31CHL1   C23 3459   1.791   5.093   4.734 -0.8237  0.3470  0.4174
   31CHL1  H23A 3460   1.810   4.984   4.731 -0.2616  0.4705 -0.4207
   31CHL1  H23B 3461   1.681   5.105   4.722 -1.0209 -1.9106 -0.1744
   31CHL1   C24 3462   1.877   5.156   4.624  0.2348 -0.2665  0.2629
   31CHL1  H24A 3463   1.876   5.267   4.626 -1.9037 -0.2339 -0.9249
   31CHL1  H24B 3464   1.982   5.125   4.644  0.7148  0.2134 -1.4301
   31CHL1   C25 3465   1.850   5.116   4.474  0.1609  0.5272  0.6342
   31CHL1   H25 3466   1.749   5.156   4.450  0.2008 -0.3811 -1.1481
   31CHL1   C26 3467   1.948   5.181   4.379 -0.0293 -0.3673  0.3694
   31CHL1  H26A 3468   1.964   5.120   4.287  2.5255  0.3493  0.2978
   31CHL1  H26B 3469   1.915   5.283   4.348 -2.5152 -0.8408  1.3293
   31CHL1  H26C 3470   2.049   5.193   4.424  0.0786  0.6929 -0.1332
   31CHL1   C27 3471   1.849   4.965   4.454  0.2910 -0.0826 -0.5662
   31CHL1  H27A 3472   1.865   4.928   4.350  3.2598 -0.4038 -0.0425
   31CHL1  H27B 3473   1.925   4.911   4.515 -0.6814  1.4950  2.1531
   31CHL1  H27C 3474   1.750   4.923   4.484 -0.0964  0.0975 -1.5629
   32CHL1    C3 3475   4.281   1.306   6.027 -0.7389 -0.8524 -0.4537
   32CHL1    H3 3476   4.391   1.322   6.023 -0.6145 -1.1685  1.2730
   32CHL1    O3 3477   4.238   1.298   6.163  0.4857 -0.5042  1.3423
   32CHL1   H3' 3478   4.168   1.233   6.153 -0.7648  0.8638  1.0883
   32CHL1    C4 3479   4.206   1.430   5.964 -0.2899 -0.5363 -0.2457
   32CHL1   H4A 3480   4.095   1.432   5.972 -0.5259  0.1645 -3.0237
   32CHL1   H4B 3481   4.234   1.519   6.025  0.4354 -0.6056 -0.4637
   32CHL1    C5 3482   4.264   1.439   5.818 -0.0064 -0.3196 -0.0337
   32CHL1    C6 3483   4.325   1.555   5.766 -0.0948 -0.0150 -0.4695
   32CHL1    H6 3484   4.332   1.645   5.829  3.0412  1.9950 -3.5648
   32CHL1    C7 3485   4.385   1.572   5.632 -0.9117  0.3456 -0.4102
   32CHL1   H7A 3486   4.345   1.666   5.587  0.4065  0.0758 -2.2515
   32CHL1   H7B 3487   4.494   1.592   5.626 -1.1158  1.1230 -1.6909
   32CHL1    C8 3488   4.349   1.454   5.537 -0.1187 -0.3312 -0.5440
   32CHL1    H8 3489   4.247   1.469   5.497 -0.1487  0.5304 -0.1605
   32CHL1   C14 3490   4.447   1.445   5.416 -0.3489 -0.0234  0.0355
   32CHL1   H14 3491   4.539   1.404   5.461 -0.6178 -0.0257  0.5934
   32CHL1   C15 3492   4.484   1.580   5.349 -0.0350  0.1019 -0.3458
   32CHL1  H15A 3493   4.400   1.653   5.352 -0.3411 -0.2353 -0.6075
   32CHL1  H15B 3494   4.571   1.622   5.404 -0.5382 -1.0900  1.3963
   32CHL1   C16 3495   4.532   1.533   5.208 -0.2060 -0.4408  0.0071
   32CHL1  H16A 3496   4.474   1.595   5.136  1.1407  0.7139 -0.0951
   32CHL1  H16B 3497   4.639   1.563   5.208 -0.1011 -0.8080  1.4190
   32CHL1   C17 3498   4.515   1.379   5.194  0.2274 -0.5565  0.1071
   32CHL1   H17 3499   4.605   1.329   5.237  0.2107  1.7188  2.9131
   32CHL1   C13 3500   4.406   1.351   5.306  0.4513  0.4332  0.0733
   32CHL1   C18 3501   4.268   1.395   5.249 -0.1717 -0.6143 -0.4931
   32CHL1  H18A 3502   4.272   1.488   5.189  0.0631 -1.1189 -1.2763
   32CHL1  H18B 3503   4.228   1.316   5.181 -2.0210 -0.0100 -0.1223
   32CHL1  H18C 3504   4.187   1.412   5.323  0.5848  0.1160  0.1738
   32CHL1   C12 3505   4.396   1.211   5.365  1.0183  0.4985 -0.0576
   32CHL1  H12A 3506   4.376   1.137   5.284 -2.2532  0.5371  0.6599
   32CHL1  H12B 3507   4.494   1.181   5.406  0.0063 -0.3425  1.7799
   32CHL1   C11 3508   4.312   1.211   5.492  0.1477  0.6547 -0.1424
   32CHL1  H11A 3509   4.208   1.232   5.458  0.1901  0.7607 -0.2065
   32CHL1  H11B 3510   4.323   1.107   5.528 -1.9586 -0.3751 -2.3813
   32CHL1    C9 3511   4.345   1.315   5.606 -0.1423 -0.2209 -1.0614
   32CHL1    H9 3512   4.448   1.300   5.644  0.1467  3.7514 -0.0608
   32CHL1   C10 3513   4.250   1.316   5.729  0.1853  0.4941 -0.2192
   32CHL1   C19 3514   4.099   1.308   5.684  0.0235 -0.5114 -0.5044
   32CHL1  H19A 3515   4.064   1.393   5.622 -0.5274 -0.2728  0.1250
   32CHL1  H19B 3516   4.074   1.210   5.638 -2.4430 -1.7154  3.1877
   32CHL1  H19C 3517   4.039   1.310   5.777 -4.5133  1.3186 -3.3210
   32CHL1    C1 3518   4.299   1.187   5.803 -0.0341  0.0974  0.6469
   32CHL1   H1A 3519   4.249   1.106   5.746  0.9160  1.9533 -2.9795
   32CHL1   H1B 3520   4.408   1.167   5.800 -0.0696 -0.1631  0.9082
   32CHL1    C2 3521   4.255   1.176   5.956  0.1923 -0.1632  0.2879
   32CHL1   H2A 3522   4.284   1.086   6.013  0.9957  0.4828  0.9176
   32CHL1   H2B 3523   4.144   1.167   5.952  0.2149  0.2251 -2.0145
   32CHL1   C20 3524   4.492   1.348   5.049  0.5012  0.1141  0.0960
   32CHL1   H20 3525   4.394   1.395   5.027  0.1044 -0.1589  1.2180
   32CHL1   C21 3526   4.495   1.201   5.025  0.0130  0.5286  0.9214
   32CHL1  H21A 3527   4.405   1.154   5.070  0.7268 -1.9417 -0.1389
   32CHL1  H21B 3528   4.581   1.163   5.085  1.9268  5.1952  1.3635
   32CHL1  H21C 3529   4.498   1.179   4.916  0.9815 -4.1678  1.7703
   32CHL1   C22 3530   4.597   1.400   4.961  0.1862  0.3163 -0.1507
   32CHL1  H22A 3531   4.621   1.507   4.977  1.8540 -0.1168  0.3026
   32CHL1  H22B 3532   4.694   1.349   4.982 -0.1947 -0.0309  0.8004
   32CHL1   C23 3533   4.579   1.393   4.806 -0.2669  0.0414  0.3262
   32CHL1  H23A 3534   4.605   1.295   4.760 -0.2776  0.6369 -0.9554
   32CHL1  H23B 3535   4.474   1.411   4.777 -1.3098 -1.1007  3.1893
   32CHL1   C24 3536   4.669   1.487   4.737 -0.4417  0.3216  0.4538
   32CHL1  H24A 3537   4.668   1.584   4.792  1.6306 -1.2864  3.4356
   32CHL1  H24B 3538   4.770   1.443   4.747 -0.5949  0.1946  1.5402
   32CHL1   C25 3539   4.631   1.521   4.590  0.1059  0.3952  1.0102
   32CHL1   H25 3540   4.543   1.588   4.581 -0.9766 -0.7174  2.9884
   32CHL1   C26 3541   4.751   1.608   4.536  0.0482  0.3979  0.5308
   32CHL1  H26A 3542   4.846   1.551   4.540  0.2697  0.8799  3.5735
   32CHL1  H26B 3543   4.735   1.641   4.431  0.6914 -2.6734 -0.5736
   32CHL1  H26C 3544   4.766   1.700   4.597 -0.4399 -0.5399  2.0927
   32CHL1   C27 3545   4.604   1.395   4.502  0.1788  0.4478  0.2429
   32CHL1  H27A 3546   4.691   1.326   4.508  0.2952  0.6573  1.0549
   32CHL1  H27B 3547   4.507   1.345   4.524  0.9576 -2.0087 -1.7548
   32CHL1  H27C 3548   4.602   1.428   4.396 -2.6044  0.9091  0.4130
   33CHL1    C3 3549   1.216   3.958   5.932 -0.1287 -0.1018  0.6780
   33CHL1    H3 3550   1.122   4.016   5.923 -0.9792 -1.5045  0.3497
   33CHL1    O3 3551   1.249   3.929   6.067  0.2499 -0.8415  0.3587
   33CHL1   H3' 3552   1.341   3.903   6.060  0.7030  0.3778  1.5215
   33CHL1    C4 3553   1.206   3.835   5.851  0.0484 -0.0764  0.0707
   33CHL1   H4A 3554   1.301   3.778   5.853  0.4449  0.5965  0.8982
   33CHL1   H4B 3555   1.127   3.767   5.892 -1.1961 -0.1235 -2.3393
   33CHL1    C5 3556   1.175   3.860   5.710  0.1295 -0.0670  0.0814
   33CHL1    C6 3557   1.066   3.826   5.649  0.3515 -0.9078 -0.0232
   33CHL1    H6 3558   0.991   3.772   5.709  0.0570 -1.0599 -0.5216
   33CHL1    C7 3559   1.029   3.848   5.506 -0.6503 -0.3760 -0.3288
   33CHL1   H7A 3560   0.993   3.754   5.459 -1.2250  0.7132 -2.1252
   33CHL1   H7B 3561   0.948   3.923   5.495  0.3558  0.7965  0.1828
   33CHL1    C8 3562   1.145   3.905   5.416 -0.3065  0.1568 -0.5706
   33CHL1    H8 3563   1.216   3.822   5.396 -0.4189  0.0630 -0.5877
   33CHL1   C14 3564   1.103   3.983   5.293  0.2474  0.1449 -0.0100
   33CHL1   H14 3565   1.053   4.075   5.328  3.0079  0.8602  2.2255
   33CHL1   C15 3566   0.994   3.908   5.205  0.8112  0.0055  0.2611
   33CHL1  H15A 3567   1.018   3.799   5.203  0.4148 -0.0612 -2.5490
   33CHL1  H15B 3568   0.890   3.929   5.235  0.0253 -1.2024 -1.5410
   33CHL1   C16 3569   1.023   3.968   5.060  0.2244  0.8629  0.1191
   33CHL1  H16A 3570   1.068   3.891   4.994  0.2437  0.2009  0.8961
   33CHL1  H16B 3571   0.933   4.008   5.007 -0.4319 -0.1470  0.4714
   33CHL1   C17 3572   1.136   4.078   5.075 -0.0190 -0.0817 -0.0047
   33CHL1   H17 3573   1.075   4.169   5.091 -0.0553 -0.1796  0.4441
   33CHL1   C13 3574   1.218   4.037   5.201  0.1056  0.6482 -0.3308
   33CHL1   C18 3575   1.321   3.922   5.169 -0.5289 -0.1414  0.4159
   33CHL1  H18A 3576   1.274   3.857   5.092 -0.6559 -1.4279  1.5738
   33CHL1  H18B 3577   1.411   3.967   5.122 -1.1970  2.2251  1.3398
   33CHL1  H18C 3578   1.350   3.864   5.259 -0.8925 -0.0208  0.6070
   33CHL1   C12 3579   1.293   4.141   5.290  0.0416 -0.5049 -0.9055
   33CHL1  H12A 3580   1.373   4.188   5.229 -1.3804  0.5678 -2.0088
   33CHL1  H12B 3581   1.218   4.222   5.306  1.2721  0.6257 -0.7762
   33CHL1   C11 3582   1.339   4.094   5.423 -0.1029  0.2720  0.7297
   33CHL1  H11A 3583   1.428   4.028   5.413 -0.2889 -0.1053  1.5371
   33CHL1  H11B 3584   1.366   4.176   5.493  0.9153  0.3618  0.2462
   33CHL1    C9 3585   1.239   4.005   5.501  0.8697  0.3459 -0.9833
   33CHL1    H9 3586   1.165   4.084   5.525  2.2806  0.8338  2.0169
   33CHL1   C10 3587   1.282   3.945   5.641 -0.3224 -0.8148  0.3970
   33CHL1   C19 3588   1.408   3.855   5.617 -0.0669 -0.5829  0.1761
   33CHL1  H19A 3589   1.493   3.905   5.566 -0.9653  0.2436 -0.5294
   33CHL1  H19B 3590   1.446   3.825   5.717 -0.2726  2.1111  1.1128
   33CHL1  H19C 3591   1.372   3.768   5.558  1.9344 -0.8572 -0.6931
   33CHL1    C1 3592   1.323   4.070   5.725  0.3428 -0.0721  0.3246
   33CHL1   H1A 3593   1.420   4.112   5.692  0.1576  0.6728  0.7179
   33CHL1   H1B 3594   1.243   4.147   5.718 -0.8990 -1.2519  1.0447
   33CHL1    C2 3595   1.337   4.046   5.876 -0.5805 -0.0816  0.3146
   33CHL1   H2A 3596   1.344   4.144   5.928  1.5045 -0.1596  0.2125
   33CHL1   H2B 3597   1.427   3.983   5.893 -1.0536  0.0152  3.5403
   33CHL1   C20 3598   1.221   4.103   4.950 -0.2381  0.7315 -0.7846
   33CHL1   H20 3599   1.297   4.022   4.944  0.0726  0.8184  1.5066
   33CHL1   C21 3600   1.306   4.233   4.956  0.4823 -0.1796  0.6007
   33CHL1  H21A 3601   1.359   4.245   4.859 -0.9839 -1.4546 -0.3773
   33CHL1  H21B 3602   1.381   4.225   5.038  0.6163  1.8289  0.7128
   33CHL1  H21C 3603   1.244   4.326   4.957  0.8724  0.0934 -0.0505
   33CHL1   C22 3604   1.149   4.091   4.808 -0.2402 -0.3792 -0.0993
   33CHL1  H22A 3605   1.064   4.019   4.816 -1.6709  0.9793 -2.6186
   33CHL1  H22B 3606   1.110   4.192   4.786 -0.0932 -0.5719 -1.3059
   33CHL1   C23 3607   1.226   4.032   4.696 -0.0817  0.6409 -0.0737
   33CHL1  H23A 3608   1.327   4.077   4.696  0.9356 -1.6058  0.3054
   33CHL1  H23B 3609   1.232   3.921   4.698  0.0361  0.6259 -0.8904
   33CHL1   C24 3610   1.173   4.081   4.565 -0.3544 -0.1626 -0.5257
   33CHL1  H24A 3611   1.068   4.047   4.546  0.1278 -1.6518 -0.5726
   33CHL1  H24B 3612   1.192   4.190   4.555  1.5010 -0.4398 -0.1171
   33CHL1   C25 3613   1.255   4.028   4.448  0.1154  0.5430 -0.0756
   33CHL1   H25 3614   1.258   3.918   4.441  0.1782  0.2986  3.1026
   33CHL1   C26 3615   1.192   4.079   4.317 -0.0948  0.2778 -0.1082
   33CHL1  H26A 3616   1.273   4.086   4.242  0.4625 -1.7205  0.2906
   33CHL1  H26B 3617   1.107   4.020   4.277  0.0148  0.2254 -0.2661
   33CHL1  H26C 3618   1.148   4.179   4.336 -1.2351 -0.6152  2.1523
   33CHL1   C27 3619   1.403   4.081   4.457 -0.5957  0.0636 -0.4921
   33CHL1  H27A 3620   1.455   4.030   4.373 -1.3667 -0.8172 -0.4496
   33CHL1  H27B 3621   1.406   4.192   4.450 -0.2945  0.0230 -1.0920
   33CHL1  H27C 3622   1.464   4.062   4.548  2.1655  2.2687 -1.7939
   34CHL1    C3 3623   2.057   5.778   6.027  0.0512  0.3826 -0.5975
   34CHL1    H3 3624   2.159   5.784   5.983  0.9766 -1.5763  1.1757
   34CHL1    O3 3625   2.086   5.768   6.167  0.0739  0.0101  0.9085
   34CHL1   H3' 3626   2.006   5.784   6.217  1.3039 -0.3351  3.0110
   34CHL1    C4 3627   1.974   5.910   6.001 -0.1461 -0.6074 -0.5111
   34CHL1   H4A 3628   1.873   5.897   6.046  0.2575  1.0025  0.9157
   34CHL1   H4B 3629   2.024   5.988   6.062  1.3108 -1.4894 -0.5602
   34CHL1    C5 3630   1.956   5.924   5.851  0.0168 -0.4507  0.3816
   34CHL1    C6 3631   1.991   6.033   5.780  0.2200 -0.2340  0.5073
   34CHL1    H6 3632   2.036   6.120   5.829 -2.9802  0.8853  1.6017
   34CHL1    C7 3633   1.987   6.049   5.634 -0.4830  0.5718 -0.9549
   34CHL1   H7A 3634   1.952   6.153   5.621  0.2718  0.6135 -2.7623
   34CHL1   H7B 3635   2.094   6.042   5.605  0.6058  1.1002  2.7382
   34CHL1    C8 3636   1.894   5.948   5.560  0.0487 -0.6739  0.5562
   34CHL1    H8 3637   1.791   5.986   5.575 -0.1054 -0.7641 -0.2392
   34CHL1   C14 3638   1.937   5.939   5.414  0.4821  0.0656  0.0621
   34CHL1   H14 3639   2.040   5.899   5.417  0.1487 -0.9315 -1.4446
   34CHL1   C15 3640   1.939   6.060   5.329  0.2196  0.6691 -0.1012
   34CHL1  H15A 3641   1.845   6.112   5.356 -1.2303 -1.3191 -1.1647
   34CHL1  H15B 3642   2.034   6.116   5.344  0.1147  0.4626  1.4944
   34CHL1   C16 3643   1.927   6.014   5.186 -0.7056  0.4620  0.0856
   34CHL1  H16A 3644   1.845   6.071   5.139 -1.3984  1.0718  1.9750
   34CHL1  H16B 3645   2.016   6.038   5.124 -0.4605 -1.5636 -0.3745
   34CHL1   C17 3646   1.910   5.860   5.191  0.3095  0.0361 -0.8115
   34CHL1   H17 3647   2.012   5.818   5.200  0.4262  0.6621  1.0282
   34CHL1   C13 3648   1.852   5.841   5.332 -0.0577 -0.1638 -0.4958
   34CHL1   C18 3649   1.702   5.882   5.308 -0.4972  0.0643 -0.5231
   34CHL1  H18A 3650   1.644   5.880   5.402  3.2331  1.6445  1.9392
   34CHL1  H18B 3651   1.698   5.991   5.283 -0.5087  0.4062  0.9392
   34CHL1  H18C 3652   1.647   5.817   5.237 -1.7455  0.3089  0.2160
   34CHL1   C12 3653   1.855   5.701   5.395 -0.3324  1.0970 -0.4556
   34CHL1  H12A 3654   1.787   5.630   5.343  1.0644 -0.7449  0.1701
   34CHL1  H12B 3655   1.957   5.657   5.400 -1.4652 -1.3790  3.7512
   34CHL1   C11 3656   1.822   5.704   5.545 -0.2272 -1.0444  0.0855
   34CHL1  H11A 3657   1.713   5.721   5.560  0.1256  1.4943 -0.1322
   34CHL1  H11B 3658   1.843   5.605   5.592 -0.7521 -0.7767  0.8912
   34CHL1    C9 3659   1.904   5.806   5.623 -0.2103 -0.1604 -0.1156
   34CHL1    H9 3660   2.009   5.776   5.601  0.6107 -0.8512  4.3429
   34CHL1   C10 3661   1.899   5.803   5.777 -0.2923  0.7296 -0.4079
   34CHL1   C19 3662   1.748   5.798   5.821 -0.0819 -0.8429  0.8031
   34CHL1  H19A 3663   1.742   5.787   5.931 -0.7427  0.8826  0.9502
   34CHL1  H19B 3664   1.698   5.894   5.796  0.9125 -0.2151  1.1491
   34CHL1  H19C 3665   1.696   5.713   5.773  2.1221 -0.7043 -1.9923
   34CHL1    C1 3666   1.964   5.669   5.833  0.2913 -0.8230 -0.4657
   34CHL1   H1A 3667   1.903   5.578   5.813  0.0316 -0.9259  0.7605
   34CHL1   H1B 3668   2.065   5.667   5.788  0.7106 -4.2355  0.5332
   34CHL1    C2 3669   1.987   5.652   5.980 -0.5378 -0.0003 -0.6682
   34CHL1   H2A 3670   2.058   5.568   5.997 -0.4094  0.6623  2.4536
   34CHL1   H2B 3671   1.894   5.624   6.035 -0.1508  3.0233  1.6895
   34CHL1   C20 3672   1.846   5.798   5.062 -0.1414  0.3454  0.2346
   34CHL1   H20 3673   1.746   5.844   5.046 -0.8118 -1.6800 -1.6786
   34CHL1   C21 3674   1.834   5.649   5.077 -0.4005  0.1618  0.0581
   34CHL1  H21A 3675   1.930   5.599   5.101 -0.9883 -0.8115  0.4312
   34CHL1  H21B 3676   1.797   5.600   4.985  1.0338 -1.9081  0.5442
   34CHL1  H21C 3677   1.764   5.607   5.153 -0.3481 -1.4481 -0.7612
   34CHL1   C22 3678   1.921   5.843   4.928  0.3922 -1.0270 -0.5077
   34CHL1  H22A 3679   1.868   5.807   4.837 -0.9465  2.2521 -1.0800
   34CHL1  H22B 3680   1.933   5.953   4.921 -0.5340 -0.9429 -0.7727
   34CHL1   C23 3681   2.069   5.788   4.904 -0.1117 -0.9199 -0.2034
   34CHL1  H23A 3682   2.137   5.834   4.979  1.2523  0.8618 -2.4643
   34CHL1  H23B 3683   2.073   5.677   4.914  2.5513 -0.6010  3.1798
   34CHL1   C24 3684   2.126   5.843   4.776  0.0288 -0.3433  0.6447
   34CHL1  H24A 3685   2.075   5.794   4.690 -2.5445 -1.0337  2.4875
   34CHL1  H24B 3686   2.095   5.946   4.749  2.1977  0.5410  1.3955
   34CHL1   C25 3687   2.273   5.818   4.749 -0.0785  0.2930 -0.1381
   34CHL1   H25 3688   2.329   5.877   4.825 -1.6778  0.7011  0.7402
   34CHL1   C26 3689   2.301   5.667   4.764  0.1016 -0.2714 -0.1590
   34CHL1  H26A 3690   2.409   5.642   4.761 -0.0886 -1.2433  0.8554
   34CHL1  H26B 3691   2.257   5.630   4.859  1.2402 -2.3437 -0.4199
   34CHL1  H26C 3692   2.248   5.616   4.681 -1.0712  0.2299  0.2677
   34CHL1   C27 3693   2.320   5.863   4.609 -0.4430  0.7080 -0.3921
   34CHL1  H27A 3694   2.276   5.806   4.525 -1.4686 -0.4954  0.9216
   34CHL1  H27B 3695   2.295   5.971   4.602 -2.5452  0.2448 -0.3675
   34CHL1  H27C 3696   2.430   5.854   4.600 -0.2007  0.4587  2.4468
   35CHL1    C3 3697   2.538   6.087   5.903 -0.5238  0.3519  0.7345
   35CHL1    H3 3698   2.637   6.037   5.913  0.7013  2.0364 -2.3162
   35CHL1    O3 3699   2.505   6.147   6.026  1.2437 -0.1671  0.0606
   35CHL1   H3' 3700   2.474   6.078   6.085 -1.5132  1.4010  0.5175
   35CHL1    C4 3701   2.547   6.185   5.780 -0.7969 -0.7930 -0.1085
   35CHL1   H4A 3702   2.460   6.254   5.783  0.3889  0.7731 -1.0736
   35CHL1   H4B 3703   2.631   6.254   5.801 -0.5861 -0.7771 -0.9615
   35CHL1    C5 3704   2.584   6.122   5.649 -0.4712  0.2973 -0.0513
   35CHL1    C6 3705   2.690   6.156   5.579 -0.3807  0.0924 -0.1180
   35CHL1    H6 3706   2.752   6.242   5.607 -2.1053  0.7141  1.9597
   35CHL1    C7 3707   2.729   6.097   5.445 -0.5075 -0.4001 -0.2110
   35CHL1   H7A 3708   2.773   6.176   5.380 -1.3085  1.5694  1.5804
   35CHL1   H7B 3709   2.810   6.026   5.470 -1.3954 -1.3312  0.0746
   35CHL1    C8 3710   2.608   6.022   5.381  0.2493  0.1851 -0.4216
   35CHL1    H8 3711   2.534   6.096   5.344  0.6337 -0.5900 -2.8371
   35CHL1   C14 3712   2.662   5.947   5.264  0.0448 -0.1074  0.0442
   35CHL1   H14 3713   2.736   5.885   5.319 -0.1044 -2.6878 -2.5509
   35CHL1   C15 3714   2.733   6.021   5.155 -0.4343  0.0614  0.0151
   35CHL1  H15A 3715   2.666   6.109   5.146 -0.4577  0.1010  0.6074
   35CHL1  H15B 3716   2.836   6.057   5.177 -0.4950  1.2333 -1.5056
   35CHL1   C16 3717   2.727   5.929   5.035  0.3635  0.0984 -0.2197
   35CHL1  H16A 3718   2.656   5.976   4.963  0.4547 -0.3558 -0.6113
   35CHL1  H16B 3719   2.829   5.902   4.998 -0.4340 -2.0189 -0.9805
   35CHL1   C17 3720   2.657   5.796   5.084 -0.0132  0.4779 -0.7140
   35CHL1   H17 3721   2.735   5.735   5.135 -0.6332  1.4571  1.4480
   35CHL1   C13 3722   2.570   5.841   5.201 -0.1045 -0.2840  0.2619
   35CHL1   C18 3723   2.440   5.918   5.140 -0.5744  0.2924  0.0644
   35CHL1  H18A 3724   2.352   5.853   5.128 -0.3276  0.0185 -0.2807
   35CHL1  H18B 3725   2.413   6.002   5.208  1.6631 -1.3929  3.1575
   35CHL1  H18C 3726   2.463   5.964   5.041 -0.1490 -0.6030 -0.2529
   35CHL1   C12 3727   2.529   5.746   5.314 -0.2796 -0.1075 -0.6466
   35CHL1  H12A 3728   2.470   5.664   5.269  1.1586 -0.6187 -1.6305
   35CHL1  H12B 3729   2.621   5.698   5.353 -0.3387  0.9487  0.8681
   35CHL1   C11 3730   2.454   5.819   5.426  0.2156 -0.0165  0.1445
   35CHL1  H11A 3731   2.366   5.871   5.383  1.1315  0.3005 -1.4051
   35CHL1  H11B 3732   2.421   5.759   5.514  0.0510  0.4693  0.4177
   35CHL1    C9 3733   2.550   5.921   5.491 -0.1591 -0.3388  0.5168
   35CHL1    H9 3734   2.643   5.868   5.519  1.3894  1.0007 -1.8320
   35CHL1   C10 3735   2.494   6.000   5.615 -0.2277 -0.3202 -0.0322
   35CHL1   C19 3736   2.355   6.051   5.571  1.0149  0.6819  0.8753
   35CHL1  H19A 3737   2.318   6.128   5.642  0.0389  0.0917  1.0271
   35CHL1  H19B 3738   2.348   6.099   5.471 -1.4594 -0.1932  0.5847
   35CHL1  H19C 3739   2.282   5.967   5.572  1.1032  0.6125  1.2829
   35CHL1    C1 3740   2.485   5.903   5.744  0.5854  0.6621  0.9569
   35CHL1   H1A 3741   2.420   5.815   5.730  2.3493 -0.5674  0.3373
   35CHL1   H1B 3742   2.586   5.857   5.740  0.6205  0.8643 -1.8739
   35CHL1    C2 3743   2.438   5.973   5.867  0.1807  0.3929 -0.0267
   35CHL1   H2A 3744   2.423   5.905   5.954  0.4756 -1.2797 -1.2513
   35CHL1   H2B 3745   2.337   6.011   5.843  0.0568  1.0969  1.5438
   35CHL1   C20 3746   2.596   5.708   4.968 -0.0597  0.1069  0.4363
   35CHL1   H20 3747   2.536   5.781   4.911  3.0104  1.7678 -0.7864
   35CHL1   C21 3748   2.498   5.599   5.007  0.1875  0.4301 -0.0972
   35CHL1  H21A 3749   2.535   5.526   5.082 -1.0199  1.2051  1.2634
   35CHL1  H21B 3750   2.478   5.536   4.917  0.1741 -0.7351  0.7098
   35CHL1  H21C 3751   2.408   5.654   5.041  0.6390  1.8198 -1.0953
   35CHL1   C22 3752   2.704   5.651   4.880  0.0182 -0.4177  0.6737
   35CHL1  H22A 3753   2.779   5.731   4.861  0.5158 -1.6078 -2.6219
   35CHL1  H22B 3754   2.756   5.567   4.931  2.3617  0.0850 -0.7869
   35CHL1   C23 3755   2.671   5.588   4.741  0.0272  0.5976 -0.3928
   35CHL1  H23A 3756   2.620   5.491   4.759 -0.2135  0.1264 -3.4064
   35CHL1  H23B 3757   2.595   5.655   4.694 -0.3815  1.3297  1.2340
   35CHL1   C24 3758   2.791   5.566   4.651  0.7017 -0.6151  0.6730
   35CHL1  H24A 3759   2.861   5.651   4.642  0.7769 -0.7694 -0.2051
   35CHL1  H24B 3760   2.846   5.479   4.692  0.1606 -0.7869  1.0447
   35CHL1   C25 3761   2.742   5.528   4.506 -0.5341 -0.3295 -0.7057
   35CHL1   H25 3762   2.680   5.609   4.463  0.1717  0.9507  0.6466
   35CHL1   C26 3763   2.862   5.509   4.420 -0.4070 -0.3749  0.6164
   35CHL1  H26A 3764   2.863   5.594   4.347  1.1412 -0.8871  0.0189
   35CHL1  H26B 3765   2.959   5.513   4.474 -0.3579  1.6308  0.4497
   35CHL1  H26C 3766   2.863   5.420   4.354 -0.1882  0.4145 -0.4657
   35CHL1   C27 3767   2.652   5.403   4.500 -0.2232 -0.8134  0.4945
   35CHL1  H27A 3768   2.686   5.319   4.564 -0.7479 -1.4474 -0.0562
   35CHL1  H27B 3769   2.552   5.436   4.535  0.9073  0.1486  2.9543
   35CHL1  H27C 3770   2.636   5.382   4.392 -0.7393  0.7443  0.2520
   36CHL1    C3 3771   0.792   4.254   5.925  0.1934  0.2673 -0.2197
   36CHL1    H3 3772   0.898   4.282   5.909  0.1081  2.1024  2.2393
   36CHL1    O3 3773   0.772   4.243   6.065  0.0594  0.8043 -0.4026
   36CHL1   H3' 3774   0.689   4.285   6.089  0.5423  1.0261  0.9257
   36CHL1    C4 3775   0.698   4.368   5.877 -0.9106 -0.7865  0.0835
   36CHL1   H4A 3776   0.594   4.339   5.904 -1.0207  0.1655  0.6791
   36CHL1   H4B 3777   0.730   4.453   5.941 -0.6856 -1.3870  0.7817
   36CHL1    C5 3778   0.712   4.389   5.726  0.2234 -0.4357 -0.1759
   36CHL1    C6 3779   0.741   4.515   5.680  0.6002 -0.3467 -0.3795
   36CHL1    H6 3780   0.740   4.596   5.754  2.8012  0.2414 -0.9599
   36CHL1    C7 3781   0.754   4.546   5.536 -0.3510 -0.2793 -0.6014
   36CHL1   H7A 3782   0.696   4.639   5.518  0.2963  0.2223 -0.1144
   36CHL1   H7B 3783   0.858   4.581   5.520  0.0599 -0.6048  1.2847
   36CHL1    C8 3784   0.702   4.436   5.444  0.3558  0.6198  0.9268
   36CHL1    H8 3785   0.592   4.450   5.450  0.4961  1.4797  1.5337
   36CHL1   C14 3786   0.759   4.467   5.304 -0.2358 -0.4202  0.9026
   36CHL1   H14 3787   0.868   4.456   5.321 -0.2075  1.4587  2.1319
   36CHL1   C15 3788   0.736   4.612   5.241 -0.1656  0.6457  0.7578
   36CHL1  H15A 3789   0.632   4.643   5.262 -0.1879  1.6199 -0.7390
   36CHL1  H15B 3790   0.798   4.695   5.282  2.3465  0.4459 -2.4579
   36CHL1   C16 3791   0.762   4.585   5.091  0.7160 -0.5585  0.7786
   36CHL1  H16A 3792   0.676   4.634   5.040  1.8863  0.3438 -0.3479
   36CHL1  H16B 3793   0.852   4.632   5.045  0.1956 -1.4999 -1.2719
   36CHL1   C17 3794   0.768   4.432   5.070  0.7529  0.3281 -0.3219
   36CHL1   H17 3795   0.876   4.407   5.077  0.4993 -0.1553  2.0035
   36CHL1   C13 3796   0.716   4.360   5.199 -0.3308  0.1263 -0.3118
   36CHL1   C18 3797   0.559   4.365   5.186 -0.2733  0.4880 -0.4936
   36CHL1  H18A 3798   0.506   4.329   5.276 -1.5771  0.6895 -1.1663
   36CHL1  H18B 3799   0.529   4.471   5.178  0.0146  0.5743 -0.4230
   36CHL1  H18C 3800   0.522   4.298   5.105 -0.4391  0.8273 -0.6996
   36CHL1   C12 3801   0.769   4.218   5.245  0.2548 -0.2789 -0.7745
   36CHL1  H12A 3802   0.737   4.133   5.182 -0.2214 -1.3060  0.8352
   36CHL1  H12B 3803   0.880   4.214   5.249  0.3492  1.0081 -1.5016
   36CHL1   C11 3804   0.715   4.185   5.384 -0.0886 -0.1598 -0.9383
   36CHL1  H11A 3805   0.605   4.176   5.375  0.3001 -3.7485 -3.3187
   36CHL1  H11B 3806   0.761   4.093   5.427  1.0196 -0.1054 -1.9987
   36CHL1    C9 3807   0.744   4.299   5.493  0.3776  0.3357  0.7910
   36CHL1    H9 3808   0.855   4.295   5.502  0.5102  3.4828  0.8820
   36CHL1   C10 3809   0.690   4.268   5.639  0.5912 -0.2568  0.8039
   36CHL1   C19 3810   0.539   4.228   5.633  0.0423  0.7784 -0.9610
   36CHL1  H19A 3811   0.487   4.209   5.729  1.5074 -0.0413 -0.3181
   36CHL1  H19B 3812   0.493   4.302   5.563  0.1308 -0.0326 -1.8873
   36CHL1  H19C 3813   0.519   4.137   5.573  1.5061  0.9885 -1.8061
   36CHL1    C1 3814   0.773   4.149   5.694 -0.1024 -0.4631  0.3200
   36CHL1   H1A 3815   0.758   4.053   5.641 -1.8096 -0.6819  1.1526
   36CHL1   H1B 3816   0.882   4.160   5.676  0.3032 -3.1632  0.8848
   36CHL1    C2 3817   0.772   4.121   5.848 -0.5301  0.5855  0.4327
   36CHL1   H2A 3818   0.854   4.054   5.880 -1.5908 -0.4331  1.0214
   36CHL1   H2B 3819   0.673   4.077   5.873 -0.0144 -0.5959  0.4256
   36CHL1   C20 3820   0.712   4.378   4.934  0.3426  0.8474 -0.0846
   36CHL1   H20 3821   0.602   4.378   4.942  0.3510 -2.5223  0.9908
   36CHL1   C21 3822   0.772   4.235   4.916  0.4119  0.3303  0.2052
   36CHL1  H21A 3823   0.800   4.208   4.812  3.0906 -3.1866  1.7311
   36CHL1  H21B 3824   0.711   4.154   4.961 -1.3639 -0.2595 -3.1036
   36CHL1  H21C 3825   0.869   4.220   4.968  0.4645  1.1184  0.3470
   36CHL1   C22 3826   0.740   4.457   4.803  0.7333  0.5407 -0.8099
   36CHL1  H22A 3827   0.697   4.400   4.717 -0.1725  0.4548 -0.3074
   36CHL1  H22B 3828   0.690   4.557   4.806 -0.3215  0.0319 -1.1594
   36CHL1   C23 3829   0.887   4.492   4.771 -0.0448 -0.1624  0.2959
   36CHL1  H23A 3830   0.922   4.544   4.862 -1.7781 -0.9375  1.4282
   36CHL1  H23B 3831   0.943   4.399   4.748 -1.4365 -1.4338  1.9969
   36CHL1   C24 3832   0.892   4.589   4.649 -0.0089 -0.2315 -0.2785
   36CHL1  H24A 3833   0.819   4.545   4.578 -0.6115 -2.1193  1.4366
   36CHL1  H24B 3834   0.837   4.683   4.671  0.5402  0.6710 -2.6122
   36CHL1   C25 3835   1.035   4.620   4.591 -0.5120  0.1735  0.1531
   36CHL1   H25 3836   1.092   4.679   4.666  3.6121 -1.8827 -1.2151
   36CHL1   C26 3837   1.118   4.492   4.557  0.1810 -0.0798  0.2370
   36CHL1  H26A 3838   1.078   4.434   4.472 -0.0561  0.4435 -0.0084
   36CHL1  H26B 3839   1.220   4.535   4.544  0.0266  0.0123 -0.6664
   36CHL1  H26C 3840   1.126   4.430   4.649 -2.4732  0.7662  1.0631
   36CHL1   C27 3841   1.023   4.721   4.477 -0.4262  0.5287 -0.3162
   36CHL1  H27A 3842   0.954   4.699   4.393 -0.9586 -0.6939  0.4306
   36CHL1  H27B 3843   0.977   4.807   4.530 -1.4297  0.5465 -1.1817
   36CHL1  H27C 3844   1.119   4.742   4.426  0.8441 -1.3888  1.2586
   37CHL1    C3 3845   0.952   2.018   5.851  0.8112  0.4219  0.1535
   37CHL1    H3 3846   1.018   1.932   5.827 -0.7735 -0.7309 -0.1993
   37CHL1    O3 3847   0.928   2.004   5.992 -0.1965 -0.1878 -0.2275
   37CHL1   H3' 3848   0.862   2.071   6.013  0.6542  0.7684 -0.5823
   37CHL1    C4 3849   1.027   2.153   5.823 -0.1701  0.4684  0.0678
   37CHL1   H4A 3850   0.973   2.246   5.850 -2.3246 -0.2529 -1.5957
   37CHL1   H4B 3851   1.120   2.152   5.884  0.3152  0.4333 -0.6633
   37CHL1    C5 3852   1.057   2.161   5.677  0.2752 -0.0022  0.6832
   37CHL1    C6 3853   1.179   2.183   5.626  0.4207  0.0223  0.2800
   37CHL1    H6 3854   1.262   2.194   5.698  0.6540  3.4794 -0.4058
   37CHL1    C7 3855   1.210   2.198   5.486 -0.1735  0.3401 -0.0469
   37CHL1   H7A 3856   1.281   2.281   5.464  0.7758 -1.0104 -2.2859
   37CHL1   H7B 3857   1.267   2.106   5.460  0.3248  0.4242  0.7212
   37CHL1    C8 3858   1.084   2.220   5.394  0.4965 -0.2941  0.0369
   37CHL1    H8 3859   1.048   2.323   5.412  0.9745  0.0326 -0.8491
   37CHL1   C14 3860   1.124   2.202   5.252  0.5265  0.4138  0.5243
   37CHL1   H14 3861   1.177   2.105   5.239 -1.1531 -0.4940  0.3725
   37CHL1   C15 3862   1.228   2.306   5.198 -0.1123 -0.4760  0.2597
   37CHL1  H15A 3863   1.204   2.407   5.236 -2.4125 -1.5982  1.9126
   37CHL1  H15B 3864   1.334   2.288   5.224  0.9810  3.0915 -1.5207
   37CHL1   C16 3865   1.208   2.307   5.043  0.9316  0.4470 -0.8720
   37CHL1  H16A 3866   1.193   2.415   5.023  2.7871  1.2059  1.6546
   37CHL1  H16B 3867   1.297   2.265   4.992  2.6469  3.4667 -0.4526
   37CHL1   C17 3868   1.088   2.209   5.013  0.1977  0.5204 -0.2245
   37CHL1   H17 3869   1.136   2.109   5.005  1.6090  1.0743  0.9700
   37CHL1   C13 3870   1.014   2.204   5.150 -0.2184 -0.5154  0.4783
   37CHL1   C18 3871   0.935   2.334   5.164 -0.2482  0.3108  0.0145
   37CHL1  H18A 3872   0.867   2.336   5.076  0.4462  3.4290 -0.5353
   37CHL1  H18B 3873   0.875   2.347   5.256  1.1185  0.6621  0.8794
   37CHL1  H18C 3874   1.002   2.422   5.151 -1.9017  1.5698 -0.0190
   37CHL1   C12 3875   0.923   2.080   5.178 -0.7255  0.4837 -0.3382
   37CHL1  H12A 3876   0.839   2.090   5.107 -1.0253  0.4249  0.0089
   37CHL1  H12B 3877   0.978   1.987   5.152 -0.5857  0.8683 -1.4481
   37CHL1   C11 3878   0.875   2.084   5.321 -0.4520 -0.8890 -0.6827
   37CHL1  H11A 3879   0.799   2.166   5.319  2.1901  1.6127 -1.3311
   37CHL1  H11B 3880   0.823   1.991   5.351  0.8275 -1.7145 -0.9870
   37CHL1    C9 3881   0.978   2.112   5.434 -0.3091  0.6521  0.0938
   37CHL1    H9 3882   1.034   2.017   5.433 -0.8404  0.3329  0.1126
   37CHL1   C10 3883   0.932   2.138   5.588  0.0641 -0.3723  0.0720
   37CHL1   C19 3884   0.839   2.266   5.589 -0.1142  0.2478  0.2285
   37CHL1  H19A 3885   0.783   2.275   5.684  0.8064  2.8084  0.5530
   37CHL1  H19B 3886   0.889   2.365   5.588 -1.6275  1.0580  2.0455
   37CHL1  H19C 3887   0.766   2.268   5.505 -1.9201 -2.2481  1.6660
   37CHL1    C1 3888   0.839   2.022   5.630  0.5856 -0.4588  0.6300
   37CHL1   H1A 3889   0.749   2.010   5.565  0.6044 -2.6566  0.9800
   37CHL1   H1B 3890   0.899   1.931   5.607  1.0242  0.3457 -1.5523
   37CHL1    C2 3891   0.815   2.007   5.778  0.4864  0.0153 -0.0181
   37CHL1   H2A 3892   0.765   1.909   5.791 -1.4324  0.4240 -3.4790
   37CHL1   H2B 3893   0.742   2.080   5.817  1.3888  0.6895  0.4233
   37CHL1   C20 3894   1.006   2.232   4.888  0.9506 -0.1011  0.3496
   37CHL1   H20 3895   0.899   2.211   4.912 -0.1862  2.1025 -2.4104
   37CHL1   C21 3896   1.047   2.132   4.775  0.4951 -0.5942 -0.2731
   37CHL1  H21A 3897   1.005   2.166   4.678  0.7633 -0.3468 -0.3030
   37CHL1  H21B 3898   1.039   2.025   4.803  0.0517  0.2334  2.8788
   37CHL1  H21C 3899   1.156   2.147   4.757  0.3383 -0.5845 -1.2630
   37CHL1   C22 3900   1.004   2.378   4.832  0.2508  0.3332  0.2915
   37CHL1  H22A 3901   1.006   2.462   4.905 -2.4865  1.4721 -0.8764
   37CHL1  H22B 3902   1.088   2.382   4.761 -1.0062 -2.2562 -1.4417
   37CHL1   C23 3903   0.873   2.410   4.752  0.2199 -0.1540  0.3562
   37CHL1  H23A 3904   0.868   2.332   4.673 -3.1420  0.3574  0.0001
   37CHL1  H23B 3905   0.781   2.389   4.809 -0.6965 -2.1190 -1.7984
   37CHL1   C24 3906   0.881   2.548   4.687  0.3013 -0.3913  0.6287
   37CHL1  H24A 3907   0.852   2.627   4.759  1.6897 -2.1717  3.1799
   37CHL1  H24B 3908   0.990   2.553   4.665  0.3172 -1.3259  0.4596
   37CHL1   C25 3909   0.792   2.551   4.561  0.6318  0.0211 -0.2083
   37CHL1   H25 3910   0.705   2.485   4.582 -0.2775  0.9755 -0.9484
   37CHL1   C26 3911   0.736   2.695   4.522 -0.3551 -0.0196 -0.0566
   37CHL1  H26A 3912   0.670   2.714   4.609  0.2038  1.1131  0.1285
   37CHL1  H26B 3913   0.802   2.784   4.529  1.2654 -1.2827  1.0204
   37CHL1  H26C 3914   0.674   2.691   4.429 -0.3219  3.2452 -0.2791
   37CHL1   C27 3915   0.884   2.516   4.443 -0.3808 -0.4054 -0.7423
   37CHL1  H27A 3916   0.945   2.430   4.478 -2.2686 -0.7375  1.9278
   37CHL1  H27B 3917   0.832   2.489   4.349 -1.0133  1.5179 -0.9715
   37CHL1  H27C 3918   0.962   2.594   4.436 -0.9109  0.4602  2.1470
   38CHL1    C3 3919   3.159   0.368   6.004 -0.0340 -0.0093  0.0613
   38CHL1    H3 3920   3.103   0.273   5.992 -0.6543  0.3776 -0.1385
   38CHL1    O3 3921   3.247   0.349   6.118 -0.0569 -0.6006  0.1210
   38CHL1   H3' 3922   3.293   0.433   6.117  1.5257 -1.4649 -1.1537
   38CHL1    C4 3923   3.238   0.390   5.871 -0.6193  0.0659 -1.0372
   38CHL1   H4A 3924   3.310   0.470   5.897 -1.4307  0.3053  0.5177
   38CHL1   H4B 3925   3.298   0.299   5.849  1.1677  0.4626  1.9416
   38CHL1    C5 3926   3.153   0.428   5.759  0.7256 -0.4636  0.0296
   38CHL1    C6 3927   3.152   0.350   5.644 -0.1419  0.6469  0.1422
   38CHL1    H6 3928   3.211   0.258   5.635  0.3154  0.9904 -0.3850
   38CHL1    C7 3929   3.071   0.392   5.523  0.7378  0.7896  0.1320
   38CHL1   H7A 3930   3.135   0.375   5.434  1.3634 -0.4565  0.8078
   38CHL1   H7B 3931   2.986   0.322   5.508 -0.5464  1.9774  1.6496
   38CHL1    C8 3932   3.027   0.540   5.526 -0.2815 -0.5039 -0.3826
   38CHL1    H8 3933   3.119   0.598   5.503  0.0508 -0.8396  0.0837
   38CHL1   C14 3934   2.912   0.564   5.428 -0.2171 -0.0912  0.3184
   38CHL1   H14 3935   2.821   0.507   5.454 -1.3537  1.5484  0.0317
   38CHL1   C15 3936   2.943   0.512   5.286  1.1274 -0.9889 -0.5237
   38CHL1  H15A 3937   3.049   0.541   5.271  1.6301 -2.9260 -0.7379
   38CHL1  H15B 3938   2.935   0.402   5.284  2.1861 -1.1446  2.0599
   38CHL1   C16 3939   2.833   0.585   5.198 -0.2321  0.4402 -0.1069
   38CHL1  H16A 3940   2.888   0.634   5.116  2.1189 -0.4774  0.8875
   38CHL1  H16B 3941   2.760   0.516   5.150 -0.4332  0.2793  0.4198
   38CHL1   C17 3942   2.770   0.695   5.297 -0.1930 -0.6342  0.4085
   38CHL1   H17 3943   2.678   0.651   5.341 -1.8379  1.0955 -1.2145
   38CHL1   C13 3944   2.871   0.711   5.415 -0.6034  0.1232  0.1491
   38CHL1   C18 3945   2.987   0.788   5.369 -0.2687  0.2940  0.4882
   38CHL1  H18A 3946   2.962   0.895   5.351  0.0463  0.2860 -0.0296
   38CHL1  H18B 3947   3.064   0.793   5.450 -1.3072 -0.8111  1.5622
   38CHL1  H18C 3948   3.023   0.746   5.272  0.1724  1.0949  0.2962
   38CHL1   C12 3949   2.820   0.766   5.548 -0.2803 -0.5458  0.0473
   38CHL1  H12A 3950   2.791   0.873   5.543 -1.2953 -0.8393 -0.4847
   38CHL1  H12B 3951   2.732   0.705   5.577 -1.6426  0.8277 -1.1534
   38CHL1   C11 3952   2.915   0.740   5.662 -0.4938  0.1156 -0.1711
   38CHL1  H11A 3953   3.005   0.802   5.640 -0.3679 -1.0973 -3.2701
   38CHL1  H11B 3954   2.875   0.777   5.759 -2.9520 -0.4584 -0.9469
   38CHL1    C9 3955   2.969   0.592   5.660 -0.3102  0.1118 -0.1197
   38CHL1    H9 3956   2.880   0.528   5.679  1.5684 -1.9455  2.0422
   38CHL1   C10 3957   3.063   0.554   5.775 -0.1055  0.1842 -0.2003
   38CHL1   C19 3958   3.148   0.675   5.805  0.2324  0.2410  0.1380
   38CHL1  H19A 3959   3.194   0.689   5.705 -0.6151  0.4404 -0.2274
   38CHL1  H19B 3960   3.086   0.765   5.824  0.9016  1.3317 -2.5654
   38CHL1  H19C 3961   3.221   0.675   5.889  0.3568 -0.0813  0.0307
   38CHL1    C1 3962   2.984   0.516   5.902 -0.2130 -0.1814 -0.1670
   38CHL1   H1A 3963   2.922   0.606   5.915  0.3420 -0.0478  1.6805
   38CHL1   H1B 3964   2.914   0.434   5.875  0.6875 -0.6532 -1.1269
   38CHL1    C2 3965   3.065   0.483   6.033 -0.5192 -0.4400  0.6418
   38CHL1   H2A 3966   2.993   0.449   6.110 -1.1430 -0.5789 -0.0008
   38CHL1   H2B 3967   3.115   0.575   6.070 -0.9084 -0.9105  2.3900
   38CHL1   C20 3968   2.728   0.821   5.211  0.6915  0.3237 -0.1303
   38CHL1   H20 3969   2.819   0.878   5.183  2.9433 -1.3254  3.5296
   38CHL1   C21 3970   2.653   0.917   5.299 -0.6991  0.1665 -0.4963
   38CHL1  H21A 3971   2.724   0.983   5.353 -1.5533  0.7824 -0.1201
   38CHL1  H21B 3972   2.585   0.864   5.369  1.2292  0.9940  2.0935
   38CHL1  H21C 3973   2.594   0.998   5.251  0.1972  0.8495 -0.4589
   38CHL1   C22 3974   2.654   0.790   5.082 -0.2456 -0.3522  0.1950
   38CHL1  H22A 3975   2.702   0.706   5.027  0.2959  0.4838 -0.6278
   38CHL1  H22B 3976   2.550   0.760   5.107 -0.8014  0.8692 -0.6161
   38CHL1   C23 3977   2.646   0.909   4.990 -0.3150  0.1929 -0.7848
   38CHL1  H23A 3978   2.612   1.000   5.045  1.5336  0.0534  0.6271
   38CHL1  H23B 3979   2.750   0.926   4.957  0.4347  2.1114  2.3512
   38CHL1   C24 3980   2.548   0.893   4.871 -0.2797 -0.1885  0.0595
   38CHL1  H24A 3981   2.465   0.833   4.913  0.2505 -0.3963  0.8304
   38CHL1  H24B 3982   2.513   0.987   4.823 -2.7861 -0.9894  0.2537
   38CHL1   C25 3983   2.603   0.811   4.753  0.6053 -0.0192  0.0001
   38CHL1   H25 3984   2.626   0.709   4.790  1.0366 -1.1997 -3.3556
   38CHL1   C26 3985   2.497   0.793   4.637 -0.4803 -0.4179 -0.4667
   38CHL1  H26A 3986   2.487   0.887   4.578  0.4009  1.0814  1.7320
   38CHL1  H26B 3987   2.535   0.714   4.569 -2.6114 -0.3125 -1.8587
   38CHL1  H26C 3988   2.402   0.754   4.682  0.8815 -2.3041  0.8522
   38CHL1   C27 3989   2.730   0.864   4.694 -0.5315  0.2371 -0.1715
   38CHL1  H27A 3990   2.824   0.864   4.753  0.8061  3.2068 -2.1621
   38CHL1  H27B 3991   2.762   0.792   4.614 -1.4576  0.7108 -0.9752
   38CHL1  H27C 3992   2.721   0.970   4.663 -1.1528 -0.2133 -1.5783
   39CHL1    C3 3993   4.269   0.678   6.026 -0.1733 -0.1002  0.1324
   39CHL1    H3 3994   4.162   0.699   6.004  0.2638  3.2872  0.9713
   39CHL1    O3 3995   4.279   0.685   6.170 -0.0630 -0.1068  0.2516
   39CHL1   H3' 3996   4.243   0.772   6.192  0.7193  0.4631 -0.6890
   39CHL1    C4 3997   4.327   0.551   5.970 -0.0804 -0.6728  0.2776
   39CHL1   H4A 3998   4.430   0.547   6.011 -0.1513  1.0978  0.6577
   39CHL1   H4B 3999   4.259   0.474   6.012 -0.7109  0.1013  0.6903
   39CHL1    C5 4000   4.328   0.545   5.815  0.5840  0.1410 -0.2830
   39CHL1    C6 4001   4.266   0.448   5.748  0.6245 -0.0548  0.2990
   39CHL1    H6 4002   4.208   0.366   5.793 -1.3464  0.4225 -1.2934
   39CHL1    C7 4003   4.261   0.434   5.598 -1.1361 -0.4570 -0.6052
   39CHL1   H7A 4004   4.285   0.330   5.569 -0.9912 -0.2337 -1.3058
   39CHL1   H7B 4005   4.161   0.455   5.554 -1.1903 -0.9149 -0.7039
   39CHL1    C8 4006   4.363   0.528   5.532  0.5318  0.4707 -0.4790
   39CHL1    H8 4007   4.462   0.480   5.545  0.5465  0.0199 -2.1879
   39CHL1   C14 4008   4.333   0.553   5.386 -0.3457  0.5805 -0.2580
   39CHL1   H14 4009   4.233   0.601   5.389 -0.8864 -0.5687  0.1829
   39CHL1   C15 4010   4.309   0.426   5.298 -1.1008 -0.1570 -0.3056
   39CHL1  H15A 4011   4.363   0.335   5.333  1.3407  1.3003 -0.1459
   39CHL1  H15B 4012   4.200   0.408   5.303 -0.8209 -2.2792 -1.1346
   39CHL1   C16 4013   4.344   0.465   5.156 -0.2867  0.6098  0.3089
   39CHL1  H16A 4014   4.435   0.412   5.122 -0.4200  1.6523 -1.7518
   39CHL1  H16B 4015   4.267   0.433   5.082  2.1002 -0.6820 -1.6882
   39CHL1   C17 4016   4.364   0.622   5.162 -0.0995  0.4417  1.1558
   39CHL1   H17 4017   4.261   0.664   5.172 -1.1212 -2.2302  2.5040
   39CHL1   C13 4018   4.424   0.642   5.308  0.5444 -0.2006 -0.0851
   39CHL1   C18 4019   4.572   0.599   5.287 -0.0567  0.8696 -0.3339
   39CHL1  H18A 4020   4.613   0.683   5.228 -3.2592  1.4400 -1.8478
   39CHL1  H18B 4021   4.625   0.595   5.385 -1.6665  0.1612  0.5249
   39CHL1  H18C 4022   4.596   0.505   5.234 -2.4625  0.8044 -1.3601
   39CHL1   C12 4023   4.415   0.787   5.371 -0.3807  0.3398 -0.5358
   39CHL1  H12A 4024   4.484   0.859   5.323  1.3397 -0.1795  1.1041
   39CHL1  H12B 4025   4.312   0.828   5.366 -0.4409  0.0751 -1.4815
   39CHL1   C11 4026   4.449   0.778   5.522 -0.1876 -0.0850  0.1705
   39CHL1  H11A 4027   4.558   0.762   5.538 -0.3994 -0.0848  1.6570
   39CHL1  H11B 4028   4.418   0.878   5.557 -0.6706  0.4558 -1.7299
   39CHL1    C9 4029   4.365   0.667   5.605  0.0225 -0.2839 -0.1860
   39CHL1    H9 4030   4.261   0.707   5.603 -0.0793 -0.5847 -1.1281
   39CHL1   C10 4031   4.403   0.663   5.751 -0.9714 -0.0253 -0.0101
   39CHL1   C19 4032   4.555   0.653   5.778  0.1062  0.3535 -0.8039
   39CHL1  H19A 4033   4.612   0.744   5.748  1.7978 -0.2603  0.4635
   39CHL1  H19B 4034   4.584   0.609   5.875  1.4722  1.6466 -0.6125
   39CHL1  H19C 4035   4.597   0.586   5.699 -0.6830 -1.0711 -0.0390
   39CHL1    C1 4036   4.360   0.798   5.817 -0.1059  0.1112 -0.0527
   39CHL1   H1A 4037   4.412   0.885   5.773 -0.2572 -0.5761 -1.5914
   39CHL1   H1B 4038   4.253   0.813   5.788  0.1355  1.0319 -0.4890
   39CHL1    C2 4039   4.363   0.791   5.967 -0.6312  0.1120 -0.4324
   39CHL1   H2A 4040   4.325   0.881   6.020 -0.1895  0.5908 -0.9236
   39CHL1   H2B 4041   4.468   0.775   5.999 -0.1405  0.2413 -1.9277
   39CHL1   C20 4042   4.430   0.681   5.032  0.1646  0.1462 -0.0461
   39CHL1   H20 4043   4.538   0.655   5.019  0.4095  0.7597  0.7100
   39CHL1   C21 4044   4.426   0.832   5.052 -0.7170 -0.1929  0.0261
   39CHL1  H21A 4045   4.441   0.883   4.954  1.8128  0.5234  0.7546
   39CHL1  H21B 4046   4.513   0.855   5.117 -0.6192  0.6245 -0.3846
   39CHL1  H21C 4047   4.337   0.872   5.106  0.2069  0.3952  1.1119
   39CHL1   C22 4048   4.351   0.624   4.907  0.3661  0.7012  0.0283
   39CHL1  H22A 4049   4.385   0.519   4.900 -1.4340  0.1181 -0.0593
   39CHL1  H22B 4050   4.241   0.625   4.919  0.3012  0.3527 -0.5442
   39CHL1   C23 4051   4.386   0.690   4.769 -0.1451  0.2824 -0.1617
   39CHL1  H23A 4052   4.362   0.797   4.781  0.5643  0.4644 -0.3315
   39CHL1  H23B 4053   4.495   0.675   4.752 -0.0448  1.9157 -1.0355
   39CHL1   C24 4054   4.311   0.622   4.657 -0.0068  0.6420 -0.4854
   39CHL1  H24A 4055   4.328   0.513   4.648 -0.4601  0.6401 -1.3859
   39CHL1  H24B 4056   4.201   0.639   4.669  0.4799  1.6004  3.2180
   39CHL1   C25 4057   4.358   0.667   4.521 -0.4151  0.8043  0.2357
   39CHL1   H25 4058   4.469   0.666   4.519 -0.4050 -0.0240  1.0885
   39CHL1   C26 4059   4.313   0.567   4.406 -0.1230  0.9296  0.1898
   39CHL1  H26A 4060   4.326   0.463   4.443 -1.1852  0.6819 -0.0976
   39CHL1  H26B 4061   4.207   0.596   4.387 -0.5850 -0.2989  0.7959
   39CHL1  H26C 4062   4.376   0.596   4.319 -0.7967  0.2735 -0.5300
   39CHL1   C27 4063   4.309   0.806   4.484  0.2138  0.7484  0.4148
   39CHL1  H27A 4064   4.374   0.836   4.399 -0.3319  1.4466  0.2337
   39CHL1  H27B 4065   4.203   0.806   4.451  1.4711  0.5385 -3.9287
   39CHL1  H27C 4066   4.336   0.882   4.561 -1.5869  1.2299  0.5926
   40CHL1    C3 4067   2.318   6.550   5.900 -0.0442  0.0709  0.0275
   40CHL1    H3 4068   2.385   6.466   5.928  0.0815  0.2033  0.1267
   40CHL1    O3 4069   2.281   6.618   6.022  0.0516  0.6830 -0.0405
   40CHL1   H3' 4070   2.353   6.678   6.042  1.4775 -1.1367  0.4474
   40CHL1    C4 4071   2.382   6.647   5.798  0.0261 -1.0701 -0.0958
   40CHL1   H4A 4072   2.321   6.739   5.803 -0.4392 -1.3780 -0.0280
   40CHL1   H4B 4073   2.478   6.681   5.843 -0.6013  0.8843 -0.1949
   40CHL1    C5 4074   2.408   6.592   5.654  0.0660 -0.5502 -0.5737
   40CHL1    C6 4075   2.527   6.583   5.597 -0.2067 -1.1616  0.2170
   40CHL1    H6 4076   2.612   6.625   5.654 -0.4453 -1.3313  0.7023
   40CHL1    C7 4077   2.555   6.521   5.460  0.3246  0.1237 -0.5451
   40CHL1   H7A 4078   2.636   6.575   5.407  0.8463  2.3312  2.3434
   40CHL1   H7B 4079   2.608   6.425   5.479  1.1038  0.4428 -1.0964
   40CHL1    C8 4080   2.429   6.508   5.379 -0.4475  0.0140  0.1635
   40CHL1    H8 4081   2.396   6.612   5.355  0.6806  0.4177  0.3264
   40CHL1   C14 4082   2.453   6.426   5.262 -0.4608 -0.3033 -0.6738
   40CHL1   H14 4083   2.499   6.332   5.302  0.6323  0.7942  0.7168
   40CHL1   C15 4084   2.560   6.480   5.167  0.3532  0.1879 -0.2528
   40CHL1  H15A 4085   2.551   6.590   5.149 -3.6516  0.3696  2.2717
   40CHL1  H15B 4086   2.657   6.451   5.212  0.6896 -0.8870 -1.6466
   40CHL1   C16 4087   2.534   6.401   5.034 -0.4225  0.1963 -0.0979
   40CHL1  H16A 4088   2.524   6.473   4.950 -0.3595 -1.0832 -1.2170
   40CHL1  H16B 4089   2.597   6.310   5.020 -0.9374 -0.4327  1.5432
   40CHL1   C17 4090   2.389   6.339   5.045  0.2839  0.0899 -0.1482
   40CHL1   H17 4091   2.407   6.235   5.080  0.9781  0.6992  1.3637
   40CHL1   C13 4092   2.330   6.400   5.173  0.4263 -0.1844  0.1846
   40CHL1   C18 4093   2.260   6.527   5.131  0.4086 -0.0312 -0.3835
   40CHL1  H18A 4094   2.236   6.584   5.223 -0.7731 -2.3546  0.7578
   40CHL1  H18B 4095   2.334   6.586   5.071 -1.6446  1.1197 -1.8512
   40CHL1  H18C 4096   2.163   6.517   5.078  0.7301  1.1779 -1.2543
   40CHL1   C12 4097   2.234   6.319   5.254 -0.6977 -0.1683  0.3712
   40CHL1  H12A 4098   2.140   6.311   5.195 -1.5531  1.1633  1.5339
   40CHL1  H12B 4099   2.273   6.216   5.270 -0.2384  0.1882  1.5858
   40CHL1   C11 4100   2.204   6.379   5.389 -0.1985 -0.7225 -0.1221
   40CHL1  H11A 4101   2.140   6.467   5.368  1.0039  0.6210  1.7107
   40CHL1  H11B 4102   2.157   6.312   5.464  1.2284  0.8610  2.2542
   40CHL1    C9 4103   2.325   6.434   5.469  0.5748 -0.3784 -0.2604
   40CHL1    H9 4104   2.375   6.342   5.505 -1.4083 -2.2256 -2.1095
   40CHL1   C10 4105   2.288   6.524   5.592 -0.9306  0.3486  0.1023
   40CHL1   C19 4106   2.194   6.642   5.549  0.4313 -0.6478 -0.3947
   40CHL1  H19A 4107   2.097   6.606   5.509  0.7155 -0.8917 -0.8596
   40CHL1  H19B 4108   2.163   6.702   5.638 -0.9242 -3.4235  1.0839
   40CHL1  H19C 4109   2.237   6.706   5.469  4.8423 -0.6015  1.8848
   40CHL1    C1 4110   2.213   6.436   5.690  0.0870 -0.2190  0.6973
   40CHL1   H1A 4111   2.119   6.406   5.639 -0.2721  1.6582  0.2174
   40CHL1   H1B 4112   2.269   6.341   5.700  0.7149 -0.0651 -1.2026
   40CHL1    C2 4113   2.188   6.489   5.837 -0.0967 -0.5982  0.0585
   40CHL1   H2A 4114   2.161   6.410   5.910  0.3089  1.1156  2.1005
   40CHL1   H2B 4115   2.109   6.566   5.840  0.2527 -0.2325 -0.1555
   40CHL1   C20 4116   2.318   6.333   4.909  0.3341  0.5101 -0.3092
   40CHL1   H20 4117   2.283   6.436   4.890 -0.8003  0.2768  0.4892
   40CHL1   C21 4118   2.195   6.231   4.931 -0.5284  0.5057  0.7082
   40CHL1  H21A 4119   2.226   6.133   4.974 -0.8521  0.3385  0.5592
   40CHL1  H21B 4120   2.143   6.212   4.835 -2.1493  0.8408  1.5108
   40CHL1  H21C 4121   2.115   6.279   4.991 -4.6603 -0.6931 -3.4936
   40CHL1   C22 4122   2.404   6.282   4.789  0.3609  0.7130 -0.8155
   40CHL1  H22A 4123   2.505   6.330   4.782  0.8528 -0.1610  0.2430
   40CHL1  H22B 4124   2.412   6.175   4.817 -2.9818  0.9584  1.2586
   40CHL1   C23 4125   2.341   6.321   4.651 -0.2915 -0.7307  0.1222
   40CHL1  H23A 4126   2.238   6.280   4.655 -0.0249 -1.6285 -1.6518
   40CHL1  H23B 4127   2.339   6.432   4.648 -2.6815 -0.7512  0.0827
   40CHL1   C24 4128   2.432   6.288   4.533 -0.2658 -0.6749  0.4386
   40CHL1  H24A 4129   2.521   6.355   4.541  0.6675 -2.0315  1.6434
   40CHL1  H24B 4130   2.475   6.191   4.567  4.3356  1.1021  0.0772
   40CHL1   C25 4131   2.378   6.275   4.394  0.4134  0.3686  0.0623
   40CHL1   H25 4132   2.462   6.235   4.332  0.8680 -0.9523  1.5053
   40CHL1   C26 4133   2.265   6.177   4.386 -0.1275  0.3864 -0.2366
   40CHL1  H26A 4134   2.182   6.212   4.452  0.2796  0.4032  0.2731
   40CHL1  H26B 4135   2.237   6.163   4.280  0.9366 -0.0921 -0.4619
   40CHL1  H26C 4136   2.308   6.080   4.422  1.5055  1.2925  0.3111
   40CHL1   C27 4137   2.330   6.407   4.336 -0.3016 -1.0512 -0.2322
   40CHL1  H27A 4138   2.410   6.474   4.299 -0.7459 -1.0516 -1.1947
   40CHL1  H27B 4139   2.261   6.398   4.250  0.1252  0.6859 -0.7701
   40CHL1  H27C 4140   2.280   6.467   4.415 -1.0312 -1.2712 -0.5191
   41CHL1    C3 4141   1.617   6.479   5.919 -0.6221  0.0444 -0.2787
   41CHL1    H3 4142   1.509   6.462   5.936  0.0494 -0.0972  4.6111
   41CHL1    O3 4143   1.659   6.467   6.056 -0.2686 -0.1510  0.2334
   41CHL1   H3' 4144   1.751   6.441   6.055 -0.3472 -0.4350  0.0691
   41CHL1    C4 4145   1.671   6.365   5.835  0.4147  0.0712 -0.3487
   41CHL1   H4A 4146   1.781   6.363   5.846  0.4974  2.8045 -0.3482
   41CHL1   H4B 4147   1.625   6.276   5.883 -0.3100  0.7079  0.1530
   41CHL1    C5 4148   1.645   6.372   5.689 -0.5040 -0.0383  0.2082
   41CHL1    C6 4149   1.582   6.278   5.622  0.3177  0.3224  0.0841
   41CHL1    H6 4150   1.552   6.191   5.682 -0.6458  0.0193 -0.8229
   41CHL1    C7 4151   1.567   6.265   5.468  0.3964 -0.4574 -0.2723
   41CHL1   H7A 4152   1.598   6.168   5.424  2.1618  0.4767 -1.1202
   41CHL1   H7B 4153   1.457   6.281   5.462  0.2201 -0.6650  2.0013
   41CHL1    C8 4154   1.649   6.381   5.406  0.5401 -0.1241 -0.3474
   41CHL1    H8 4155   1.755   6.348   5.416  0.1103 -1.2396  0.7542
   41CHL1   C14 4156   1.614   6.394   5.259 -0.1546 -0.1019 -0.5253
   41CHL1   H14 4157   1.510   6.432   5.249 -0.2386 -0.3218 -0.4996
   41CHL1   C15 4158   1.605   6.263   5.175  0.0515  0.6690  0.3724
   41CHL1  H15A 4159   1.690   6.199   5.209  1.4956  2.1910 -0.3485
   41CHL1  H15B 4160   1.510   6.207   5.183  1.1336 -1.3794 -0.6442
   41CHL1   C16 4161   1.625   6.310   5.034  0.1426  0.1641 -0.7870
   41CHL1  H16A 4162   1.724   6.273   4.997  1.2416  0.1100  2.0807
   41CHL1  H16B 4163   1.542   6.282   4.965 -0.3064  1.6747 -0.8763
   41CHL1   C17 4164   1.649   6.466   5.039  0.3210  0.9536 -0.2001
   41CHL1   H17 4165   1.548   6.508   5.018 -0.4131 -0.7837 -0.2245
   41CHL1   C13 4166   1.704   6.492   5.177  0.2797 -0.1358 -0.5126
   41CHL1   C18 4167   1.855   6.444   5.183  0.6341  0.7117  0.2253
   41CHL1  H18A 4168   1.889   6.425   5.287 -0.7416 -0.9787  0.3802
   41CHL1  H18B 4169   1.861   6.346   5.132  0.0336  0.4790  0.6065
   41CHL1  H18C 4170   1.933   6.514   5.145  1.7367  0.4012  1.8505
   41CHL1   C12 4171   1.679   6.633   5.236  0.3448 -0.4224  0.2285
   41CHL1  H12A 4172   1.728   6.719   5.185  2.0637 -0.9455  0.9412
   41CHL1  H12B 4173   1.570   6.652   5.226  0.8552  1.3900 -2.1739
   41CHL1   C11 4174   1.707   6.625   5.387  0.2396 -0.2124 -0.9498
   41CHL1  H11A 4175   1.817   6.620   5.396  0.0818 -0.3281  1.1887
   41CHL1  H11B 4176   1.682   6.729   5.419  0.5864 -0.5864  0.6206
   41CHL1    C9 4177   1.640   6.514   5.479  0.0249  0.2263  0.1848
   41CHL1    H9 4178   1.537   6.557   5.481  0.3411  0.9747  1.0995
   41CHL1   C10 4179   1.690   6.510   5.624  0.2523 -0.4877  0.3329
   41CHL1   C19 4180   1.847   6.504   5.632  0.0580 -0.4402  1.4436
   41CHL1  H19A 4181   1.891   6.593   5.583  0.1814 -2.3666 -2.0780
   41CHL1  H19B 4182   1.877   6.499   5.739  3.5842 -1.5073  0.4458
   41CHL1  H19C 4183   1.882   6.412   5.582 -0.5350  0.0718  0.0414
   41CHL1    C1 4184   1.623   6.625   5.708  0.5892  0.8869  0.5253
   41CHL1   H1A 4185   1.665   6.722   5.675  0.3649  0.4122 -1.2221
   41CHL1   H1B 4186   1.512   6.625   5.700  0.7112  0.4826 -1.5587
   41CHL1    C2 4187   1.649   6.620   5.863  0.1613  1.0370 -0.1349
   41CHL1   H2A 4188   1.591   6.705   5.905  2.0247  1.6174  1.2940
   41CHL1   H2B 4189   1.756   6.645   5.874  0.0536  1.6840 -0.5169
   41CHL1   C20 4190   1.731   6.510   4.916 -0.2169  0.0558  0.5000
   41CHL1   H20 4191   1.831   6.461   4.920 -0.7627 -1.1130  0.1269
   41CHL1   C21 4192   1.758   6.661   4.937 -0.0891  0.1644  0.4535
   41CHL1  H21A 4193   1.666   6.700   4.986 -0.3432  0.3383 -0.1585
   41CHL1  H21B 4194   1.780   6.722   4.847 -0.4871 -0.7871 -0.3020
   41CHL1  H21C 4195   1.847   6.675   5.001  0.0826 -0.6130  0.3951
   41CHL1   C22 4196   1.676   6.486   4.778  0.0132  0.2672  0.0669
   41CHL1  H22A 4197   1.639   6.382   4.774  2.2706 -0.5131 -1.5815
   41CHL1  H22B 4198   1.597   6.564   4.765  0.2190  0.2601 -1.2793
   41CHL1   C23 4199   1.788   6.506   4.678 -0.1649 -0.3722 -0.2608
   41CHL1  H23A 4200   1.822   6.610   4.664 -1.3234 -0.1020 -1.0880
   41CHL1  H23B 4201   1.874   6.437   4.696 -0.3211 -0.3752  0.4799
   41CHL1   C24 4202   1.737   6.466   4.534 -0.0912 -0.2449 -0.0331
   41CHL1  H24A 4203   1.701   6.361   4.529 -2.7747  0.6314  0.2238
   41CHL1  H24B 4204   1.647   6.530   4.527 -0.3639 -0.5971  0.2169
   41CHL1   C25 4205   1.821   6.512   4.419 -0.7940 -0.7400  0.2224
   41CHL1   H25 4206   1.846   6.619   4.432 -0.2348 -0.7861 -0.4430
   41CHL1   C26 4207   1.960   6.443   4.416 -0.0887 -0.8345  0.0397
   41CHL1  H26A 4208   2.003   6.459   4.517 -0.5998 -1.3229  0.3366
   41CHL1  H26B 4209   1.943   6.333   4.410 -3.0205 -0.3928 -0.5631
   41CHL1  H26C 4210   2.030   6.475   4.336  0.0697 -0.6555  0.2502
   41CHL1   C27 4211   1.756   6.493   4.281 -0.2874  0.0207 -0.3494
   41CHL1  H27A 4212   1.717   6.392   4.258  1.9045 -1.0796  0.7076
   41CHL1  H27B 4213   1.669   6.562   4.269  0.1073  0.3935 -1.0717
   41CHL1  H27C 4214   1.833   6.515   4.204  0.4183  1.5984  0.7734
   42CHL1    C3 4215   4.793   6.522   6.021 -0.3878 -0.5960 -0.2619
   42CHL1    H3 4216   4.777   6.628   6.050  2.7466 -0.3959  0.8795
   42CHL1    O3 4217   4.810   6.439   6.131  0.2804 -0.5122 -0.3930
   42CHL1   H3' 4218   4.829   6.351   6.098  0.8133 -1.4321  2.2460
   42CHL1    C4 4219   4.687   6.464   5.926 -0.2756 -0.6198 -0.1821
   42CHL1   H4A 4220   4.713   6.359   5.904  1.4949  0.0755 -1.6177
   42CHL1   H4B 4221   4.587   6.451   5.972  0.2126 -3.6767  0.0980
   42CHL1    C5 4222   4.687   6.542   5.795  0.5278  0.1352  0.1733
   42CHL1    C6 4223   4.572   6.602   5.761  0.4191  0.1306 -0.5719
   42CHL1    H6 4224   4.487   6.599   5.830  1.3075  1.0207  0.5819
   42CHL1    C7 4225   4.566   6.669   5.632 -0.4297  0.3908  0.2349
   42CHL1   H7A 4226   4.467   6.651   5.584 -0.4749  1.5332 -0.0992
   42CHL1   H7B 4227   4.573   6.779   5.646 -2.6692  0.6604 -0.4797
   42CHL1    C8 4228   4.673   6.626   5.526  0.0226  0.1805  0.5280
   42CHL1    H8 4229   4.650   6.522   5.496  0.1919  0.7844 -1.8507
   42CHL1   C14 4230   4.662   6.709   5.401 -0.2093  0.5795  1.1302
   42CHL1   H14 4231   4.671   6.810   5.448  2.7551  0.7675  0.2438
   42CHL1   C15 4232   4.530   6.717   5.315  1.0328  0.2729 -0.2596
   42CHL1  H15A 4233   4.497   6.615   5.284  0.8831  1.2939 -3.6346
   42CHL1  H15B 4234   4.448   6.761   5.375  0.5312  0.0841 -0.8009
   42CHL1   C16 4235   4.570   6.795   5.200 -0.2975 -0.1311 -0.0942
   42CHL1  H16A 4236   4.549   6.746   5.103 -1.8857 -0.6737  0.5069
   42CHL1  H16B 4237   4.521   6.894   5.191 -2.2863 -0.9186  1.6389
   42CHL1   C17 4238   4.730   6.816   5.212  0.0574  0.4846  0.2982
   42CHL1   H17 4239   4.761   6.906   5.269  0.2157  0.8068 -0.2879
   42CHL1   C13 4240   4.779   6.706   5.307 -0.4123 -0.0910  0.1771
   42CHL1   C18 4241   4.772   6.561   5.239 -0.9964 -0.0629 -0.0481
   42CHL1  H18A 4242   4.783   6.481   5.315 -0.2584  0.1305  0.0583
   42CHL1  H18B 4243   4.680   6.525   5.189  0.5436 -2.7649 -1.0269
   42CHL1  H18C 4244   4.853   6.563   5.163 -0.7408  0.4877  0.2361
   42CHL1   C12 4245   4.916   6.724   5.371  0.1797 -0.0262  0.3374
   42CHL1  H12A 4246   5.003   6.710   5.302 -0.4431 -0.3158 -0.3963
   42CHL1  H12B 4247   4.927   6.821   5.424 -0.4258 -0.3871  1.1301
   42CHL1   C11 4248   4.928   6.622   5.483  0.0384 -0.2691 -0.6649
   42CHL1  H11A 4249   4.925   6.521   5.436  1.7610 -1.8205  2.3864
   42CHL1  H11B 4250   5.031   6.627   5.525 -0.1195  0.7947 -0.3962
   42CHL1    C9 4251   4.811   6.635   5.584  0.0940 -0.2425  0.5091
   42CHL1    H9 4252   4.824   6.738   5.624  0.9974 -0.9586  2.1386
   42CHL1   C10 4253   4.825   6.542   5.709 -0.5327  0.1032  0.0808
   42CHL1   C19 4254   4.860   6.399   5.656 -0.3263  0.0723 -0.2392
   42CHL1  H19A 4255   4.867   6.328   5.741 -1.9145  0.3357  0.1353
   42CHL1  H19B 4256   4.794   6.370   5.571 -1.6904  1.1163  0.4328
   42CHL1  H19C 4257   4.960   6.391   5.609 -0.0869  0.6541  0.1706
   42CHL1    C1 4258   4.931   6.595   5.812 -0.0668 -0.8382  0.7340
   42CHL1   H1A 4259   5.036   6.595   5.775  0.1452  1.8312  1.2101
   42CHL1   H1B 4260   4.925   6.705   5.831 -0.3890 -0.7372  0.0660
   42CHL1    C2 4261   4.929   6.525   5.949  0.4182 -0.4263 -0.1106
   42CHL1   H2A 4262   5.014   6.560   6.011 -0.6501 -0.7199  1.5576
   42CHL1   H2B 4263   4.970   6.426   5.921 -2.3316 -1.7966  0.5299
   42CHL1   C20 4264   4.791   6.823   5.072 -0.2225 -0.1179 -0.7809
   42CHL1   H20 4265   4.763   6.738   5.006 -1.3709  0.6307 -1.2703
   42CHL1   C21 4266   4.950   6.821   5.076 -0.3022  0.2323 -0.2628
   42CHL1  H21A 4267   4.982   6.715   5.087 -0.0285  0.0629 -2.5270
   42CHL1  H21B 4268   4.990   6.884   5.159 -0.2102  0.3685 -0.4104
   42CHL1  H21C 4269   4.996   6.859   4.982  1.9428 -1.1671  0.2344
   42CHL1   C22 4270   4.748   6.948   4.993 -0.8734  0.3569 -0.5542
   42CHL1  H22A 4271   4.638   6.956   5.006 -0.7522  1.1143  0.0341
   42CHL1  H22B 4272   4.800   7.041   5.026  2.3369 -1.1381 -1.2502
   42CHL1   C23 4273   4.795   6.961   4.837 -0.4225 -0.0932  0.1114
   42CHL1  H23A 4274   4.899   6.926   4.819 -0.3506 -0.6119  1.4643
   42CHL1  H23B 4275   4.724   6.888   4.793  1.0236  0.2952 -2.9948
   42CHL1   C24 4276   4.770   7.102   4.793 -0.1580  0.2218  0.4969
   42CHL1  H24A 4277   4.659   7.115   4.796 -0.1022  0.7392  0.4502
   42CHL1  H24B 4278   4.821   7.186   4.844 -0.5221  1.0260 -0.4260
   42CHL1   C25 4279   4.807   7.126   4.641  0.9736  0.0965 -0.0054
   42CHL1   H25 4280   4.770   7.045   4.575  2.5878 -0.7801  0.1460
   42CHL1   C26 4281   4.749   7.256   4.587 -0.1101  0.0069 -0.0718
   42CHL1  H26A 4282   4.803   7.340   4.635 -0.0456  0.0749 -0.2661
   42CHL1  H26B 4283   4.777   7.250   4.480 -3.5966 -0.8485 -1.0067
   42CHL1  H26C 4284   4.639   7.262   4.599 -0.2755  0.9519 -2.0106
   42CHL1   C27 4285   4.961   7.113   4.629  0.6219 -0.3667 -0.0831
   42CHL1  H27A 4286   4.992   7.018   4.678 -0.8074  0.2418  2.0639
   42CHL1  H27B 4287   4.998   7.127   4.525 -1.4928 -0.6297 -0.8944
   42CHL1  H27C 4288   4.991   7.200   4.692 -0.5827  1.9163 -2.5708
   43CHL1    C3 4289   0.342   2.494   5.993 -0.2497  0.0319  0.2571
   43CHL1    H3 4290   0.380   2.590   5.953  1.2032 -0.1649  1.1721
   43CHL1    O3 4291   0.333   2.496   6.135  0.2803 -0.1312  0.3709
   43CHL1   H3' 4292   0.275   2.422   6.153 -0.2867 -0.5009 -2.7179
   43CHL1    C4 4293   0.207   2.465   5.915  0.1165 -0.4237  0.0520
   43CHL1   H4A 4294   0.169   2.368   5.954 -1.1182 -0.4738 -1.2133
   43CHL1   H4B 4295   0.124   2.534   5.939  0.6494 -0.1670  1.1627
   43CHL1    C5 4296   0.225   2.447   5.769  0.6239  0.7500  0.7318
   43CHL1    C6 4297   0.161   2.528   5.685 -0.2546  0.1283 -1.0032
   43CHL1    H6 4298   0.084   2.598   5.721 -0.1348 -0.0064 -0.4915
   43CHL1    C7 4299   0.164   2.502   5.540  0.2014  0.4255  0.3131
   43CHL1   H7A 4300   0.062   2.520   5.499  0.4684  1.5255  0.0998
   43CHL1   H7B 4301   0.216   2.590   5.495  0.1632 -0.8480 -2.3174
   43CHL1    C8 4302   0.244   2.378   5.491  0.2254  0.1922 -0.3973
   43CHL1    H8 4303   0.171   2.295   5.495 -0.0062  0.3968 -0.4193
   43CHL1   C14 4304   0.268   2.391   5.339  0.2725  0.4085 -0.1081
   43CHL1   H14 4305   0.342   2.473   5.328  1.1577 -0.4655 -0.7769
   43CHL1   C15 4306   0.153   2.421   5.244 -0.5522  0.5089 -0.3291
   43CHL1  H15A 4307   0.064   2.357   5.263 -1.2401  2.2024  2.4971
   43CHL1  H15B 4308   0.114   2.524   5.255  1.7422  1.4002 -0.1248
   43CHL1   C16 4309   0.211   2.382   5.111  0.0543 -0.7978 -0.1576
   43CHL1  H16A 4310   0.138   2.325   5.049  1.5229 -0.7246 -2.0178
   43CHL1  H16B 4311   0.228   2.473   5.050 -2.5144  0.3506  0.8033
   43CHL1   C17 4312   0.356   2.307   5.135 -0.2307 -0.2672 -0.2103
   43CHL1   H17 4313   0.433   2.387   5.127 -1.7899  1.2225 -0.6322
   43CHL1   C13 4314   0.347   2.271   5.281  0.6652 -0.3529  0.7866
   43CHL1   C18 4315   0.262   2.147   5.293 -1.0171 -0.0560  0.1416
   43CHL1  H18A 4316   0.239   2.126   5.399  0.7263 -0.9181  0.3653
   43CHL1  H18B 4317   0.165   2.154   5.238 -0.8419 -0.3989 -0.2102
   43CHL1  H18C 4318   0.323   2.060   5.263 -3.2455 -0.2896 -4.2275
   43CHL1   C12 4319   0.476   2.257   5.366 -0.7150 -0.0496  0.5812
   43CHL1  H12A 4320   0.532   2.168   5.333 -0.0290  0.7892 -0.5751
   43CHL1  H12B 4321   0.549   2.338   5.343 -1.1035  0.0813 -0.2324
   43CHL1   C11 4322   0.457   2.250   5.523 -0.1330 -0.4164 -0.2390
   43CHL1  H11A 4323   0.410   2.150   5.533  0.6379 -0.8062 -0.4016
   43CHL1  H11B 4324   0.561   2.257   5.563  0.4147  0.5099 -1.7542
   43CHL1    C9 4325   0.363   2.354   5.583  1.1036 -0.6088 -0.6965
   43CHL1    H9 4326   0.416   2.451   5.577  1.6393 -0.8796 -0.3286
   43CHL1   C10 4327   0.331   2.337   5.731  0.0993 -0.2629 -0.6313
   43CHL1   C19 4328   0.281   2.197   5.771  0.1321 -0.2547 -0.6887
   43CHL1  H19A 4329   0.357   2.122   5.739 -0.2226 -0.0144 -2.1665
   43CHL1  H19B 4330   0.264   2.183   5.880  1.5032 -4.5355 -0.9515
   43CHL1  H19C 4331   0.192   2.177   5.707 -0.8113 -0.4179  0.6494
   43CHL1    C1 4332   0.461   2.373   5.808 -0.1415  0.4158  0.2181
   43CHL1   H1A 4333   0.531   2.289   5.789 -3.3386 -2.1978 -0.6602
   43CHL1   H1B 4334   0.502   2.463   5.758  0.2742  0.6696  1.0227
   43CHL1    C2 4335   0.449   2.391   5.957  0.7619  0.2797  0.1784
   43CHL1   H2A 4336   0.549   2.419   5.995  0.5348  1.1361  0.1454
   43CHL1   H2B 4337   0.427   2.297   6.012  1.1844  0.3329  0.4373
   43CHL1   C20 4338   0.391   2.210   5.021 -0.4553  0.6799  0.6267
   43CHL1   H20 4339   0.316   2.128   5.026 -0.6069  0.8939  1.8398
   43CHL1   C21 4340   0.527   2.157   5.045 -0.2744 -0.1243  0.0561
   43CHL1  H21A 4341   0.580   2.112   4.958 -0.7072 -0.0641 -0.2374
   43CHL1  H21B 4342   0.527   2.088   5.132 -0.4837  0.9312  0.9078
   43CHL1  H21C 4343   0.596   2.239   5.075  0.4783  0.0507 -2.0863
   43CHL1   C22 4344   0.376   2.265   4.881  0.3602  0.2351 -0.1381
   43CHL1  H22A 4345   0.277   2.315   4.871 -0.1776 -1.1253 -1.7169
   43CHL1  H22B 4346   0.450   2.345   4.857  1.0594  0.0373  1.2895
   43CHL1   C23 4347   0.382   2.167   4.777  0.1923  0.2697 -0.3570
   43CHL1  H23A 4348   0.487   2.133   4.772  0.7317  1.8961 -0.2546
   43CHL1  H23B 4349   0.325   2.077   4.808 -1.2980  0.9204 -1.1409
   43CHL1   C24 4350   0.317   2.211   4.641  0.8535 -0.5977  0.5268
   43CHL1  H24A 4351   0.215   2.251   4.659  0.2065 -2.2039  0.5046
   43CHL1  H24B 4352   0.380   2.292   4.599 -0.5210 -0.6054 -1.6565
   43CHL1   C25 4353   0.302   2.102   4.534 -0.1240  0.4300 -0.3502
   43CHL1   H25 4354   0.291   2.007   4.590 -0.3409  1.0129  0.6201
   43CHL1   C26 4355   0.194   2.114   4.421 -0.1451  0.5907  0.0834
   43CHL1  H26A 4356   0.093   2.137   4.460 -0.1008 -0.8167  1.0727
   43CHL1  H26B 4357   0.227   2.201   4.360 -2.1396  1.7546  0.6152
   43CHL1  H26C 4358   0.186   2.015   4.373  2.3493  0.8043 -0.8514
   43CHL1   C27 4359   0.438   2.094   4.461 -0.1200 -0.7426  0.7641
   43CHL1  H27A 4360   0.488   2.190   4.438  0.4482 -1.3052 -0.3988
   43CHL1  H27B 4361   0.503   2.038   4.531 -0.2580 -2.4398 -0.4148
   43CHL1  H27C 4362   0.423   2.042   4.364  0.6525  1.6343 -0.6624
   44CHL1    C3 4363   0.286   4.642   5.887  0.4264 -0.3010 -0.3174
   44CHL1    H3 4364   0.254   4.747   5.904  0.2555  0.1123 -3.0253
   44CHL1    O3 4365   0.336   4.588   6.006 -0.0578 -0.0509 -0.1398
   44CHL1   H3' 4366   0.431   4.599   6.009  0.5539 -4.6703  0.7209
   44CHL1    C4 4367   0.165   4.559   5.846 -0.0273 -0.2138 -0.1725
   44CHL1   H4A 4368   0.212   4.459   5.845  1.0592  0.2711  1.5523
   44CHL1   H4B 4369   0.088   4.570   5.926 -2.6032  0.1560 -2.6002
   44CHL1    C5 4370   0.109   4.584   5.706 -1.0953 -0.6567  0.2421
   44CHL1    C6 4371  -0.021   4.609   5.685  0.4501 -0.2242  0.2716
   44CHL1    H6 4372  -0.093   4.589   5.766 -0.1394 -1.4533 -0.5318
   44CHL1    C7 4373  -0.072   4.641   5.545  0.5746  0.0464 -1.2217
   44CHL1   H7A 4374  -0.172   4.598   5.522  0.8496 -1.4401  0.3051
   44CHL1   H7B 4375  -0.094   4.750   5.547 -0.1743 -0.1153 -0.2043
   44CHL1    C8 4376   0.023   4.599   5.432 -0.2530 -0.5236  1.0385
   44CHL1    H8 4377   0.024   4.489   5.421  1.8113 -0.3831 -0.5025
   44CHL1   C14 4378  -0.019   4.649   5.297  0.6402  0.0097 -0.0571
   44CHL1   H14 4379  -0.020   4.760   5.302  0.6174  0.0994 -1.6293
   44CHL1   C15 4380  -0.153   4.616   5.242  0.0268 -0.5599  0.0651
   44CHL1  H15A 4381  -0.164   4.505   5.241  1.7376 -0.7457 -0.4855
   44CHL1  H15B 4382  -0.237   4.655   5.303 -1.4636 -1.2208 -1.5156
   44CHL1   C16 4383  -0.150   4.654   5.098  0.0871  0.2516 -0.2054
   44CHL1  H16A 4384  -0.185   4.563   5.045 -1.7538  1.2779 -0.7719
   44CHL1  H16B 4385  -0.213   4.744   5.080 -1.4137 -0.5676  0.9308
   44CHL1   C17 4386  -0.007   4.705   5.070 -0.1739 -0.0132 -0.7082
   44CHL1   H17 4387  -0.006   4.815   5.084  1.2185 -0.1856  0.8174
   44CHL1   C13 4388   0.082   4.633   5.182 -0.3489 -0.0418  0.8476
   44CHL1   C18 4389   0.094   4.482   5.145  0.2121 -0.2687  0.1478
   44CHL1  H18A 4390   0.165   4.472   5.060 -0.4044 -0.2805 -0.3704
   44CHL1  H18B 4391   0.125   4.421   5.233 -0.9393  0.0255  0.7675
   44CHL1  H18C 4392  -0.004   4.449   5.106 -0.4013  2.1077 -0.4223
   44CHL1   C12 4393   0.215   4.694   5.215 -0.3388  0.3618 -0.8838
   44CHL1  H12A 4394   0.290   4.670   5.137 -2.1827 -0.7010 -2.3540
   44CHL1  H12B 4395   0.216   4.804   5.231  1.1509  0.1435  0.6962
   44CHL1   C11 4396   0.269   4.636   5.342  0.9858 -0.1163 -0.4617
   44CHL1  H11A 4397   0.279   4.525   5.334  0.9802 -0.1076 -0.5878
   44CHL1  H11B 4398   0.370   4.679   5.354  0.0205  2.1161 -0.1977
   44CHL1    C9 4399   0.167   4.643   5.463  0.5799  0.3902 -0.9501
   44CHL1    H9 4400   0.146   4.750   5.481 -0.8333 -0.0370 -0.0010
   44CHL1   C10 4401   0.216   4.586   5.594  0.0399 -0.2980 -0.5946
   44CHL1   C19 4402   0.272   4.441   5.574  0.9100  0.5675  0.2372
   44CHL1  H19A 4403   0.354   4.439   5.500  0.2069  0.3870 -0.5394
   44CHL1  H19B 4404   0.326   4.402   5.663  1.3295 -0.9108 -0.6566
   44CHL1  H19C 4405   0.195   4.371   5.535  0.0392  1.4092  0.4104
   44CHL1    C1 4406   0.336   4.671   5.642  0.0392 -0.3589  0.0784
   44CHL1   H1A 4407   0.416   4.673   5.565  0.8643  0.4188  0.9260
   44CHL1   H1B 4408   0.295   4.773   5.654  2.9310  1.1025 -1.8533
   44CHL1    C2 4409   0.393   4.631   5.779 -0.3666 -0.3076 -0.0022
   44CHL1   H2A 4410   0.475   4.706   5.792  0.5181 -1.2889  0.1901
   44CHL1   H2B 4411   0.447   4.534   5.779  1.2855  0.5518  2.5882
   44CHL1   C20 4412   0.027   4.700   4.909  0.1426 -0.0951  0.7727
   44CHL1   H20 4413  -0.031   4.786   4.868 -0.0261 -1.9720 -3.1928
   44CHL1   C21 4414  -0.027   4.575   4.833  0.5754  0.4250  0.2593
   44CHL1  H21A 4415  -0.135   4.561   4.812  0.6339  0.1278  0.1605
   44CHL1  H21B 4416  -0.012   4.483   4.894  1.5142 -0.7755 -1.7308
   44CHL1  H21C 4417   0.017   4.561   4.732 -1.6182  1.7407 -0.8977
   44CHL1   C22 4418   0.174   4.727   4.891  0.0172 -0.7387  0.0856
   44CHL1  H22A 4419   0.199   4.823   4.939  0.2155  0.3864 -2.2222
   44CHL1  H22B 4420   0.227   4.638   4.933  4.2052  1.3759 -0.4287
   44CHL1   C23 4421   0.219   4.729   4.741 -0.3813 -0.3256  1.0407
   44CHL1  H23A 4422   0.195   4.643   4.674 -4.3110  1.9486 -0.6356
   44CHL1  H23B 4423   0.174   4.818   4.693  3.5279 -0.1394 -2.5692
   44CHL1   C24 4424   0.366   4.755   4.719  0.4044 -0.7872 -0.3069
   44CHL1  H24A 4425   0.393   4.847   4.775  2.1977 -1.6766  0.3593
   44CHL1  H24B 4426   0.415   4.670   4.771 -1.1393 -1.0368  0.7743
   44CHL1   C25 4427   0.408   4.755   4.569 -1.0748 -0.0289  0.0738
   44CHL1   H25 4428   0.363   4.668   4.516  0.0193 -1.3347  1.2474
   44CHL1   C26 4429   0.352   4.873   4.489 -0.2459  0.3405 -0.3965
   44CHL1  H26A 4430   0.393   4.971   4.522 -0.4499  0.0982  0.6052
   44CHL1  H26B 4431   0.387   4.868   4.384  2.1579  1.4994  0.3052
   44CHL1  H26C 4432   0.242   4.875   4.496 -0.2485 -0.6424 -0.1539
   44CHL1   C27 4433   0.556   4.740   4.556 -0.1494 -0.6921  0.1316
   44CHL1  H27A 4434   0.607   4.653   4.603 -1.1046 -1.1528  0.3183
   44CHL1  H27B 4435   0.585   4.754   4.450 -0.4711  0.1254  0.1454
   44CHL1  H27C 4436   0.620   4.825   4.591 -1.1230  0.3350 -0.5696
   45CHL1    C3 4437   7.289   4.993   5.979 -0.6503 -0.1795 -0.4377
   45CHL1    H3 4438   7.362   4.911   5.960 -0.0516 -0.4062  2.5046
   45CHL1    O3 4439   7.278   4.995   6.125  0.0215  1.0354  0.2481
   45CHL1   H3' 4440   7.330   4.919   6.154 -0.3149  0.6293 -0.2122
   45CHL1    C4 4441   7.341   5.131   5.932  0.1987  0.1822 -0.5015
   45CHL1   H4A 4442   7.280   5.214   5.974  0.9480  0.5520 -0.1342
   45CHL1   H4B 4443   7.444   5.148   5.971 -0.4398  1.0413  0.8539
   45CHL1    C5 4444   7.330   5.145   5.782 -0.1527 -0.0997  0.1230
   45CHL1    C6 4445   7.446   5.188   5.722  0.2411  0.0641  0.3599
   45CHL1    H6 4446   7.535   5.208   5.784 -1.7587  3.8573  2.2329
   45CHL1    C7 4447   7.460   5.205   5.573 -0.5906  0.3116 -0.5603
   45CHL1   H7A 4448   7.504   5.306   5.558 -1.3932  0.7176 -0.1810
   45CHL1   H7B 4449   7.524   5.127   5.526  0.4445 -0.2821  1.7622
   45CHL1    C8 4450   7.326   5.187   5.498  0.6397 -0.2076  0.2596
   45CHL1    H8 4451   7.282   5.289   5.504  1.9280  0.3455  0.2996
   45CHL1   C14 4452   7.355   5.161   5.347 -1.1481  0.0194  0.1171
   45CHL1   H14 4453   7.388   5.055   5.352  2.6065  1.1431  0.3675
   45CHL1   C15 4454   7.476   5.233   5.274 -0.2225 -0.2824 -0.0971
   45CHL1  H15A 4455   7.480   5.339   5.309 -3.7177  0.0999 -0.6798
   45CHL1  H15B 4456   7.572   5.181   5.296  1.3543  2.0299 -1.2720
   45CHL1   C16 4457   7.446   5.214   5.126 -0.1705 -0.2311  0.1360
   45CHL1  H16A 4458   7.438   5.314   5.078  0.7828  0.0251  0.5062
   45CHL1  H16B 4459   7.529   5.158   5.077 -0.6723  0.7784 -1.9133
   45CHL1   C17 4460   7.306   5.134   5.121 -0.2329  0.1466 -0.6218
   45CHL1   H17 4461   7.348   5.031   5.119  1.4959  0.8338 -1.4670
   45CHL1   C13 4462   7.232   5.158   5.258 -0.2016  0.0902  1.0086
   45CHL1   C18 4463   7.166   5.301   5.251  0.0604  0.1310  0.4148
   45CHL1  H18A 4464   7.123   5.330   5.349 -0.6313  0.7688 -0.0717
   45CHL1  H18B 4465   7.244   5.374   5.219  1.0155 -1.0372  0.0534
   45CHL1  H18C 4466   7.085   5.307   5.175 -2.4712  0.6314  3.0793
   45CHL1   C12 4467   7.144   5.040   5.315  0.8005  0.3764 -0.0300
   45CHL1  H12A 4468   7.047   5.044   5.261  0.0069 -2.4426  1.0612
   45CHL1  H12B 4469   7.202   4.947   5.297  0.1618 -0.3558  1.5989
   45CHL1   C11 4470   7.110   5.053   5.467  0.3191  1.0413  0.0913
   45CHL1  H11A 4471   7.026   5.125   5.475 -0.3000  0.1422  2.0753
   45CHL1  H11B 4472   7.072   4.958   5.510  0.1265  0.7716 -0.6753
   45CHL1    C9 4473   7.235   5.084   5.556  0.0428  0.4152 -0.4143
   45CHL1    H9 4474   7.294   4.990   5.557  1.3014  1.1651 -1.5618
   45CHL1   C10 4475   7.203   5.101   5.709  0.2438 -0.0914 -0.5455
   45CHL1   C19 4476   7.082   5.198   5.729  0.0612 -0.0263  0.5805
   45CHL1  H19A 4477   7.110   5.304   5.710  0.9676 -0.3310  0.1729
   45CHL1  H19B 4478   6.992   5.161   5.676  0.8891  0.8437 -1.5274
   45CHL1  H19C 4479   7.062   5.200   5.838  1.1808 -2.5594  0.8528
   45CHL1    C1 4480   7.162   4.966   5.772 -0.0338 -0.5466  0.2233
   45CHL1   H1A 4481   7.063   4.943   5.726 -0.2208  2.7092 -1.1591
   45CHL1   H1B 4482   7.232   4.886   5.739  0.0823 -0.8279  1.1526
   45CHL1    C2 4483   7.151   4.960   5.920  0.5127  0.5857 -0.2197
   45CHL1   H2A 4484   7.118   4.857   5.945 -1.9271  1.2867 -0.4052
   45CHL1   H2B 4485   7.071   5.032   5.949 -0.9169 -0.6098 -1.1548
   45CHL1   C20 4486   7.236   5.157   4.991  0.4724 -0.9138  1.0144
   45CHL1   H20 4487   7.203   5.262   4.979  0.9679 -1.0980 -2.7214
   45CHL1   C21 4488   7.115   5.050   4.965 -0.4134 -0.0363 -0.5687
   45CHL1  H21A 4489   7.037   5.070   5.042  0.1172 -0.4068  0.0704
   45CHL1  H21B 4490   7.148   4.944   4.961 -3.1975 -0.9295 -0.7173
   45CHL1  H21C 4491   7.068   5.076   4.868  0.0834 -2.2498 -1.4272
   45CHL1   C22 4492   7.336   5.134   4.869  0.3215  0.7914  0.1253
   45CHL1  H22A 4493   7.423   5.204   4.881 -0.5186  1.8066  0.3763
   45CHL1  H22B 4494   7.374   5.031   4.883  0.6871  1.0297  0.9303
   45CHL1   C23 4495   7.272   5.156   4.735 -0.0696  0.2651 -0.2882
   45CHL1  H23A 4496   7.196   5.078   4.714 -0.3322  0.9275 -1.8750
   45CHL1  H23B 4497   7.234   5.260   4.729 -1.0133 -0.0324  0.4583
   45CHL1   C24 4498   7.379   5.152   4.628 -0.4723 -0.3423  0.0855
   45CHL1  H24A 4499   7.452   5.230   4.657  0.0040 -0.8991  0.3918
   45CHL1  H24B 4500   7.426   5.051   4.634  0.2471 -0.0248 -0.1441
   45CHL1   C25 4501   7.324   5.167   4.484 -0.1484 -0.0752  0.5955
   45CHL1   H25 4502   7.246   5.246   4.479 -1.3571 -1.2461  0.6279
   45CHL1   C26 4503   7.434   5.212   4.393  0.5506  0.8025 -0.1996
   45CHL1  H26A 4504   7.387   5.254   4.301 -2.5163  1.9819  1.8066
   45CHL1  H26B 4505   7.487   5.300   4.434 -0.2374  0.9005  0.6199
   45CHL1  H26C 4506   7.503   5.128   4.371 -0.1963 -0.1223  0.9330
   45CHL1   C27 4507   7.256   5.035   4.428  0.0822  0.0873 -0.1219
   45CHL1  H27A 4508   7.220   5.045   4.324 -0.4043 -0.0654  0.0294
   45CHL1  H27B 4509   7.333   4.955   4.430  1.0491  1.0027  1.9981
   45CHL1  H27C 4510   7.170   5.011   4.493 -1.8157  0.0943 -2.5731
   46CHL1    C3 4511   1.038   6.448   5.982 -0.0580  0.1965 -0.3677
   46CHL1    H3 4512   1.020   6.557   5.976 -1.3432 -0.0075 -0.3892
   46CHL1    O3 4513   1.019   6.387   6.112 -0.4288  0.4938  0.2103
   46CHL1   H3' 4514   1.027   6.293   6.095  1.9441 -0.0900  3.9668
   46CHL1    C4 4515   0.936   6.390   5.885  0.8187 -0.8196  0.2983
   46CHL1   H4A 4516   0.946   6.279   5.881 -0.0068 -0.8604 -1.0340
   46CHL1   H4B 4517   0.837   6.412   5.930  0.9522 -1.5138  0.9292
   46CHL1    C5 4518   0.949   6.442   5.746 -0.0790 -0.3685  0.1256
   46CHL1    C6 4519   0.847   6.507   5.686  0.2037 -0.1637  0.0110
   46CHL1    H6 4520   0.752   6.510   5.740  0.5837  0.7248  0.6581
   46CHL1    C7 4521   0.843   6.555   5.543  0.5208 -0.3664 -0.6311
   46CHL1   H7A 4522   0.753   6.531   5.483 -0.0433  0.5237 -0.1457
   46CHL1   H7B 4523   0.832   6.666   5.548  0.4905 -0.2408 -2.8928
   46CHL1    C8 4524   0.970   6.499   5.467 -0.8675 -0.0823  0.2077
   46CHL1    H8 4525   0.948   6.396   5.430 -0.9269  0.3705 -1.0512
   46CHL1   C14 4526   0.987   6.584   5.340  0.2982  0.7128 -0.0303
   46CHL1   H14 4527   1.004   6.688   5.377 -1.1646  0.9198  0.0902
   46CHL1   C15 4528   0.874   6.595   5.237  0.0448  0.0029  0.2364
   46CHL1  H15A 4529   0.815   6.501   5.232 -1.4736  0.8480  1.5332
   46CHL1  H15B 4530   0.808   6.679   5.270  0.0442 -0.4488  1.4062
   46CHL1   C16 4531   0.938   6.622   5.110 -0.2359  0.2252  0.2215
   46CHL1  H16A 4532   0.916   6.536   5.043 -2.8593  0.3084  0.9210
   46CHL1  H16B 4533   0.901   6.716   5.065 -4.5594 -1.2557  0.4330
   46CHL1   C17 4534   1.093   6.633   5.133 -0.6418  0.1852  0.1732
   46CHL1   H17 4535   1.114   6.731   5.180 -1.3309 -0.0206  0.9048
   46CHL1   C13 4536   1.117   6.549   5.263 -0.3034  0.1021  0.4226
   46CHL1   C18 4537   1.128   6.402   5.218  0.2307  0.3582 -0.1284
   46CHL1  H18A 4538   1.124   6.331   5.303  2.0119  0.1705 -0.1820
   46CHL1  H18B 4539   1.044   6.373   5.151  1.1391 -0.9882 -0.7001
   46CHL1  H18C 4540   1.225   6.385   5.166  1.6218  3.2884  1.3439
   46CHL1   C12 4541   1.237   6.591   5.354 -0.5550  0.4935 -0.0697
   46CHL1  H12A 4542   1.334   6.578   5.302 -0.3319 -3.2293  1.0857
   46CHL1  H12B 4543   1.226   6.695   5.392  0.6397  0.6556 -0.1619
   46CHL1   C11 4544   1.231   6.508   5.489 -0.6657 -0.3016  1.2058
   46CHL1  H11A 4545   1.268   6.405   5.471  2.9657  1.6851 -3.6018
   46CHL1  H11B 4546   1.312   6.549   5.554  0.6333 -0.1895 -0.4607
   46CHL1    C9 4547   1.091   6.509   5.562 -0.5563  0.2270 -0.0617
   46CHL1    H9 4548   1.085   6.615   5.593  0.0407  0.4490 -0.6888
   46CHL1   C10 4549   1.080   6.423   5.686 -0.4738 -1.0984  0.2348
   46CHL1   C19 4550   1.104   6.278   5.635  0.4711  0.0553 -0.1747
   46CHL1  H19A 4551   1.034   6.246   5.555  0.9118  1.1240 -1.0101
   46CHL1  H19B 4552   1.206   6.252   5.600 -0.0229 -1.8074 -0.2755
   46CHL1  H19C 4553   1.096   6.205   5.717  0.8359  0.5627  0.3145
   46CHL1    C1 4554   1.192   6.466   5.788  0.4035 -0.4542  0.3220
   46CHL1   H1A 4555   1.291   6.425   5.758  2.1449  1.7556  2.8254
   46CHL1   H1B 4556   1.207   6.575   5.779  0.1503 -0.3131  1.5728
   46CHL1    C2 4557   1.177   6.417   5.930 -0.4777 -1.4096  0.1960
   46CHL1   H2A 4558   1.255   6.460   5.998 -0.6051  2.3398 -1.8537
   46CHL1   H2B 4559   1.193   6.308   5.938 -0.4083 -1.2754  2.1818
   46CHL1   C20 4560   1.184   6.611   5.013 -0.7672  0.3730  0.1631
   46CHL1   H20 4561   1.191   6.503   4.990  0.0428  0.4130  0.2288
   46CHL1   C21 4562   1.323   6.665   5.040 -0.3509  0.1586 -0.0478
   46CHL1  H21A 4563   1.379   6.595   5.106 -1.5949 -0.3716  0.4681
   46CHL1  H21B 4564   1.325   6.759   5.099 -0.8959 -0.2677  0.6587
   46CHL1  H21C 4565   1.383   6.683   4.948 -1.3950  1.6554 -0.4368
   46CHL1   C22 4566   1.121   6.677   4.883 -0.7701  0.4706  0.5541
   46CHL1  H22A 4567   1.012   6.665   4.864 -0.6845  2.2168 -1.2921
   46CHL1  H22B 4568   1.142   6.785   4.895 -3.6177  0.8821  2.2318
   46CHL1   C23 4569   1.194   6.618   4.759 -0.0308 -0.8278 -0.6163
   46CHL1  H23A 4570   1.303   6.616   4.778 -0.1816 -2.1884  0.1659
   46CHL1  H23B 4571   1.178   6.508   4.752  0.4422 -0.9658  0.4061
   46CHL1   C24 4572   1.161   6.693   4.634 -0.0958 -0.0265  0.2157
   46CHL1  H24A 4573   1.052   6.684   4.614 -0.7452  1.7076  2.7109
   46CHL1  H24B 4574   1.179   6.801   4.651 -2.2081  0.5559 -1.0560
   46CHL1   C25 4575   1.236   6.652   4.503  0.5258 -0.4615 -0.3728
   46CHL1   H25 4576   1.221   6.543   4.489  1.4326 -0.7073  0.5380
   46CHL1   C26 4577   1.172   6.726   4.382  0.2427  0.5793 -0.1435
   46CHL1  H26A 4578   1.066   6.702   4.362  0.5212 -0.8581  0.0204
   46CHL1  H26B 4579   1.203   6.832   4.386  0.7754  0.3991  0.5896
   46CHL1  H26C 4580   1.216   6.690   4.286  0.0247 -0.7849  0.2597
   46CHL1   C27 4581   1.384   6.682   4.515  0.2280 -0.4075 -0.7494
   46CHL1  H27A 4582   1.432   6.642   4.423 -0.8768  0.5604 -1.7576
   46CHL1  H27B 4583   1.406   6.790   4.529  1.2968 -0.9071  1.6831
   46CHL1  H27C 4584   1.438   6.632   4.598  0.8830  1.6492  0.1168
   47CHL1    C3 4585   1.052   0.180   5.998  0.0372 -0.0852  0.5416
   47CHL1    H3 4586   1.153   0.223   5.982  0.4060 -0.1632  2.5178
   47CHL1    O3 4587   1.049   0.161   6.141 -0.4290 -0.1426 -0.1857
   47CHL1   H3' 4588   0.964   0.117   6.154 -0.5089 -0.9340 -2.9998
   47CHL1    C4 4589   0.944   0.275   5.949 -0.2713  1.0853 -0.1323
   47CHL1   H4A 4590   0.851   0.235   5.995 -1.1967 -0.9997 -3.6392
   47CHL1   H4B 4591   0.972   0.371   5.997  0.0841 -0.0046  1.9253
   47CHL1    C5 4592   0.931   0.292   5.799  0.3929  0.1109 -0.0054
   47CHL1    C6 4593   0.926   0.410   5.736 -0.1671 -0.3319  0.0538
   47CHL1    H6 4594   0.933   0.503   5.795  1.8418 -1.1707  1.2231
   47CHL1    C7 4595   0.941   0.421   5.584 -0.5108  0.4844  0.6180
   47CHL1   H7A 4596   0.881   0.503   5.539 -1.4030 -0.0764  0.7713
   47CHL1   H7B 4597   1.044   0.451   5.555 -1.1593  1.4397 -0.7882
   47CHL1    C8 4598   0.905   0.302   5.500  0.0222 -0.0471  0.2652
   47CHL1    H8 4599   0.796   0.282   5.511  0.1063 -1.2701 -0.9838
   47CHL1   C14 4600   0.939   0.328   5.355 -0.4083 -0.0730 -0.0270
   47CHL1   H14 4601   1.048   0.347   5.346 -0.8221  2.0767 -0.8478
   47CHL1   C15 4602   0.877   0.455   5.287  0.0231  0.3291 -0.4930
   47CHL1  H15A 4603   0.774   0.448   5.329  0.0111 -0.3617 -0.6301
   47CHL1  H15B 4604   0.923   0.553   5.310 -0.9299  0.4757  0.8514
   47CHL1   C16 4605   0.880   0.419   5.132 -0.0159 -0.4428  0.1602
   47CHL1  H16A 4606   0.781   0.440   5.086 -0.0041 -0.8343 -0.0429
   47CHL1  H16B 4607   0.944   0.495   5.083  1.3495 -1.2028  0.7350
   47CHL1   C17 4608   0.949   0.275   5.126 -0.5681  0.0464  1.0320
   47CHL1   H17 4609   1.060   0.268   5.134 -0.5463 -0.4921  0.3800
   47CHL1   C13 4610   0.914   0.208   5.259  0.2848 -0.1770 -0.3230
   47CHL1   C18 4611   0.769   0.165   5.250  1.1283 -0.0371 -0.0007
   47CHL1  H18A 4612   0.703   0.249   5.218  0.8355 -1.4126 -3.1383
   47CHL1  H18B 4613   0.754   0.090   5.170  0.4601 -1.1796  1.1980
   47CHL1  H18C 4614   0.735   0.116   5.343  1.9406  0.9884  0.8679
   47CHL1   C12 4615   0.997   0.092   5.314  0.1535 -0.1154 -0.1180
   47CHL1  H12A 4616   0.984   0.010   5.240 -1.3034 -0.6835  0.7715
   47CHL1  H12B 4617   1.105   0.119   5.307 -0.3015  1.6169 -0.7975
   47CHL1   C11 4618   0.973   0.051   5.461 -0.1387 -0.9904  0.0660
   47CHL1  H11A 4619   0.874   0.003   5.476 -0.0010 -1.6426 -1.0375
   47CHL1  H11B 4620   1.048  -0.023   5.498  0.1354 -0.6071  0.2822
   47CHL1    C9 4621   0.977   0.177   5.562 -0.4471  1.0384 -0.1898
   47CHL1    H9 4622   1.083   0.207   5.561  0.0831 -0.7383  0.9123
   47CHL1   C10 4623   0.947   0.158   5.712  0.3505  0.2685  0.2098
   47CHL1   C19 4624   0.807   0.074   5.717  0.2037 -0.2805 -0.2235
   47CHL1  H19A 4625   0.810  -0.030   5.678 -3.8216  0.1350 -1.8630
   47CHL1  H19B 4626   0.774   0.074   5.823 -0.2700  0.7318 -0.3663
   47CHL1  H19C 4627   0.740   0.135   5.653 -0.5744  0.9995  1.7868
   47CHL1    C1 4628   1.060   0.071   5.770  0.6413  0.3874 -0.8694
   47CHL1   H1A 4629   1.053  -0.026   5.716  0.3674  0.8865 -1.7427
   47CHL1   H1B 4630   1.160   0.116   5.751  2.3521 -2.2091  1.4641
   47CHL1    C2 4631   1.048   0.048   5.920  0.1556 -0.1332 -0.1478
   47CHL1   H2A 4632   1.126  -0.023   5.953  1.1599  1.2586  0.5233
   47CHL1   H2B 4633   0.945   0.020   5.950 -1.0323  3.9457 -0.0730
   47CHL1   C20 4634   0.928   0.203   4.994 -0.0689  0.6828 -0.3380
   47CHL1   H20 4635   0.836   0.142   5.008 -0.3927  0.8333 -1.7171
   47CHL1   C21 4636   1.048   0.103   4.966  0.3861  0.2237 -0.0370
   47CHL1  H21A 4637   1.148   0.151   4.956 -0.5448  2.2928  0.3807
   47CHL1  H21B 4638   1.038   0.050   4.869 -0.2948  1.0184 -0.4061
   47CHL1  H21C 4639   1.064   0.033   5.051 -0.2057  0.4988  0.3014
   47CHL1   C22 4640   0.899   0.289   4.871  0.3135 -0.2059 -0.3860
   47CHL1  H22A 4641   0.801   0.338   4.888  1.5184  1.1797  3.0851
   47CHL1  H22B 4642   0.973   0.372   4.861  0.2859 -0.4085 -2.3639
   47CHL1   C23 4643   0.903   0.224   4.736  0.8462  0.4056 -0.0115
   47CHL1  H23A 4644   1.003   0.187   4.707 -0.6478 -2.8935 -1.1908
   47CHL1  H23B 4645   0.843   0.131   4.738  0.0611  0.9102  0.2733
   47CHL1   C24 4646   0.857   0.322   4.628  0.1666 -0.0074  0.9687
   47CHL1  H24A 4647   0.748   0.344   4.624  0.2742  0.2658 -1.4090
   47CHL1  H24B 4648   0.907   0.421   4.628  0.4602 -0.0646 -2.8286
   47CHL1   C25 4649   0.889   0.274   4.485  0.3171 -0.4817 -0.0876
   47CHL1   H25 4650   0.843   0.173   4.473 -0.2820 -0.0991 -1.0374
   47CHL1   C26 4651   0.825   0.374   4.384 -0.1446  0.5468 -0.7967
   47CHL1  H26A 4652   0.853   0.354   4.278 -0.3927 -1.5862 -0.4736
   47CHL1  H26B 4653   0.715   0.369   4.393 -0.1176 -0.2851 -0.8907
   47CHL1  H26C 4654   0.860   0.471   4.427 -2.5615  0.2375  2.0268
   47CHL1   C27 4655   1.039   0.278   4.453  0.2742  0.4205 -0.9306
   47CHL1  H27A 4656   1.058   0.257   4.346  1.0369 -2.1169 -0.3245
   47CHL1  H27B 4657   1.073   0.383   4.464  0.1732  0.1429  2.6330
   47CHL1  H27C 4658   1.088   0.200   4.514 -2.2839  0.7164  1.6444
   48CHL1    C3 4659   6.139   0.124   5.961  0.6532  0.1641 -0.4700
   48CHL1    H3 4660   6.197   0.218   5.949 -1.6282  1.9093  1.5251
   48CHL1    O3 4661   6.114   0.102   6.100  0.4810 -0.2332  0.2718
   48CHL1   H3' 4662   6.172   0.031   6.127  2.2261  0.9578 -0.2725
   48CHL1    C4 4663   6.017   0.121   5.876  0.4676  0.3896  0.2913
   48CHL1   H4A 4664   5.965   0.026   5.904 -0.3156  0.4592 -0.8905
   48CHL1   H4B 4665   5.942   0.195   5.910  2.0807  1.4560  1.5532
   48CHL1    C5 4666   6.036   0.109   5.730  0.0861 -0.2983 -0.2992
   48CHL1    C6 4667   5.973   0.197   5.658  0.1680  0.0314  0.3916
   48CHL1    H6 4668   5.900   0.265   5.703  0.1331  0.4720 -0.3227
   48CHL1    C7 4669   5.977   0.181   5.510 -0.4682  0.5654  0.1968
   48CHL1   H7A 4670   5.877   0.167   5.463  0.5180 -0.0061 -1.7810
   48CHL1   H7B 4671   6.009   0.280   5.471 -1.2498  1.6911  2.3317
   48CHL1    C8 4672   6.066   0.068   5.450  0.6561  0.0079  0.2475
   48CHL1    H8 4673   6.006  -0.026   5.457 -1.2105  1.1056 -0.5645
   48CHL1   C14 4674   6.112   0.091   5.307 -0.6757  0.3389 -0.6569
   48CHL1   H14 4675   6.175   0.180   5.325 -1.7767  1.2043 -1.0240
   48CHL1   C15 4676   6.018   0.143   5.199 -0.2948 -0.5645 -0.2973
   48CHL1  H15A 4677   5.928   0.080   5.187  0.8223 -1.6589 -3.4416
   48CHL1  H15B 4678   5.997   0.250   5.223 -1.8693 -1.0903  0.6842
   48CHL1   C16 4679   6.096   0.126   5.070  0.4656  0.0166 -0.3272
   48CHL1  H16A 4680   6.023   0.081   5.000 -1.1864 -1.7230  2.4171
   48CHL1  H16B 4681   6.122   0.228   5.035 -2.9303  0.8508 -0.6309
   48CHL1   C17 4682   6.222   0.045   5.101 -0.2802  0.7028 -0.4881
   48CHL1   H17 4683   6.304   0.119   5.109 -0.5610  1.0358 -0.6859
   48CHL1   C13 4684   6.196  -0.012   5.242  0.4293 -0.0543 -0.9168
   48CHL1   C18 4685   6.114  -0.139   5.223 -0.1536 -0.2452  0.0365
   48CHL1  H18A 4686   6.081  -0.172   5.324  0.6886 -0.3603  0.2763
   48CHL1  H18B 4687   6.021  -0.122   5.164  0.7184  0.7016 -1.0704
   48CHL1  H18C 4688   6.170  -0.223   5.176  0.2803 -0.3498  0.7302
   48CHL1   C12 4689   6.315  -0.041   5.335  0.2362 -0.0779  0.2430
   48CHL1  H12A 4690   6.382  -0.117   5.290 -0.7861  0.4896 -2.3501
   48CHL1  H12B 4691   6.367   0.057   5.332 -2.8267  1.6730  1.9295
   48CHL1   C11 4692   6.278  -0.083   5.478  0.8288 -0.7104 -0.0541
   48CHL1  H11A 4693   6.224  -0.179   5.489  0.4855 -0.5589 -0.4278
   48CHL1  H11B 4694   6.373  -0.093   5.535  1.9270 -2.0271 -2.0549
   48CHL1    C9 4695   6.190   0.027   5.544  0.2467  0.1133  0.7946
   48CHL1    H9 4696   6.253   0.118   5.534  1.4748 -0.7797  0.2006
   48CHL1   C10 4697   6.133   0.001   5.687 -0.2681  0.5875 -0.4990
   48CHL1   C19 4698   6.055  -0.141   5.700  0.2655  0.6775 -0.3515
   48CHL1  H19A 4699   5.971  -0.149   5.628 -0.9699 -1.6828  1.2833
   48CHL1  H19B 4700   6.133  -0.218   5.682 -0.4553 -0.1491  0.0050
   48CHL1  H19C 4701   6.012  -0.150   5.803  1.9058 -0.7439  0.2375
   48CHL1    C1 4702   6.261  -0.007   5.785 -0.1878  0.5102  0.4484
   48CHL1   H1A 4703   6.307  -0.106   5.764  0.6525  0.4646  2.3743
   48CHL1   H1B 4704   6.342   0.059   5.747 -0.0685  2.3299  3.6719
   48CHL1    C2 4705   6.231   0.009   5.932 -0.5634 -0.5588 -0.4882
   48CHL1   H2A 4706   6.329   0.010   5.985 -1.0831  0.4409  0.4645
   48CHL1   H2B 4707   6.186  -0.089   5.959 -0.5990 -0.6466 -0.8564
   48CHL1   C20 4708   6.273  -0.049   4.989  0.3139  0.7058  0.1157
   48CHL1   H20 4709   6.191  -0.124   4.982 -0.6554  1.5799  1.6880
   48CHL1   C21 4710   6.405  -0.123   5.023  0.6766 -0.0063  0.1545
   48CHL1  H21A 4711   6.444  -0.191   4.944  0.9887  2.3274 -1.7349
   48CHL1  H21B 4712   6.487  -0.053   5.047  1.5679 -0.5086 -1.3210
   48CHL1  H21C 4713   6.389  -0.181   5.116 -0.6106  0.5454  0.2909
   48CHL1   C22 4714   6.294   0.019   4.851  0.1374 -0.6246  0.0238
   48CHL1  H22A 4715   6.199   0.071   4.826 -0.2438 -1.4755 -0.2935
   48CHL1  H22B 4716   6.374   0.095   4.869  0.5701 -0.3279 -3.0097
   48CHL1   C23 4717   6.329  -0.068   4.726 -0.1751 -0.3048 -0.0054
   48CHL1  H23A 4718   6.421  -0.124   4.751  1.7406  2.3186 -0.9176
   48CHL1  H23B 4719   6.246  -0.138   4.705  0.5688 -1.1089 -0.2884
   48CHL1   C24 4720   6.356   0.009   4.601  0.1431  0.0727 -0.2202
   48CHL1  H24A 4721   6.264   0.067   4.577 -0.9912 -1.2284  0.8834
   48CHL1  H24B 4722   6.433   0.084   4.627  1.0446 -0.7400 -0.5132
   48CHL1   C25 4723   6.381  -0.081   4.474 -0.0092 -0.3977 -0.0998
   48CHL1   H25 4724   6.281  -0.121   4.444 -0.4946  2.1070 -1.9477
   48CHL1   C26 4725   6.422   0.011   4.351  0.1129 -0.6854  0.5784
   48CHL1  H26A 4726   6.343   0.083   4.324  0.2180 -0.5234  0.7001
   48CHL1  H26B 4727   6.509   0.072   4.386 -0.2444 -0.0287  0.3175
   48CHL1  H26C 4728   6.447  -0.064   4.272 -2.2238 -1.0267  0.1505
   48CHL1   C27 4729   6.477  -0.200   4.490  0.5062 -0.1074 -0.7679
   48CHL1  H27A 4730   6.475  -0.252   4.392 -1.8395 -0.6567 -0.4642
   48CHL1  H27B 4731   6.577  -0.161   4.519  0.8018 -0.5223 -1.2213
   48CHL1  H27C 4732   6.452  -0.276   4.568 -0.5877 -2.4911 -3.3709
   49CHL1    C3 4733   3.964   4.046   2.499 -0.0307 -0.1710 -0.9063
   49CHL1    H3 4734   4.027   4.136   2.485  1.5641 -1.3256 -1.3735
   49CHL1    O3 4735   3.901   4.006   2.378 -0.2387  0.2743  0.2903
   49CHL1   H3' 4736   3.862   3.919   2.391  1.3293 -0.2931  1.3716
   49CHL1    C4 4737   4.061   3.929   2.541  0.9415  0.1630 -0.3124
   49CHL1   H4A 4738   3.992   3.843   2.555  1.1611  0.4042  2.5081
   49CHL1   H4B 4739   4.131   3.907   2.458 -0.4260 -2.0220 -0.9085
   49CHL1    C5 4740   4.130   3.952   2.673  0.6517 -0.1328 -0.4662
   49CHL1    C6 4741   4.266   3.976   2.680 -0.1901 -0.3212 -0.1020
   49CHL1    H6 4742   4.326   3.960   2.590  0.1859  3.2072 -0.5423
   49CHL1    C7 4743   4.343   4.004   2.801  0.3610  0.2494  0.5588
   49CHL1   H7A 4744   4.432   3.940   2.816  1.0563  1.7140  2.9454
   49CHL1   H7B 4745   4.385   4.107   2.806 -1.1966  0.8419  2.1320
   49CHL1    C8 4746   4.258   3.975   2.935  0.1934  0.5410 -0.2967
   49CHL1    H8 4747   4.264   3.866   2.956 -0.3380  0.7055  0.7781
   49CHL1   C14 4748   4.320   4.044   3.058 -0.4137 -0.0452 -0.6670
   49CHL1   H14 4749   4.310   4.150   3.026 -4.3923 -0.3953 -0.7162
   49CHL1   C15 4750   4.473   4.036   3.081 -0.0230 -0.0858 -0.2071
   49CHL1  H15A 4751   4.499   3.929   3.064 -0.4390 -0.2319  0.0759
   49CHL1  H15B 4752   4.528   4.108   3.016  1.4746  0.7365  1.9273
   49CHL1   C16 4753   4.487   4.061   3.224 -0.2139 -0.5000  0.6123
   49CHL1  H16A 4754   4.500   3.967   3.282  0.5006 -0.5705  0.3371
   49CHL1  H16B 4755   4.568   4.133   3.246  0.2352 -1.2458  1.4232
   49CHL1   C17 4756   4.346   4.112   3.274 -0.5580 -0.0829 -0.1146
   49CHL1   H17 4757   4.348   4.219   3.242  0.5550  0.0475  0.3434
   49CHL1   C13 4758   4.243   4.041   3.186  0.3822  0.1964 -0.0560
   49CHL1   C18 4759   4.221   3.901   3.243 -0.6443 -0.2657 -0.1001
   49CHL1  H18A 4760   4.317   3.851   3.268  0.4974  1.4008 -1.0587
   49CHL1  H18B 4761   4.169   3.899   3.341  0.9820 -0.8991  0.7706
   49CHL1  H18C 4762   4.182   3.849   3.153  1.1300  0.6578 -1.4534
   49CHL1   C12 4763   4.106   4.113   3.163 -0.0766 -1.1275  0.1506
   49CHL1  H12A 4764   4.044   4.113   3.255  2.0843  0.3321  1.6772
   49CHL1  H12B 4765   4.129   4.219   3.140 -2.7517  0.1921  3.1867
   49CHL1   C11 4766   4.023   4.044   3.052 -0.6633 -0.5456  0.6738
   49CHL1  H11A 4767   3.991   3.943   3.086  0.5784 -1.3836 -0.5619
   49CHL1  H11B 4768   3.926   4.095   3.040  0.0937  0.6299 -0.5987
   49CHL1    C9 4769   4.108   4.023   2.912 -0.1370  0.3395 -0.6263
   49CHL1    H9 4770   4.126   4.129   2.886  4.5037 -0.2644 -0.2762
   49CHL1   C10 4771   4.034   3.966   2.792 -0.3209  0.3133 -0.4388
   49CHL1   C19 4772   3.975   3.820   2.837  0.0637  0.1362  0.7362
   49CHL1  H19A 4773   4.054   3.761   2.889  1.0152  0.9833  0.2687
   49CHL1  H19B 4774   3.887   3.845   2.901 -1.6540 -2.4759 -0.5189
   49CHL1  H19C 4775   3.924   3.766   2.754 -0.0653  1.7911 -0.2833
   49CHL1    C1 4776   3.920   4.065   2.756  0.6319 -1.4061  0.4819
   49CHL1   H1A 4777   3.842   4.050   2.834  0.4768  0.8568  0.7997
   49CHL1   H1B 4778   3.961   4.165   2.781  2.5781 -1.9375 -0.5122
   49CHL1    C2 4779   3.860   4.052   2.606  0.4650 -0.7263 -0.6413
   49CHL1   H2A 4780   3.803   4.145   2.582 -1.3970 -1.4458  0.9025
   49CHL1   H2B 4781   3.805   3.956   2.599  2.3635 -1.8181 -1.0231
   49CHL1   C20 4782   4.333   4.104   3.428  0.2077  0.1982  0.8167
   49CHL1   H20 4783   4.315   3.995   3.443  1.0359  0.1060  1.2263
   49CHL1   C21 4784   4.207   4.184   3.472  0.2518  0.7874  0.5225
   49CHL1  H21A 4785   4.205   4.195   3.583  0.3792  0.6404  0.5400
   49CHL1  H21B 4786   4.112   4.136   3.440  0.9668 -1.1216  1.1820
   49CHL1  H21C 4787   4.213   4.287   3.431  0.4199 -0.4378 -2.6582
   49CHL1   C22 4788   4.457   4.137   3.510 -0.1063 -0.0504 -0.3597
   49CHL1  H22A 4789   4.546   4.083   3.469 -1.5813 -2.0157 -1.0331
   49CHL1  H22B 4790   4.483   4.245   3.513  2.6663 -0.6095 -2.3406
   49CHL1   C23 4791   4.451   4.082   3.653  0.1919  0.0634  0.6707
   49CHL1  H23A 4792   4.376   4.137   3.714 -1.5057 -0.1300 -1.1784
   49CHL1  H23B 4793   4.416   3.977   3.653 -0.4854  0.2714 -0.8269
   49CHL1   C24 4794   4.586   4.111   3.725  0.9454 -0.0018 -0.0626
   49CHL1  H24A 4795   4.666   4.072   3.659 -0.8310 -0.7951 -1.8163
   49CHL1  H24B 4796   4.608   4.220   3.733  1.1865 -0.1362  1.1343
   49CHL1   C25 4797   4.614   4.062   3.875  0.4834 -0.0974  0.1823
   49CHL1   H25 4798   4.559   4.123   3.949  1.3971  1.4695 -0.4182
   49CHL1   C26 4799   4.572   3.915   3.886  0.6809  0.0377  0.0307
   49CHL1  H26A 4800   4.600   3.864   3.981  1.2647 -0.1648 -0.2445
   49CHL1  H26B 4801   4.463   3.904   3.869  0.7638 -1.1812  0.1999
   49CHL1  H26C 4802   4.618   3.855   3.804 -1.6515  2.4655 -3.1520
   49CHL1   C27 4803   4.764   4.062   3.916  0.2894 -0.3126 -0.6605
   49CHL1  H27A 4804   4.796   4.161   3.956 -1.8718  0.3239 -0.4103
   49CHL1  H27B 4805   4.776   3.980   3.990  0.2867  0.9691  0.8033
   49CHL1  H27C 4806   4.822   4.041   3.824  0.0392 -0.6137 -0.7487
   50CHL1    C3 4807   4.283   3.525   2.528 -0.2292 -0.0787  0.9720
   50CHL1    H3 4808   4.351   3.587   2.589  0.4227  0.6260 -0.4503
   50CHL1    O3 4809   4.286   3.578   2.395 -0.0813  0.3524 -0.1200
   50CHL1   H3' 4810   4.376   3.601   2.373 -0.0488  1.6843  1.2995
   50CHL1    C4 4811   4.343   3.382   2.532 -0.1442 -0.0409 -0.4478
   50CHL1   H4A 4812   4.276   3.329   2.461 -0.9870 -0.5043  0.6773
   50CHL1   H4B 4813   4.441   3.381   2.480  0.5442  1.0404  0.8081
   50CHL1    C5 4814   4.329   3.296   2.659  0.5368 -0.0565 -0.4781
   50CHL1    C6 4815   4.435   3.244   2.714 -0.2924 -0.0729 -0.4021
   50CHL1    H6 4816   4.531   3.245   2.659 -0.3700 -0.0035 -0.5360
   50CHL1    C7 4817   4.438   3.163   2.847 -0.5885  0.6693  0.5097
   50CHL1   H7A 4818   4.502   3.074   2.828 -0.8399  0.3217  1.2760
   50CHL1   H7B 4819   4.500   3.214   2.924  1.6393  0.5132 -1.1195
   50CHL1    C8 4820   4.299   3.122   2.883 -0.2894 -0.6373  0.5293
   50CHL1    H8 4821   4.272   3.041   2.812 -0.2670  1.2545 -1.7098
   50CHL1   C14 4822   4.294   3.072   3.028 -0.7560 -0.4233 -0.1478
   50CHL1   H14 4823   4.332   3.157   3.089  0.4802 -0.4183 -0.9120
   50CHL1   C15 4824   4.394   2.973   3.079  0.5705 -0.1065  0.7474
   50CHL1  H15A 4825   4.410   2.891   3.005  2.0145  0.9031 -0.0771
   50CHL1  H15B 4826   4.493   3.021   3.083  1.6407 -2.0618 -0.9020
   50CHL1   C16 4827   4.333   2.912   3.213  0.4860  0.2791  0.2863
   50CHL1  H16A 4828   4.323   2.804   3.189 -1.3706  0.7044 -0.9754
   50CHL1  H16B 4829   4.405   2.919   3.297  1.2917 -2.5496 -0.1141
   50CHL1   C17 4830   4.199   2.984   3.229  0.2320  0.7700 -0.4761
   50CHL1   H17 4831   4.215   3.077   3.287  1.8382  0.0351  0.2884
   50CHL1   C13 4832   4.160   3.037   3.088  0.1721 -0.3343  0.3094
   50CHL1   C18 4833   4.098   2.918   3.009  0.0046 -0.2397  0.7098
   50CHL1  H18A 4834   4.096   2.938   2.900  0.6576  0.0335  0.7445
   50CHL1  H18B 4835   4.157   2.826   3.030 -1.6018 -1.6855 -0.9209
   50CHL1  H18C 4836   3.993   2.901   3.041  0.0048 -0.1710  0.7485
   50CHL1   C12 4837   4.075   3.169   3.078  0.5167  0.4736  0.6213
   50CHL1  H12A 4838   3.975   3.146   3.119 -0.0126 -0.2582 -1.0590
   50CHL1  H12B 4839   4.121   3.253   3.135  0.1529  1.7866 -0.9896
   50CHL1   C11 4840   4.057   3.222   2.938 -0.0093 -0.3392  0.3049
   50CHL1  H11A 4841   3.992   3.155   2.878 -0.0380  0.4000 -0.5143
   50CHL1  H11B 4842   4.000   3.318   2.939 -0.7479 -0.7717 -0.2843
   50CHL1    C9 4843   4.199   3.240   2.868  0.7418  0.3083 -0.0603
   50CHL1    H9 4844   4.255   3.319   2.922  3.4789 -0.4605 -1.6927
   50CHL1   C10 4845   4.194   3.305   2.723  0.5674  0.2180 -0.0442
   50CHL1   C19 4846   4.097   3.224   2.641  0.1520 -0.8569 -0.8686
   50CHL1  H19A 4847   4.109   3.113   2.636 -0.1597 -1.1252  2.9199
   50CHL1  H19B 4848   3.994   3.249   2.677  0.0470 -2.4498 -0.0033
   50CHL1  H19C 4849   4.100   3.265   2.538  0.0297 -0.2936 -0.6464
   50CHL1    C1 4850   4.143   3.455   2.728 -0.2835  0.0336 -0.4479
   50CHL1   H1A 4851   4.044   3.462   2.777 -0.0141  1.3678 -0.0825
   50CHL1   H1B 4852   4.212   3.513   2.793  1.1444 -0.8314 -1.1667
   50CHL1    C2 4853   4.136   3.521   2.596 -0.6342  0.3008 -1.2505
   50CHL1   H2A 4854   4.104   3.626   2.612  1.8012  0.6818  1.6282
   50CHL1   H2B 4855   4.060   3.467   2.536 -1.5617  1.1841 -0.8867
   50CHL1   C20 4856   4.095   2.907   3.306  0.2736  0.4045 -0.3469
   50CHL1   H20 4857   4.067   2.815   3.251 -2.8315  0.0314  1.7347
   50CHL1   C21 4858   3.953   2.970   3.331 -0.1207 -0.6683  0.1169
   50CHL1  H21A 4859   3.885   2.911   3.395 -1.7813  1.1917  0.1096
   50CHL1  H21B 4860   3.904   2.978   3.231  0.3483  1.9754  0.0751
   50CHL1  H21C 4861   3.956   3.072   3.375  0.9074 -0.9173  0.6322
   50CHL1   C22 4862   4.150   2.854   3.444 -0.4926 -0.2857 -0.0247
   50CHL1  H22A 4863   4.059   2.804   3.482  1.0289 -0.3810  3.7010
   50CHL1  H22B 4864   4.227   2.776   3.425 -1.1132 -1.1017  0.7769
   50CHL1   C23 4865   4.203   2.958   3.551 -0.4573 -0.1530  0.3182
   50CHL1  H23A 4866   4.297   3.010   3.521 -2.0453  2.0919 -0.9016
   50CHL1  H23B 4867   4.126   3.038   3.545 -1.8532 -1.4875  0.2228
   50CHL1   C24 4868   4.220   2.893   3.687 -0.2570  0.7837 -0.5481
   50CHL1  H24A 4869   4.268   2.793   3.682  0.3037  0.9851  0.5921
   50CHL1  H24B 4870   4.292   2.962   3.738 -1.6493  1.7785  0.1127
   50CHL1   C25 4871   4.098   2.869   3.769 -0.2939 -0.1889 -0.8569
   50CHL1   H25 4872   4.017   2.838   3.699 -0.0143 -1.3579 -0.6793
   50CHL1   C26 4873   4.132   2.758   3.875 -0.4489  0.4967 -0.2373
   50CHL1  H26A 4874   4.168   2.663   3.829  0.4930  1.7002 -2.0394
   50CHL1  H26B 4875   4.212   2.788   3.946 -0.4407 -3.5042  1.6223
   50CHL1  H26C 4876   4.046   2.728   3.939  0.5227 -1.9022  0.0186
   50CHL1   C27 4877   4.053   2.999   3.840 -0.3630 -0.5615  0.1178
   50CHL1  H27A 4878   4.014   3.074   3.769  1.1160 -2.0962 -2.3722
   50CHL1  H27B 4879   3.970   2.984   3.912  0.6480 -0.5943  1.2976
   50CHL1  H27C 4880   4.134   3.053   3.893 -0.8609  0.3228 -0.0197
   51CHL1    C3 4881   4.258   4.437   2.496 -0.2290  0.0810  0.0399
   51CHL1    H3 4882   4.168   4.502   2.489 -1.2109 -1.1540  0.8167
   51CHL1    O3 4883   4.261   4.367   2.373  0.3091  0.0330 -0.1069
   51CHL1   H3' 4884   4.317   4.291   2.393 -0.6013 -0.6550 -0.1370
   51CHL1    C4 4885   4.391   4.506   2.507  0.8296  0.1064  0.3819
   51CHL1   H4A 4886   4.469   4.433   2.476  1.2366  1.6250 -2.2568
   51CHL1   H4B 4887   4.401   4.588   2.433 -1.2568  1.9220  2.0207
   51CHL1    C5 4888   4.426   4.571   2.645  0.1763  0.0806  0.3935
   51CHL1    C6 4889   4.476   4.698   2.653  0.2632 -0.0979 -0.1686
   51CHL1    H6 4890   4.481   4.766   2.566 -0.9640 -0.3254 -0.4326
   51CHL1    C7 4891   4.520   4.770   2.777 -0.1991 -0.2885 -0.2321
   51CHL1   H7A 4892   4.627   4.799   2.781 -0.5145  0.9023 -0.2537
   51CHL1   H7B 4893   4.453   4.858   2.790  0.3458 -0.0618  0.9878
   51CHL1    C8 4894   4.500   4.689   2.911 -0.3341 -0.1246  0.0479
   51CHL1    H8 4895   4.597   4.642   2.937  0.2179  0.9507 -0.0376
   51CHL1   C14 4896   4.470   4.785   3.030  1.0175  0.3727  0.1545
   51CHL1   H14 4897   4.381   4.840   2.995  0.4687 -1.0520 -0.7472
   51CHL1   C15 4898   4.571   4.895   3.070  0.6213 -0.1954 -0.2173
   51CHL1  H15A 4899   4.670   4.847   3.057 -0.3483 -2.3560  0.0800
   51CHL1  H15B 4900   4.559   4.982   3.002 -0.9043  1.6591  2.3181
   51CHL1   C16 4901   4.539   4.936   3.208 -0.8902  0.4758  0.7886
   51CHL1  H16A 4902   4.626   4.939   3.277  0.2726 -1.4219 -0.5376
   51CHL1  H16B 4903   4.488   5.034   3.209  2.2913  2.1809 -0.3382
   51CHL1   C17 4904   4.432   4.831   3.261 -0.4407 -0.6849 -0.2257
   51CHL1   H17 4905   4.337   4.880   3.232  0.3784  1.4139  0.5238
   51CHL1   C13 4906   4.443   4.712   3.165  0.2571 -0.1821  0.1978
   51CHL1   C18 4907   4.567   4.635   3.214 -0.2108 -0.3565 -0.1246
   51CHL1  H18A 4908   4.603   4.555   3.146  1.0949  0.1886 -0.0864
   51CHL1  H18B 4909   4.655   4.703   3.214  0.8938 -1.7586 -0.8629
   51CHL1  H18C 4910   4.559   4.583   3.312  0.0650 -0.2725 -0.0555
   51CHL1   C12 4911   4.333   4.613   3.145 -0.2861  0.3051 -0.2482
   51CHL1  H12A 4912   4.323   4.540   3.228 -0.6567 -2.1253 -2.3657
   51CHL1  H12B 4913   4.234   4.663   3.153 -1.1123 -1.6011  1.8606
   51CHL1   C11 4914   4.348   4.513   3.028  0.6010 -0.3074  0.4927
   51CHL1  H11A 4915   4.419   4.429   3.045 -1.7358 -2.7855 -1.6333
   51CHL1  H11B 4916   4.246   4.470   3.021  0.1830  0.7392 -0.0846
   51CHL1    C9 4917   4.387   4.587   2.894 -0.7636 -0.5743 -0.0228
   51CHL1    H9 4918   4.295   4.645   2.873 -0.6879  0.3159  1.9785
   51CHL1   C10 4919   4.396   4.486   2.771 -0.8270  0.2544  0.0836
   51CHL1   C19 4920   4.513   4.384   2.801  0.3677 -0.1120 -0.3723
   51CHL1  H19A 4921   4.608   4.423   2.845  1.7775  0.2512 -3.5863
   51CHL1  H19B 4922   4.489   4.309   2.879 -1.2353  0.6919 -0.0731
   51CHL1  H19C 4923   4.538   4.331   2.707  1.6047 -1.8694  0.8953
   51CHL1    C1 4924   4.253   4.417   2.749 -0.3426 -0.6066 -0.3982
   51CHL1   H1A 4925   4.234   4.344   2.831  0.3199 -1.0304 -0.6215
   51CHL1   H1B 4926   4.181   4.500   2.765  1.3218  0.4949  1.6603
   51CHL1    C2 4927   4.237   4.346   2.614 -0.0230  0.7571  0.7433
   51CHL1   H2A 4928   4.141   4.291   2.599  0.8970 -0.9667  1.1108
   51CHL1   H2B 4929   4.319   4.272   2.610 -0.3768  0.3366  1.2745
   51CHL1   C20 4930   4.434   4.809   3.412  0.1053  0.1584 -0.3907
   51CHL1   H20 4931   4.535   4.771   3.437  0.3880  0.1579 -1.4862
   51CHL1   C21 4932   4.319   4.721   3.461  0.1328  0.0075 -0.0648
   51CHL1  H21A 4933   4.220   4.758   3.425 -0.1372  0.5385  1.1936
   51CHL1  H21B 4934   4.325   4.717   3.572  1.8717  0.9325 -0.1132
   51CHL1  H21C 4935   4.321   4.617   3.421  2.2365  0.0999 -0.2710
   51CHL1   C22 4936   4.436   4.949   3.489  0.4078  0.1973 -0.2532
   51CHL1  H22A 4937   4.510   5.016   3.441 -0.7304  0.8257 -1.1614
   51CHL1  H22B 4938   4.345   5.012   3.486 -0.3593 -0.8001  1.4392
   51CHL1   C23 4939   4.482   4.941   3.637 -0.4740  0.0061 -0.2110
   51CHL1  H23A 4940   4.421   4.872   3.698  0.3770  0.0864  0.7379
   51CHL1  H23B 4941   4.584   4.897   3.645 -0.8819 -0.5576  2.4014
   51CHL1   C24 4942   4.478   5.073   3.718  1.4937  0.4806  0.1707
   51CHL1  H24A 4943   4.566   5.126   3.676  2.4825 -1.1138  0.1860
   51CHL1  H24B 4944   4.385   5.128   3.696  1.4699  0.2716 -0.2451
   51CHL1   C25 4945   4.505   5.049   3.868 -0.5580  0.1326  0.0388
   51CHL1   H25 4946   4.431   4.972   3.900  1.1745 -2.0691 -1.1394
   51CHL1   C26 4947   4.653   5.001   3.890  0.7807 -0.0658 -0.7667
   51CHL1  H26A 4948   4.672   4.992   3.999 -1.4640 -1.6411 -0.4684
   51CHL1  H26B 4949   4.678   4.907   3.837  1.5453 -0.4916  0.3201
   51CHL1  H26C 4950   4.725   5.080   3.862 -0.9323  2.1496  0.8560
   51CHL1   C27 4951   4.475   5.169   3.953 -0.2460  0.0674  0.6552
   51CHL1  H27A 4952   4.511   5.142   4.055  0.4780 -0.2217  0.3316
   51CHL1  H27B 4953   4.536   5.252   3.912 -1.0943  0.1388 -0.4901
   51CHL1  H27C 4954   4.366   5.192   3.953 -0.1279  0.7088 -1.3439
   52CHL1    C3 4955   4.341   5.455   2.513 -0.2178 -0.4531  0.2129
   52CHL1    H3 4956   4.263   5.534   2.511  0.9400  0.7157  0.2205
   52CHL1    O3 4957   4.386   5.426   2.380  0.0107  0.0293  0.5126
   52CHL1   H3' 4958   4.392   5.330   2.372 -1.6023 -0.0412 -0.1674
   52CHL1    C4 4959   4.465   5.509   2.586  0.6385 -0.2491 -0.1866
   52CHL1   H4A 4960   4.544   5.433   2.570  0.3484 -0.6573  0.3107
   52CHL1   H4B 4961   4.493   5.602   2.531  2.0789 -0.6027 -0.0687
   52CHL1    C5 4962   4.448   5.530   2.736 -0.6357  0.1210 -0.5606
   52CHL1    C6 4963   4.468   5.653   2.791 -0.1902  0.3761 -0.5129
   52CHL1    H6 4964   4.511   5.735   2.732  1.9834 -0.0750  0.4016
   52CHL1    C7 4965   4.466   5.677   2.942 -0.5373 -0.2647 -0.0403
   52CHL1   H7A 4966   4.567   5.711   2.975 -1.0323 -0.8210  2.1085
   52CHL1   H7B 4967   4.392   5.756   2.967  1.9132  1.5134  1.9080
   52CHL1    C8 4968   4.441   5.548   3.025  0.4778  0.6464 -0.7020
   52CHL1    H8 4969   4.528   5.479   3.025  0.5763  0.7387 -2.8163
   52CHL1   C14 4970   4.388   5.586   3.160 -0.2551  0.0206 -0.6982
   52CHL1   H14 4971   4.293   5.644   3.156  0.5560  1.3926 -0.1806
   52CHL1   C15 4972   4.477   5.688   3.237  0.2375  0.4134  0.0583
   52CHL1  H15A 4973   4.584   5.672   3.216  0.4445  1.5064  0.2504
   52CHL1  H15B 4974   4.456   5.793   3.207  0.8566  0.5207 -0.0073
   52CHL1   C16 4975   4.437   5.662   3.387 -0.4411 -0.1203  0.0696
   52CHL1  H16A 4976   4.535   5.635   3.432 -0.4682  0.5951  0.5563
   52CHL1  H16B 4977   4.401   5.754   3.437 -1.0581 -0.6234  0.5445
   52CHL1   C17 4978   4.335   5.546   3.388  0.4709  0.0509  0.4886
   52CHL1   H17 4979   4.232   5.587   3.374 -0.3351 -2.1716 -0.4297
   52CHL1   C13 4980   4.360   5.467   3.254 -1.1491 -0.2864 -0.2090
   52CHL1   C18 4981   4.484   5.379   3.269 -0.6552  0.3080  0.0200
   52CHL1  H18A 4982   4.571   5.447   3.287  1.1208 -1.9122  0.1275
   52CHL1  H18B 4983   4.479   5.303   3.350 -1.0843  1.7288  1.3464
   52CHL1  H18C 4984   4.506   5.325   3.175  1.7072 -3.3101  2.5050
   52CHL1   C12 4985   4.249   5.380   3.194 -0.3236  0.4747 -0.1092
   52CHL1  H12A 4986   4.246   5.287   3.255  3.0141 -0.6741 -1.5903
   52CHL1  H12B 4987   4.148   5.425   3.205  0.3020  2.3480 -1.7585
   52CHL1   C11 4988   4.281   5.344   3.043 -0.1602 -0.3783  0.6023
   52CHL1  H11A 4989   4.349   5.257   3.046  1.3303  0.8096  3.6665
   52CHL1  H11B 4990   4.179   5.312   3.011 -0.5049  2.2872 -1.1293
   52CHL1    C9 4991   4.333   5.462   2.954  0.8937 -0.3667 -0.0739
   52CHL1    H9 4992   4.244   5.525   2.933  0.4576  0.0278  2.7713
   52CHL1   C10 4993   4.386   5.415   2.811 -0.2708  0.1134 -0.6820
   52CHL1   C19 4994   4.489   5.309   2.839  0.6038  0.7386  0.3505
   52CHL1  H19A 4995   4.446   5.206   2.847 -0.7232  0.9748 -2.9225
   52CHL1  H19B 4996   4.554   5.286   2.752  0.4458 -0.9866  0.6676
   52CHL1  H19C 4997   4.562   5.330   2.920  0.9333 -1.6869  0.7203
   52CHL1    C1 4998   4.263   5.356   2.733  1.2334  0.4408  0.0415
   52CHL1   H1A 4999   4.245   5.259   2.785  3.4162  1.2084  2.2935
   52CHL1   H1B 5000   4.171   5.417   2.745 -0.0685 -1.0954 -1.7437
   52CHL1    C2 5001   4.286   5.325   2.585 -0.7161  0.1332 -0.1083
   52CHL1   H2A 5002   4.190   5.286   2.546 -0.0513 -1.1031 -0.5271
   52CHL1   H2B 5003   4.360   5.242   2.577 -0.7027  0.2010 -0.6717
   52CHL1   C20 5004   4.318   5.470   3.526  0.4286  0.8287 -0.3246
   52CHL1   H20 5005   4.423   5.454   3.557  0.5778 -0.8222 -1.5968
   52CHL1   C21 5006   4.255   5.325   3.521 -0.5088 -0.2488  0.5591
   52CHL1  H21A 5007   4.153   5.336   3.479  0.0218  1.4902 -0.2989
   52CHL1  H21B 5008   4.246   5.298   3.629  0.0476  0.5189  0.8029
   52CHL1  H21C 5009   4.308   5.244   3.467 -0.3371  0.5100 -0.4190
   52CHL1   C22 5010   4.259   5.564   3.635  0.0384  0.0603 -0.4699
   52CHL1  H22A 5011   4.311   5.662   3.630  1.5068 -0.7517 -1.4039
   52CHL1  H22B 5012   4.152   5.582   3.612 -0.2030  0.1600  0.6862
   52CHL1   C23 5013   4.287   5.517   3.782  0.3835  0.6089 -0.1801
   52CHL1  H23A 5014   4.243   5.417   3.804 -0.2831  1.0021  0.2841
   52CHL1  H23B 5015   4.397   5.505   3.792  0.2197 -0.1751  0.7245
   52CHL1   C24 5016   4.245   5.626   3.880 -0.3139 -0.4543  0.0691
   52CHL1  H24A 5017   4.301   5.716   3.848 -1.6133  0.8965  1.5051
   52CHL1  H24B 5018   4.138   5.653   3.867  0.4544  1.5842 -2.4199
   52CHL1   C25 5019   4.274   5.592   4.029  0.0972  0.3681  0.6054
   52CHL1   H25 5020   4.239   5.487   4.044  1.2713 -0.1153  0.0793
   52CHL1   C26 5021   4.417   5.610   4.068 -0.6109 -0.0759  0.1006
   52CHL1  H26A 5022   4.478   5.553   3.995  2.3009 -1.1545  3.2457
   52CHL1  H26B 5023   4.442   5.718   4.075 -1.5951  0.2981 -1.9324
   52CHL1  H26C 5024   4.432   5.566   4.169  2.3775  0.2228 -0.1744
   52CHL1   C27 5025   4.197   5.699   4.110 -0.6644  0.9837 -0.1057
   52CHL1  H27A 5026   4.217   5.802   4.072  2.7728  0.1214 -0.8100
   52CHL1  H27B 5027   4.088   5.678   4.104 -0.4976 -0.4911  1.5965
   52CHL1  H27C 5028   4.229   5.707   4.216 -1.9566 -0.3704  0.3988
   53CHL1    C3 5029   3.671   5.415   2.486 -0.4174  0.0265 -0.0445
   53CHL1    H3 5030   3.562   5.400   2.474 -0.5738  1.5966 -0.6940
   53CHL1    O3 5031   3.724   5.444   2.363 -0.2742 -0.1884  0.1036
   53CHL1   H3' 5032   3.666   5.495   2.306 -0.8366 -0.0915  0.7626
   53CHL1    C4 5033   3.707   5.530   2.568 -0.0711 -0.5846 -0.2555
   53CHL1   H4A 5034   3.814   5.559   2.569 -0.9914  3.1007  2.5961
   53CHL1   H4B 5035   3.645   5.612   2.526  1.2047  0.0045 -1.0262
   53CHL1    C5 5036   3.666   5.511   2.715  0.0226 -0.3147  0.8883
   53CHL1    C6 5037   3.595   5.612   2.777  0.2712 -0.2694  0.1481
   53CHL1    H6 5038   3.566   5.703   2.721  0.8316 -0.7326 -0.9106
   53CHL1    C7 5039   3.559   5.615   2.925  0.1396  0.6336  0.3581
   53CHL1   H7A 5040   3.589   5.712   2.969  0.6951  1.4026 -1.6290
   53CHL1   H7B 5041   3.451   5.598   2.945 -0.4437  0.9455 -2.2574
   53CHL1    C8 5042   3.638   5.503   3.006 -0.8944  0.2770 -0.2051
   53CHL1    H8 5043   3.740   5.544   3.023  0.2794 -2.8042  0.4630
   53CHL1   C14 5044   3.569   5.487   3.145 -0.3914  0.8978 -0.2218
   53CHL1   H14 5045   3.476   5.439   3.109  0.0724  1.4173 -2.1558
   53CHL1   C15 5046   3.523   5.604   3.229 -0.3123  1.1720  0.7344
   53CHL1  H15A 5047   3.589   5.693   3.227  2.0748 -0.5298  1.5788
   53CHL1  H15B 5048   3.422   5.638   3.199 -0.6767 -0.4241  0.0753
   53CHL1   C16 5049   3.528   5.553   3.371  0.5330  0.6753 -0.0623
   53CHL1  H16A 5050   3.610   5.608   3.422 -0.8587  3.0575 -0.3196
   53CHL1  H16B 5051   3.436   5.576   3.428 -0.2311  0.0329 -1.0388
   53CHL1   C17 5052   3.566   5.400   3.361 -0.8403 -0.8779  0.3907
   53CHL1   H17 5053   3.465   5.362   3.336 -1.2513  0.3131  0.2290
   53CHL1   C13 5054   3.646   5.388   3.238 -0.5835 -0.3457  0.2182
   53CHL1   C18 5055   3.790   5.428   3.260  0.2535 -0.1823 -0.2904
   53CHL1  H18A 5056   3.786   5.523   3.318  0.9506 -0.4156  0.1400
   53CHL1  H18B 5057   3.846   5.347   3.310 -1.4342 -3.3202 -3.3077
   53CHL1  H18C 5058   3.846   5.459   3.169  0.0687  0.4767 -0.1848
   53CHL1   C12 5059   3.660   5.250   3.162 -0.1108 -0.1379  0.1717
   53CHL1  H12A 5060   3.713   5.175   3.224 -2.1298 -0.8345  1.0994
   53CHL1  H12B 5061   3.557   5.207   3.164  0.0141 -0.5702 -1.6899
   53CHL1   C11 5062   3.729   5.265   3.025  0.2951 -0.0779 -0.0087
   53CHL1  H11A 5063   3.837   5.288   3.035  0.3389 -0.2383 -0.1201
   53CHL1  H11B 5064   3.728   5.169   2.970 -2.7913  0.6139 -1.2803
   53CHL1    C9 5065   3.655   5.365   2.932  0.8893  0.1015 -0.3897
   53CHL1    H9 5066   3.551   5.327   2.917 -0.2846  2.7508  0.7368
   53CHL1   C10 5067   3.716   5.386   2.788  0.1046  0.6302  1.0672
   53CHL1   C19 5068   3.872   5.396   2.797  0.0976 -0.2709  0.3631
   53CHL1  H19A 5069   3.923   5.431   2.705  0.7832  1.7708  1.4830
   53CHL1  H19B 5070   3.910   5.472   2.869 -1.8527  0.2676  0.8525
   53CHL1  H19C 5071   3.913   5.295   2.817 -1.0763 -0.6465  0.9237
   53CHL1    C1 5072   3.683   5.269   2.690  0.3997  0.8849  0.6637
   53CHL1   H1A 5073   3.723   5.175   2.734 -0.3704 -0.1919 -0.9055
   53CHL1   H1B 5074   3.574   5.251   2.688  0.5143  0.0483  1.6440
   53CHL1    C2 5075   3.729   5.288   2.541  0.5954  0.3954 -0.4471
   53CHL1   H2A 5076   3.705   5.202   2.476 -1.7451 -0.0695  0.9745
   53CHL1   H2B 5077   3.839   5.306   2.544  0.9453 -1.7450  1.7629
   53CHL1   C20 5078   3.618   5.339   3.497  0.0331  0.3809  0.1568
   53CHL1   H20 5079   3.728   5.341   3.511  0.0148  0.6049  0.2751
   53CHL1   C21 5080   3.567   5.195   3.499  0.6314 -0.2589 -0.1684
   53CHL1  H21A 5081   3.608   5.146   3.408  0.7288 -1.2145  0.3918
   53CHL1  H21B 5082   3.457   5.202   3.483  0.6450 -0.9019 -0.5516
   53CHL1  H21C 5083   3.588   5.124   3.581  0.8096 -1.7615 -1.4967
   53CHL1   C22 5084   3.567   5.422   3.622 -0.5979 -0.5911  0.4455
   53CHL1  H22A 5085   3.594   5.530   3.620  1.4161 -1.0571  1.3141
   53CHL1  H22B 5086   3.457   5.438   3.615 -0.3727 -0.2814 -5.7600
   53CHL1   C23 5087   3.602   5.364   3.756  0.4128 -0.4465  0.3690
   53CHL1  H23A 5088   3.517   5.398   3.820  0.8528 -1.6148  1.6061
   53CHL1  H23B 5089   3.597   5.253   3.761  0.1980 -0.4364  0.4100
   53CHL1   C24 5090   3.745   5.401   3.797 -1.1634 -0.2055  0.3275
   53CHL1  H24A 5091   3.818   5.344   3.737 -1.1043  2.3245 -2.0785
   53CHL1  H24B 5092   3.761   5.509   3.780  5.4724 -0.8845  0.8800
   53CHL1   C25 5093   3.781   5.401   3.949 -0.4151 -0.2907  0.1056
   53CHL1   H25 5094   3.889   5.421   3.959 -0.8023  1.7424  0.4104
   53CHL1   C26 5095   3.703   5.521   4.011 -0.2767 -0.5395  0.3499
   53CHL1  H26A 5096   3.713   5.515   4.122  2.1346  0.7909  0.2338
   53CHL1  H26B 5097   3.754   5.611   3.970  0.1965  0.9023  3.8845
   53CHL1  H26C 5098   3.594   5.510   3.990 -0.6263  0.8957  1.2781
   53CHL1   C27 5099   3.746   5.275   4.030 -0.8497  0.4030  0.0639
   53CHL1  H27A 5100   3.763   5.281   4.140  0.2924  0.2627 -0.0950
   53CHL1  H27B 5101   3.638   5.256   4.017 -0.9630  1.8313 -1.2489
   53CHL1  H27C 5102   3.803   5.196   3.977 -1.6383  0.4255 -0.8184
   54CHL1    C3 5103   2.617   5.706   2.539  0.7799 -0.4309  0.2892
   54CHL1    H3 5104   2.536   5.762   2.591  1.2736  1.2512 -0.7036
   54CHL1    O3 5105   2.598   5.709   2.398  0.2584  0.2850  0.1597
   54CHL1   H3' 5106   2.664   5.653   2.356 -0.4702 -0.3957 -0.0873
   54CHL1    C4 5107   2.742   5.788   2.566  0.3071 -0.4441 -0.3506
   54CHL1   H4A 5108   2.821   5.731   2.512 -1.2093 -1.4481 -1.5640
   54CHL1   H4B 5109   2.732   5.892   2.526 -2.0026 -0.6550 -0.3850
   54CHL1    C5 5110   2.801   5.787   2.708 -0.1182 -0.6801 -0.2356
   54CHL1    C6 5111   2.824   5.898   2.781 -0.2360  0.2844  0.7848
   54CHL1    H6 5112   2.816   5.994   2.727 -0.6789  1.3563  2.7051
   54CHL1    C7 5113   2.863   5.913   2.924 -0.0755  0.2000 -0.0784
   54CHL1   H7A 5114   2.946   5.986   2.936 -1.1567  1.3467  0.5040
   54CHL1   H7B 5115   2.786   5.948   2.996  1.1422 -0.0885  1.4044
   54CHL1    C8 5116   2.908   5.780   2.981 -0.3410  0.5613  0.7846
   54CHL1    H8 5117   3.003   5.754   2.930 -1.4517 -0.8594 -0.5893
   54CHL1   C14 5118   2.913   5.776   3.134  0.6562 -0.0858 -0.8185
   54CHL1   H14 5119   2.805   5.772   3.160  0.6818 -0.7859 -0.7912
   54CHL1   C15 5120   2.962   5.900   3.212  0.3819 -0.7503 -0.6473
   54CHL1  H15A 5121   3.055   5.939   3.164  0.3666 -0.2231 -0.2530
   54CHL1  H15B 5122   2.892   5.986   3.216 -0.0532 -1.1043 -0.7039
   54CHL1   C16 5123   3.008   5.851   3.349  0.2222 -0.2167 -0.1123
   54CHL1  H16A 5124   3.119   5.854   3.362  0.5587 -2.0537 -2.3343
   54CHL1  H16B 5125   2.946   5.905   3.423 -3.4968 -1.9390 -1.8655
   54CHL1   C17 5126   2.959   5.699   3.353 -0.2968  0.2439  0.4838
   54CHL1   H17 5127   2.852   5.704   3.381 -0.0538 -0.1783  1.5089
   54CHL1   C13 5128   2.965   5.650   3.204  0.6446  0.1671  0.7998
   54CHL1   C18 5129   3.113   5.620   3.163 -0.4638 -0.4301 -0.2806
   54CHL1  H18A 5130   3.115   5.609   3.053 -1.3785  0.4924 -0.3916
   54CHL1  H18B 5131   3.175   5.710   3.182  0.2603 -0.6658 -1.4881
   54CHL1  H18C 5132   3.141   5.524   3.212 -1.7678  0.1306  1.6348
   54CHL1   C12 5133   2.868   5.542   3.168 -0.0921 -0.2483  0.5831
   54CHL1  H12A 5134   2.906   5.440   3.187  0.7969 -0.3865 -1.8353
   54CHL1  H12B 5135   2.769   5.546   3.218 -0.2512  2.8032  0.1095
   54CHL1   C11 5136   2.842   5.530   3.014  0.5971  0.3713 -0.8901
   54CHL1  H11A 5137   2.933   5.483   2.970  1.7311  2.2577 -0.6235
   54CHL1  H11B 5138   2.758   5.458   2.999  0.9644  0.2259 -2.3898
   54CHL1    C9 5139   2.813   5.663   2.931 -0.0104 -0.3907 -0.7645
   54CHL1    H9 5140   2.715   5.700   2.967  0.6802  0.8015 -0.0558
   54CHL1   C10 5141   2.799   5.653   2.778  0.6923 -0.4146 -0.2734
   54CHL1   C19 5142   2.912   5.577   2.718  0.5012  0.0619 -0.1197
   54CHL1  H19A 5143   2.913   5.470   2.748  0.4872  0.7601  2.4874
   54CHL1  H19B 5144   2.911   5.577   2.607  0.0089 -1.0179 -0.1256
   54CHL1  H19C 5145   2.999   5.621   2.772 -0.5824 -0.4884  2.1383
   54CHL1    C1 5146   2.668   5.574   2.750 -0.5155  0.2494 -0.2443
   54CHL1   H1A 5147   2.685   5.474   2.795 -2.6054 -0.0150 -0.0058
   54CHL1   H1B 5148   2.581   5.613   2.807  0.0505  0.4863  0.4618
   54CHL1    C2 5149   2.635   5.564   2.598 -0.0874 -0.0133 -0.1963
   54CHL1   H2A 5150   2.540   5.507   2.597 -0.0798 -0.1685  2.4628
   54CHL1   H2B 5151   2.710   5.497   2.550  2.1338  2.4702 -0.3259
   54CHL1   C20 5152   3.036   5.615   3.453 -0.0648  0.2754  0.0783
   54CHL1   H20 5153   3.139   5.586   3.423 -0.3353  1.5652 -2.2540
   54CHL1   C21 5154   2.973   5.481   3.490  0.5828  0.1608  0.1787
   54CHL1  H21A 5155   3.029   5.445   3.578 -1.3786 -1.4370  0.8161
   54CHL1  H21B 5156   2.980   5.416   3.400  0.8366 -0.0492  0.3526
   54CHL1  H21C 5157   2.866   5.481   3.519  0.5216 -0.3795 -0.0434
   54CHL1   C22 5158   3.049   5.696   3.590 -1.0856  0.3418 -0.0551
   54CHL1  H22A 5159   3.111   5.634   3.659  1.2734  0.3607 -2.0917
   54CHL1  H22B 5160   3.107   5.789   3.573 -0.4784  0.1144  0.7452
   54CHL1   C23 5161   2.919   5.737   3.667  0.2710 -0.3069 -0.1694
   54CHL1  H23A 5162   2.857   5.779   3.585  3.1841  1.7890 -1.3846
   54CHL1  H23B 5163   2.874   5.643   3.706  0.7901 -0.1153  0.9100
   54CHL1   C24 5164   2.942   5.842   3.774  0.0648 -0.4797 -0.0167
   54CHL1  H24A 5165   2.999   5.807   3.863  0.6886  2.0844  0.6480
   54CHL1  H24B 5166   2.978   5.943   3.744 -0.9245  0.5079  2.0632
   54CHL1   C25 5167   2.803   5.885   3.829  1.0966  0.5929  0.1211
   54CHL1   H25 5168   2.758   5.924   3.735 -0.8080  1.7745  1.4915
   54CHL1   C26 5169   2.704   5.769   3.867 -0.3187  0.1075  0.2358
   54CHL1  H26A 5170   2.675   5.707   3.780  0.5511 -1.2789  0.9233
   54CHL1  H26B 5171   2.764   5.705   3.936  0.9474  0.9856 -0.0416
   54CHL1  H26C 5172   2.619   5.817   3.920 -0.6355  0.3095 -0.4514
   54CHL1   C27 5173   2.812   5.995   3.933 -0.4718 -0.4617 -0.3119
   54CHL1  H27A 5174   2.862   6.087   3.896 -1.5984 -0.2332 -1.3069
   54CHL1  H27B 5175   2.715   6.014   3.984 -0.4287 -1.8631  0.3055
   54CHL1  H27C 5176   2.884   5.962   4.011 -1.1063 -0.2901  0.3484
   55CHL1    C3 5177   5.305   2.100   2.747 -0.9043 -0.3550 -0.5287
   55CHL1    H3 5178   5.234   2.184   2.760  0.3405  0.4921  0.9594
   55CHL1    O3 5179   5.350   2.090   2.610 -0.7342 -0.3956 -0.0425
   55CHL1   H3' 5180   5.392   2.003   2.610  0.4310  0.1656 -0.5043
   55CHL1    C4 5181   5.429   2.124   2.833 -0.1807 -0.1819  0.5223
   55CHL1   H4A 5182   5.508   2.051   2.804 -0.2917 -0.3530  0.6553
   55CHL1   H4B 5183   5.452   2.230   2.807 -2.8556 -0.3447 -2.8974
   55CHL1    C5 5184   5.407   2.106   2.984  0.5840  0.6254  0.1163
   55CHL1    C6 5185   5.436   2.192   3.083  0.8078 -0.1429 -0.0350
   55CHL1    H6 5186   5.480   2.289   3.055 -0.4570  0.1433 -1.0378
   55CHL1    C7 5187   5.419   2.166   3.230  0.4999  0.0854 -0.5333
   55CHL1   H7A 5188   5.512   2.197   3.280  1.8435 -0.5906 -2.5391
   55CHL1   H7B 5189   5.338   2.232   3.267 -0.1668 -1.2439  0.4135
   55CHL1    C8 5190   5.395   2.026   3.269  0.4141 -0.5024 -0.2530
   55CHL1    H8 5191   5.485   1.961   3.263 -0.0738 -1.0458 -2.1211
   55CHL1   C14 5192   5.336   2.028   3.406  0.1022 -0.0133  0.3281
   55CHL1   H14 5193   5.234   2.069   3.389  0.2974 -0.1773 -1.2895
   55CHL1   C15 5194   5.398   2.112   3.520  0.2068 -0.1218 -0.0492
   55CHL1  H15A 5195   5.506   2.086   3.515  0.5407  1.3335 -0.7404
   55CHL1  H15B 5196   5.385   2.221   3.507 -0.3453 -0.1838 -0.0072
   55CHL1   C16 5197   5.347   2.057   3.652  0.2007  0.4783 -0.0575
   55CHL1  H16A 5198   5.431   2.029   3.719 -1.4903  0.2019  2.0116
   55CHL1  H16B 5199   5.276   2.116   3.715 -1.6819 -0.3464 -1.3454
   55CHL1   C17 5200   5.256   1.932   3.609  0.0644 -0.3911 -0.0522
   55CHL1   H17 5201   5.155   1.978   3.602  1.4085  2.5503 -0.7713
   55CHL1   C13 5202   5.300   1.888   3.464 -0.2888 -0.1605 -0.6593
   55CHL1   C18 5203   5.434   1.804   3.486  0.2492  0.1543  0.0392
   55CHL1  H18A 5204   5.496   1.867   3.553  0.6516 -1.4626  1.2476
   55CHL1  H18B 5205   5.397   1.709   3.532  0.6052 -1.1510 -2.2641
   55CHL1  H18C 5206   5.488   1.783   3.391 -0.5426 -0.3659 -0.3088
   55CHL1   C12 5207   5.198   1.828   3.371  0.5879  0.0481 -0.1072
   55CHL1  H12A 5208   5.183   1.722   3.401  1.8640  0.7638  3.2949
   55CHL1  H12B 5209   5.099   1.879   3.379 -0.4376 -2.0953  1.6739
   55CHL1   C11 5210   5.265   1.818   3.222 -0.0687 -0.2539 -0.3778
   55CHL1  H11A 5211   5.359   1.760   3.231 -0.0448  0.0260  1.6050
   55CHL1  H11B 5212   5.189   1.768   3.159 -0.2694  0.0928 -0.4162
   55CHL1    C9 5213   5.296   1.964   3.167  0.0434 -0.4475  0.2035
   55CHL1    H9 5214   5.201   2.021   3.175  1.4884  1.8893  1.2592
   55CHL1   C10 5215   5.345   1.973   3.021  0.6242 -0.2260  0.8893
   55CHL1   C19 5216   5.443   1.851   2.998  0.0741  0.4520  0.4430
   55CHL1  H19A 5217   5.521   1.862   3.076  0.4672 -1.2671  0.3263
   55CHL1  H19B 5218   5.393   1.752   3.003 -0.9723  0.9121 -0.6985
   55CHL1  H19C 5219   5.500   1.865   2.903 -0.0069 -2.4333 -0.0874
   55CHL1    C1 5220   5.215   1.946   2.929 -0.9032 -0.8144 -0.1836
   55CHL1   H1A 5221   5.174   1.844   2.944  0.8970 -1.1479  3.0375
   55CHL1   H1B 5222   5.148   2.030   2.958 -0.5475 -0.2433 -0.9869
   55CHL1    C2 5223   5.245   1.959   2.779  1.0488 -0.4662 -0.2604
   55CHL1   H2A 5224   5.157   1.952   2.712  1.0929  0.6854 -0.4597
   55CHL1   H2B 5225   5.323   1.885   2.750 -0.6313 -1.6420 -1.8574
   55CHL1   C20 5226   5.246   1.825   3.720  0.1475  0.6913  0.5050
   55CHL1   H20 5227   5.343   1.772   3.722  0.6298  1.5174 -0.9350
   55CHL1   C21 5228   5.155   1.712   3.664 -0.2577  1.0110 -0.0897
   55CHL1  H21A 5229   5.054   1.748   3.635 -1.3439 -1.0422  1.0558
   55CHL1  H21B 5230   5.131   1.647   3.750  1.0532 -0.8880 -1.1131
   55CHL1  H21C 5231   5.198   1.637   3.594  0.6233  0.2550  1.2454
   55CHL1   C22 5232   5.206   1.861   3.865  0.6063  0.4630  0.1317
   55CHL1  H22A 5233   5.235   1.964   3.893  0.5414  0.4757  0.1531
   55CHL1  H22B 5234   5.095   1.861   3.859  0.5463  2.6624  1.0487
   55CHL1   C23 5235   5.254   1.754   3.969  0.1817 -0.4334 -0.3511
   55CHL1  H23A 5236   5.222   1.655   3.930 -0.1922 -1.7515  3.1010
   55CHL1  H23B 5237   5.364   1.765   3.963 -0.1985  2.2866 -3.7347
   55CHL1   C24 5238   5.212   1.783   4.114  0.1110 -0.4709  0.1108
   55CHL1  H24A 5239   5.263   1.878   4.143 -0.0452 -0.8925  1.8311
   55CHL1  H24B 5240   5.101   1.788   4.124  0.2168  1.5666  0.4511
   55CHL1   C25 5241   5.256   1.674   4.205 -0.6719 -0.3903 -0.9226
   55CHL1   H25 5242   5.230   1.578   4.155 -2.1382 -0.5194  0.0514
   55CHL1   C26 5243   5.405   1.696   4.239 -0.0007  0.1516 -0.4952
   55CHL1  H26A 5244   5.409   1.769   4.323 -0.1191 -1.7082  1.1788
   55CHL1  H26B 5245   5.445   1.604   4.288 -1.6220 -0.2056  0.1801
   55CHL1  H26C 5246   5.463   1.737   4.154  0.8962  1.5901  0.7783
   55CHL1   C27 5247   5.178   1.693   4.337  0.3178 -0.0223 -0.3484
   55CHL1  H27A 5248   5.240   1.647   4.417 -0.5332  0.2282  0.4654
   55CHL1  H27B 5249   5.167   1.800   4.367  0.6587 -0.0162 -0.2429
   55CHL1  H27C 5250   5.078   1.645   4.338  0.3351 -0.0521  0.5770
   56CHL1    C3 5251   6.139   3.945   2.518  0.0294 -1.3566 -0.1176
   56CHL1    H3 5252   6.054   3.994   2.466 -3.2964 -3.5145  3.0596
   56CHL1    O3 5253   6.242   3.906   2.429  0.1576 -0.2295  0.4808
   56CHL1   H3' 5254   6.205   3.844   2.366 -1.0809  1.8883 -0.9254
   56CHL1    C4 5255   6.205   4.046   2.620  0.0966  0.5746 -0.2302
   56CHL1   H4A 5256   6.291   3.996   2.669 -0.7794 -1.0220 -0.2804
   56CHL1   H4B 5257   6.235   4.135   2.560  1.1067  0.3379 -0.0701
   56CHL1    C5 5258   6.102   4.084   2.719 -0.7979  0.0719  0.2346
   56CHL1    C6 5259   6.066   4.208   2.732  0.1527 -0.2260 -0.9624
   56CHL1    H6 5260   6.131   4.276   2.675  0.5622  0.6772  0.5410
   56CHL1    C7 5261   5.971   4.266   2.830  0.7324  0.5469  0.3478
   56CHL1   H7A 5262   6.001   4.360   2.881  2.0155  0.2974  0.0817
   56CHL1   H7B 5263   5.866   4.272   2.795  0.8918  0.6168 -0.1182
   56CHL1    C8 5264   5.945   4.160   2.944  1.1175 -0.0347  0.3084
   56CHL1    H8 5265   6.026   4.154   3.020 -0.1929 -0.7693  1.6759
   56CHL1   C14 5266   5.822   4.209   3.017  0.7087  0.1100  0.2157
   56CHL1   H14 5267   5.734   4.231   2.952 -1.5877 -3.9067  1.8002
   56CHL1   C15 5268   5.836   4.341   3.100  0.4762 -0.5610 -0.4432
   56CHL1  H15A 5269   5.916   4.349   3.177 -0.6290  3.6572  0.4067
   56CHL1  H15B 5270   5.836   4.428   3.031 -0.9871 -1.3243 -1.4136
   56CHL1   C16 5271   5.708   4.335   3.187  0.5117 -0.0089 -0.4540
   56CHL1  H16A 5272   5.732   4.365   3.291 -3.1198  1.0564  0.1400
   56CHL1  H16B 5273   5.623   4.395   3.148  0.8600 -0.0234 -1.2472
   56CHL1   C17 5274   5.657   4.191   3.188 -1.0526 -0.1369  0.6782
   56CHL1   H17 5275   5.571   4.195   3.119 -0.5198 -1.5507 -0.1040
   56CHL1   C13 5276   5.770   4.113   3.125  0.9860 -0.3883  0.4644
   56CHL1   C18 5277   5.881   4.071   3.228  0.3904  0.5887  0.9046
   56CHL1  H18A 5278   5.844   3.989   3.294  3.8531 -0.1255  2.0850
   56CHL1  H18B 5279   5.978   4.037   3.187  0.0761 -0.0133  0.6636
   56CHL1  H18C 5280   5.905   4.154   3.298 -2.2597  0.6250  1.8440
   56CHL1   C12 5281   5.727   3.989   3.045 -0.6318  0.3672 -0.1218
   56CHL1  H12A 5282   5.681   3.904   3.101 -0.5951 -0.4573 -1.3115
   56CHL1  H12B 5283   5.648   4.016   2.971 -0.8516  3.5186  1.2038
   56CHL1   C11 5284   5.847   3.924   2.977 -0.0071  0.0972 -0.0450
   56CHL1  H11A 5285   5.921   3.895   3.055  0.1235  2.7338  0.8507
   56CHL1  H11B 5286   5.818   3.836   2.914  0.8721 -0.1907 -0.0514
   56CHL1    C9 5287   5.917   4.027   2.878  0.0634  0.2964  0.4001
   56CHL1    H9 5288   5.830   4.029   2.809  0.5708 -1.7405 -0.3407
   56CHL1   C10 5289   6.037   3.974   2.803  0.0069  0.1345  0.1794
   56CHL1   C19 5290   6.149   3.932   2.906 -0.2840  0.0240  0.2945
   56CHL1  H19A 5291   6.188   4.019   2.962 -0.2918  1.4590 -1.8591
   56CHL1  H19B 5292   6.106   3.854   2.973 -0.4369 -1.0651 -1.0306
   56CHL1  H19C 5293   6.233   3.878   2.857  0.3111  0.3583  0.9429
   56CHL1    C1 5294   5.984   3.861   2.711  0.6803 -0.1065 -0.3147
   56CHL1   H1A 5295   5.953   3.772   2.769 -2.0908 -0.6381 -2.4897
   56CHL1   H1B 5296   5.888   3.885   2.660  0.2757  0.5376  0.7272
   56CHL1    C2 5297   6.082   3.826   2.593 -0.3109  0.0866  0.1086
   56CHL1   H2A 5298   6.040   3.749   2.526  1.9562 -2.5748  1.6052
   56CHL1   H2B 5299   6.160   3.770   2.649  0.8077  0.8546 -0.6630
   56CHL1   C20 5300   5.613   4.154   3.331 -0.5360  0.2944 -0.0453
   56CHL1   H20 5301   5.697   4.150   3.403  1.7297 -2.3820 -2.7080
   56CHL1   C21 5302   5.562   4.008   3.329  1.4352  0.2814  0.4772
   56CHL1  H21A 5303   5.495   3.983   3.244  1.8808 -2.3335  0.8578
   56CHL1  H21B 5304   5.515   3.978   3.425  2.0323  2.0187  1.3295
   56CHL1  H21C 5305   5.648   3.938   3.318  0.0373 -1.0957 -2.1334
   56CHL1   C22 5306   5.498   4.244   3.385  0.0029  0.2106  0.6260
   56CHL1  H22A 5307   5.512   4.349   3.351 -0.2729  0.4542  1.2613
   56CHL1  H22B 5308   5.396   4.215   3.352  0.3505  0.7300 -0.9771
   56CHL1   C23 5309   5.494   4.244   3.536  0.0282 -0.7970  0.3208
   56CHL1  H23A 5310   5.482   4.142   3.578  0.7914  0.4184  3.6985
   56CHL1  H23B 5311   5.596   4.266   3.573  0.0969 -2.5028  1.2096
   56CHL1   C24 5312   5.374   4.337   3.579 -0.6351 -0.0449  0.1688
   56CHL1  H24A 5313   5.402   4.443   3.557 -0.3287 -0.6269 -2.3992
   56CHL1  H24B 5314   5.286   4.312   3.517  0.8189 -2.3578 -1.0523
   56CHL1   C25 5315   5.353   4.316   3.731  0.2914 -0.1401 -0.3260
   56CHL1   H25 5316   5.326   4.208   3.727 -4.1397  0.9435 -2.3536
   56CHL1   C26 5317   5.480   4.339   3.816 -0.0652  0.2843 -0.5000
   56CHL1  H26A 5318   5.571   4.285   3.782  2.0165  2.9543  0.6790
   56CHL1  H26B 5319   5.487   4.448   3.797 -1.9475  0.8175  1.6398
   56CHL1  H26C 5320   5.438   4.318   3.917 -0.8786  0.7116 -0.7470
   56CHL1   C27 5321   5.233   4.396   3.774  0.4029  0.0925  0.1662
   56CHL1  H27A 5322   5.256   4.505   3.776  0.8323 -0.0011  0.2554
   56CHL1  H27B 5323   5.146   4.383   3.705  1.7588 -0.7387 -1.4262
   56CHL1  H27C 5324   5.209   4.370   3.879 -1.2291 -1.6133 -0.5990
   57CHL1    C3 5325   4.919   1.587   2.556 -0.9161 -0.1028 -0.9566
   57CHL1    H3 5326   4.944   1.484   2.525 -1.0689 -0.9305  1.5660
   57CHL1    O3 5327   4.917   1.664   2.440 -0.5181 -0.0542  0.1654
   57CHL1   H3' 5328   4.837   1.638   2.394  0.1354  0.4299 -1.2910
   57CHL1    C4 5329   4.782   1.587   2.625 -1.1214 -0.4379  0.5097
   57CHL1   H4A 5330   4.748   1.691   2.644  0.1819  0.3937 -1.4808
   57CHL1   H4B 5331   4.714   1.546   2.548  1.3510 -1.1038 -1.3957
   57CHL1    C5 5332   4.784   1.520   2.760 -0.6656 -0.0832  0.6652
   57CHL1    C6 5333   4.694   1.422   2.785 -0.2079  0.6379 -0.7374
   57CHL1    H6 5334   4.623   1.394   2.705  1.6407 -0.5801 -1.9718
   57CHL1    C7 5335   4.676   1.338   2.917 -0.3897 -0.4062 -0.3742
   57CHL1   H7A 5336   4.574   1.351   2.959 -1.3441 -2.3655 -2.0275
   57CHL1   H7B 5337   4.684   1.229   2.897 -1.4527 -0.5597  0.0515
   57CHL1    C8 5338   4.777   1.390   3.021  0.2724 -0.5742  0.0488
   57CHL1    H8 5339   4.730   1.463   3.090  2.6459 -0.5422  1.6940
   57CHL1   C14 5340   4.806   1.269   3.105  1.1138 -0.8184 -0.5662
   57CHL1   H14 5341   4.868   1.203   3.040  0.8125 -1.6278 -0.0371
   57CHL1   C15 5342   4.692   1.176   3.155  0.3992  0.3541  0.3196
   57CHL1  H15A 5343   4.614   1.244   3.195 -0.4200  0.1375 -0.8989
   57CHL1  H15B 5344   4.657   1.108   3.074  0.9671  1.5500 -0.9337
   57CHL1   C16 5345   4.749   1.094   3.271  0.4473  0.6402 -0.0144
   57CHL1  H16A 5346   4.693   1.119   3.364  1.0155 -1.1201  0.8106
   57CHL1  H16B 5347   4.749   0.984   3.256 -0.2074  0.4200  1.5227
   57CHL1   C17 5348   4.899   1.148   3.287  0.6325  0.2573 -0.2881
   57CHL1   H17 5349   4.965   1.084   3.225 -1.6686 -0.1643 -2.3690
   57CHL1   C13 5350   4.895   1.291   3.226 -0.4726  0.1485 -0.1115
   57CHL1   C18 5351   4.830   1.384   3.335  0.2559 -1.5568 -0.4107
   57CHL1  H18A 5352   4.895   1.381   3.425 -1.4545  0.6273  0.9641
   57CHL1  H18B 5353   4.831   1.491   3.307 -0.8675 -1.4457 -0.0662
   57CHL1  H18C 5354   4.731   1.340   3.361  1.1489 -2.8998  0.8174
   57CHL1   C12 5355   5.033   1.358   3.184 -0.3316 -0.4188  0.6321
   57CHL1  H12A 5356   5.086   1.396   3.273  1.4774  3.2822 -1.8910
   57CHL1  H12B 5357   5.101   1.283   3.139 -0.3721  0.5851 -1.1643
   57CHL1   C11 5358   5.015   1.467   3.078 -0.4587 -0.0020  0.2581
   57CHL1  H11A 5359   4.990   1.562   3.130  1.2190  1.1804 -1.0539
   57CHL1  H11B 5360   5.116   1.477   3.034  0.2861 -1.6619  1.5268
   57CHL1    C9 5361   4.911   1.439   2.967 -0.2699  0.4367  0.2247
   57CHL1    H9 5362   4.950   1.349   2.914 -2.5124  0.2620 -1.1715
   57CHL1   C10 5363   4.901   1.552   2.856 -0.1765  0.3177 -0.2110
   57CHL1   C19 5364   4.875   1.689   2.920 -0.2790  0.3749  0.3454
   57CHL1  H19A 5365   4.780   1.671   2.976 -1.1239  0.4465 -1.0258
   57CHL1  H19B 5366   4.957   1.713   2.990 -2.6688  1.9802  2.6918
   57CHL1  H19C 5367   4.863   1.770   2.845  1.4546  0.6078  0.3132
   57CHL1    C1 5368   5.039   1.557   2.785  0.6221  0.4722 -0.5390
   57CHL1   H1A 5369   5.109   1.607   2.855  0.5386  0.6439 -0.5760
   57CHL1   H1B 5370   5.073   1.458   2.747 -1.2615 -0.9623  1.4323
   57CHL1    C2 5371   5.030   1.642   2.654  0.0915  0.2337  0.2884
   57CHL1   H2A 5372   5.122   1.649   2.591  0.0431 -0.3431  0.1502
   57CHL1   H2B 5373   4.997   1.746   2.676 -0.3442  0.7654 -2.6566
   57CHL1   C20 5374   4.945   1.128   3.426  0.3148  0.0935 -0.0394
   57CHL1   H20 5375   4.890   1.196   3.495  0.0678  1.2571 -1.3614
   57CHL1   C21 5376   5.097   1.155   3.445  0.2670 -0.1679 -0.5243
   57CHL1  H21A 5377   5.149   1.088   3.372 -1.0074  1.0885 -2.6433
   57CHL1  H21B 5378   5.128   1.128   3.548 -0.0807 -0.8227 -0.5838
   57CHL1  H21C 5379   5.131   1.257   3.420  0.0557 -0.2223 -1.0368
   57CHL1   C22 5380   4.904   0.988   3.493  0.6835 -0.1074  0.1761
   57CHL1  H22A 5381   4.956   0.995   3.592  0.5781  3.5088  0.0170
   57CHL1  H22B 5382   4.795   0.989   3.512  1.0408 -0.4013  2.4988
   57CHL1   C23 5383   4.925   0.851   3.433  0.0519  0.9614 -0.2709
   57CHL1  H23A 5384   4.835   0.848   3.368 -1.9467 -0.1697  2.4135
   57CHL1  H23B 5385   5.018   0.840   3.373 -0.5929  0.1285 -1.1471
   57CHL1   C24 5386   4.909   0.734   3.533 -0.8292 -0.3854 -0.6501
   57CHL1  H24A 5387   4.806   0.740   3.574 -0.7111 -3.1207  0.1624
   57CHL1  H24B 5388   4.904   0.640   3.473 -0.4882  0.4081 -1.9339
   57CHL1   C25 5389   5.016   0.722   3.637 -0.0717 -0.1889 -0.7255
   57CHL1   H25 5390   5.030   0.816   3.695  1.8998 -0.5834 -0.5358
   57CHL1   C26 5391   4.970   0.615   3.737  0.2822  0.6493  0.4610
   57CHL1  H26A 5392   4.940   0.522   3.683  0.3195  2.2608 -2.4543
   57CHL1  H26B 5393   5.045   0.597   3.817  0.3288  1.4713  0.6080
   57CHL1  H26C 5394   4.876   0.640   3.790  0.7032 -1.3781  2.2365
   57CHL1   C27 5395   5.154   0.678   3.588 -0.0210  0.4314 -0.3471
   57CHL1  H27A 5396   5.153   0.584   3.529  4.6126  0.1723 -0.2388
   57CHL1  H27B 5397   5.192   0.756   3.519 -2.2323  1.6281 -0.2484
   57CHL1  H27C 5398   5.232   0.670   3.667  0.8383 -0.1938 -1.2621
   58CHL1    C3 5399   5.991   2.091   2.638 -0.0983  0.5514 -0.3236
   58CHL1    H3 5400   6.067   2.010   2.636  1.0498  1.5756  0.7966
   58CHL1    O3 5401   5.977   2.157   2.513 -0.2533  0.2446 -0.2624
   58CHL1   H3' 5402   5.935   2.237   2.546  0.8221  0.2341  1.1491
   58CHL1    C4 5403   5.857   2.032   2.682  0.0233  0.3678  0.2091
   58CHL1   H4A 5404   5.774   2.105   2.677  0.9493  1.3956 -0.2628
   58CHL1   H4B 5405   5.816   1.968   2.601  0.9461  0.9388 -0.7117
   58CHL1    C5 5406   5.855   1.962   2.812 -0.4934  0.5473  0.3109
   58CHL1    C6 5407   5.805   1.835   2.829 -0.2819 -0.1789 -0.4272
   58CHL1    H6 5408   5.754   1.780   2.749 -0.4885  0.4482 -0.7310
   58CHL1    C7 5409   5.809   1.773   2.963  0.0950  0.3092  0.2523
   58CHL1   H7A 5410   5.724   1.704   2.979  1.6166 -1.7602 -0.3528
   58CHL1   H7B 5411   5.891   1.698   2.958 -1.0058 -0.7560 -3.2372
   58CHL1    C8 5412   5.834   1.871   3.079 -0.9656  0.2405 -0.3739
   58CHL1    H8 5413   5.739   1.926   3.098 -0.2475  2.0243 -1.8205
   58CHL1   C14 5414   5.869   1.788   3.206  0.4258  0.6645 -0.5644
   58CHL1   H14 5415   5.957   1.726   3.181  1.7017  1.8724  0.8222
   58CHL1   C15 5416   5.764   1.694   3.269 -0.2191  0.0831  0.5524
   58CHL1  H15A 5417   5.673   1.756   3.251  0.9549  1.9142  0.7465
   58CHL1  H15B 5418   5.747   1.598   3.216  0.7465 -1.5230  3.1037
   58CHL1   C16 5419   5.798   1.674   3.414 -0.6200 -0.4565 -0.3048
   58CHL1  H16A 5420   5.719   1.697   3.489  0.9603 -4.0959  2.6855
   58CHL1  H16B 5421   5.836   1.573   3.441  1.6481  0.5411  0.3789
   58CHL1   C17 5422   5.914   1.779   3.440 -0.1122 -0.4854  0.2734
   58CHL1   H17 5423   6.013   1.731   3.426  0.0766  0.3581 -1.4663
   58CHL1   C13 5424   5.903   1.882   3.325 -0.2794  0.0087 -0.5654
   58CHL1   C18 5425   5.795   1.984   3.376 -0.2851  0.6283  0.0094
   58CHL1  H18A 5426   5.832   2.060   3.449  0.1931  0.4640 -0.0611
   58CHL1  H18B 5427   5.756   2.043   3.290 -2.3375  0.8922  1.0820
   58CHL1  H18C 5428   5.711   1.927   3.422 -1.9006  1.3698 -1.9641
   58CHL1   C12 5429   6.039   1.949   3.290 -0.2466  0.5409 -0.1869
   58CHL1  H12A 5430   6.074   2.006   3.379 -0.4848 -2.3042  1.8008
   58CHL1  H12B 5431   6.122   1.879   3.266 -0.4778  0.4887 -0.8418
   58CHL1   C11 5432   6.020   2.033   3.161  0.4439 -0.1251 -0.2704
   58CHL1  H11A 5433   5.953   2.119   3.184  1.7056  0.8838 -0.2785
   58CHL1  H11B 5434   6.122   2.073   3.141  0.6619 -1.5970 -2.2210
   58CHL1    C9 5435   5.952   1.952   3.045  0.6710  0.3557  0.0446
   58CHL1    H9 5436   6.035   1.884   3.016 -2.7350 -3.2666 -1.7115
   58CHL1   C10 5437   5.922   2.047   2.922  0.0925 -0.5643 -0.4450
   58CHL1   C19 5438   5.822   2.159   2.956 -0.1829 -0.7158  0.1421
   58CHL1  H19A 5439   5.795   2.218   2.866  0.9794 -1.9050 -0.9867
   58CHL1  H19B 5440   5.730   2.108   2.992  0.5579 -1.7895  0.5464
   58CHL1  H19C 5441   5.857   2.228   3.036 -0.5413 -0.3188 -0.0426
   58CHL1    C1 5442   6.057   2.115   2.886  0.4686 -0.2896  0.0724
   58CHL1   H1A 5443   6.081   2.184   2.969  3.6617  0.3611 -1.3095
   58CHL1   H1B 5444   6.131   2.033   2.877 -1.9268 -2.7983  2.3894
   58CHL1    C2 5445   6.051   2.192   2.749 -0.2031  1.1614 -0.2961
   58CHL1   H2A 5446   6.150   2.233   2.719  1.1626 -2.4976 -1.0588
   58CHL1   H2B 5447   5.982   2.278   2.749 -1.9172 -0.1621  2.2171
   58CHL1   C20 5448   5.903   1.823   3.589  0.0462 -0.0602 -0.0972
   58CHL1   H20 5449   5.818   1.894   3.601 -0.1050 -0.1380 -0.6961
   58CHL1   C21 5450   6.039   1.901   3.624 -0.1106 -0.3933 -0.3161
   58CHL1  H21A 5451   6.047   1.927   3.732  1.9157  1.9981 -0.9936
   58CHL1  H21B 5452   6.047   1.999   3.572 -0.1818  0.1335  0.6617
   58CHL1  H21C 5453   6.123   1.835   3.595 -0.3422 -0.6758 -0.3407
   58CHL1   C22 5454   5.885   1.706   3.686  0.0275  0.5755 -0.4668
   58CHL1  H22A 5455   5.881   1.759   3.784 -2.5949 -1.7412  0.7318
   58CHL1  H22B 5456   5.784   1.661   3.674 -0.6730  2.0657 -0.4101
   58CHL1   C23 5457   5.991   1.594   3.682 -0.2375 -0.3283 -0.5279
   58CHL1  H23A 5458   6.011   1.567   3.576 -1.5314  0.1995 -0.9203
   58CHL1  H23B 5459   6.089   1.628   3.720  0.6709 -2.0174 -1.2981
   58CHL1   C24 5460   5.945   1.469   3.753  0.3971  0.3025  0.2446
   58CHL1  H24A 5461   5.897   1.486   3.851  0.6418  0.3331  0.3617
   58CHL1  H24B 5462   5.861   1.431   3.691  0.9895  1.0335 -1.0406
   58CHL1   C25 5463   6.052   1.361   3.764  0.1624  0.4935 -0.0311
   58CHL1   H25 5464   6.116   1.355   3.674  0.9911  0.2052  0.5762
   58CHL1   C26 5465   6.145   1.378   3.882 -0.4562 -0.3386  1.0354
   58CHL1  H26A 5466   6.223   1.299   3.875 -0.6965 -0.4655 -0.2552
   58CHL1  H26B 5467   6.197   1.475   3.873 -1.1794 -0.1752 -1.8127
   58CHL1  H26C 5468   6.091   1.374   3.979  1.5271  0.1458  2.1844
   58CHL1   C27 5469   5.968   1.228   3.779 -0.3461 -0.6901  0.3770
   58CHL1  H27A 5470   5.892   1.225   3.698 -1.6544  0.5298  1.5185
   58CHL1  H27B 5471   6.036   1.143   3.759 -0.0846 -0.0178 -1.6616
   58CHL1  H27C 5472   5.900   1.221   3.867 -0.0318  0.4091  0.7201
   59CHL1    C3 5473   4.396   0.906   2.567 -0.2316  0.6191 -0.1111
   59CHL1    H3 5474   4.288   0.925   2.546 -0.4400 -1.6509 -1.2052
   59CHL1    O3 5475   4.464   0.900   2.444  0.6024 -1.0199  0.6233
   59CHL1   H3' 5476   4.442   0.814   2.406 -1.3545 -0.3104  0.0937
   59CHL1    C4 5477   4.460   1.018   2.656  0.3253  0.4134  0.3355
   59CHL1   H4A 5478   4.571   1.017   2.659  0.2916  1.8366  2.9064
   59CHL1   H4B 5479   4.440   1.112   2.601  2.4210  0.9186  0.4103
   59CHL1    C5 5480   4.402   1.013   2.792  0.9412 -0.3095 -0.3594
   59CHL1    C6 5481   4.355   1.130   2.846 -0.1256 -0.1296  0.4165
   59CHL1    H6 5482   4.367   1.222   2.787 -0.4487 -0.1742  0.2848
   59CHL1    C7 5483   4.304   1.143   2.986 -0.4572  0.3262 -0.5950
   59CHL1   H7A 5484   4.338   1.241   3.027 -0.2513 -1.2371  3.2410
   59CHL1   H7B 5485   4.193   1.147   2.987 -0.4870 -0.4965 -0.0078
   59CHL1    C8 5486   4.331   1.015   3.079  0.3097 -0.1672 -0.6009
   59CHL1    H8 5487   4.435   1.023   3.119  0.4841  1.6348 -1.3668
   59CHL1   C14 5488   4.243   1.015   3.203 -0.8917  0.0552  0.0215
   59CHL1   H14 5489   4.137   1.007   3.173 -1.5729  3.7861  1.1333
   59CHL1   C15 5490   4.246   1.143   3.301 -0.2720 -0.1152 -0.1523
   59CHL1  H15A 5491   4.352   1.174   3.316 -0.3610 -0.1564  0.5699
   59CHL1  H15B 5492   4.184   1.229   3.266 -0.6739  0.4998  1.9737
   59CHL1   C16 5493   4.183   1.088   3.432  0.2483  0.6137  0.6626
   59CHL1  H16A 5494   4.248   1.107   3.520 -1.0983  2.3697  1.3000
   59CHL1  H16B 5495   4.078   1.122   3.437  0.4200  1.0390  1.3549
   59CHL1   C17 5496   4.166   0.927   3.403  0.2089 -0.6168 -0.6517
   59CHL1   H17 5497   4.062   0.923   3.363 -0.6220 -0.9913  1.4312
   59CHL1   C13 5498   4.263   0.891   3.292  0.3124 -0.3119  0.0445
   59CHL1   C18 5499   4.403   0.879   3.350  0.3244 -0.7615  0.2022
   59CHL1  H18A 5500   4.419   0.788   3.411 -0.2627  0.2109  1.8501
   59CHL1  H18B 5501   4.479   0.886   3.269  0.4074  0.6249  0.3838
   59CHL1  H18C 5502   4.424   0.966   3.416  0.0039 -0.4161 -0.1496
   59CHL1   C12 5503   4.229   0.768   3.210 -0.3707 -0.3042 -0.1105
   59CHL1  H12A 5504   4.250   0.675   3.267  0.8997  0.5313  0.8221
   59CHL1  H12B 5505   4.128   0.765   3.166 -0.0323  2.3875 -1.1494
   59CHL1   C11 5506   4.321   0.754   3.087  0.2982 -0.4995 -0.4016
   59CHL1  H11A 5507   4.425   0.723   3.109  0.7314 -0.3942 -2.1880
   59CHL1  H11B 5508   4.270   0.668   3.038 -1.0052 -0.2765  0.5407
   59CHL1    C9 5509   4.320   0.887   3.002  0.2516 -0.0777 -0.9968
   59CHL1    H9 5510   4.219   0.908   2.959  0.4217  3.7679  0.2940
   59CHL1   C10 5511   4.408   0.879   2.867  0.8453  0.2719 -0.3485
   59CHL1   C19 5512   4.561   0.862   2.913 -0.1506 -0.3093  0.1690
   59CHL1  H19A 5513   4.618   0.863   2.817 -1.5540 -1.8469 -0.7107
   59CHL1  H19B 5514   4.585   0.942   2.987 -1.2061 -0.7669  1.0138
   59CHL1  H19C 5515   4.567   0.765   2.967 -0.1377 -0.2847  0.2119
   59CHL1    C1 5516   4.357   0.768   2.774  0.7409  0.4354 -0.4070
   59CHL1   H1A 5517   4.379   0.667   2.813 -1.1222  0.1931  0.0600
   59CHL1   H1B 5518   4.247   0.783   2.769  0.6690 -0.6725 -3.1582
   59CHL1    C2 5519   4.406   0.768   2.633 -0.1537  0.3620 -0.1144
   59CHL1   H2A 5520   4.354   0.691   2.572 -1.5247  2.1849 -1.3049
   59CHL1   H2B 5521   4.512   0.739   2.649 -0.5067 -1.5757 -1.1042
   59CHL1   C20 5522   4.164   0.854   3.534  0.2638  0.4174 -0.1177
   59CHL1   H20 5523   4.262   0.854   3.587  1.4662  1.1734 -2.2550
   59CHL1   C21 5524   4.131   0.701   3.510 -0.6191 -0.2726 -0.2696
   59CHL1  H21A 5525   4.091   0.656   3.603  1.5814  0.6532  1.1690
   59CHL1  H21B 5526   4.227   0.658   3.475  0.1227  1.9753 -1.0886
   59CHL1  H21C 5527   4.066   0.690   3.421  1.4019  0.1960 -1.8405
   59CHL1   C22 5528   4.055   0.911   3.635 -0.0421 -0.4774 -0.2412
   59CHL1  H22A 5529   4.073   1.020   3.643  2.5559 -0.7610 -1.7582
   59CHL1  H22B 5530   3.956   0.886   3.591 -0.2295 -1.4317  0.6834
   59CHL1   C23 5531   4.061   0.865   3.786  0.2784 -0.7683  0.4331
   59CHL1  H23A 5532   4.061   0.754   3.780 -0.5046 -0.7585  0.1869
   59CHL1  H23B 5533   4.155   0.885   3.842 -0.3629  0.5599  1.0452
   59CHL1   C24 5534   3.941   0.914   3.873  0.6869  0.8736  0.1001
   59CHL1  H24A 5535   3.928   1.024   3.866 -0.0593  0.8588  1.2449
   59CHL1  H24B 5536   3.848   0.878   3.825  0.4784  1.9911 -0.3529
   59CHL1   C25 5537   3.950   0.866   4.023 -0.0433  0.0624  0.0454
   59CHL1   H25 5538   3.994   0.765   4.011  0.6737  0.4224 -0.3864
   59CHL1   C26 5539   4.047   0.946   4.108 -0.2692  0.2437 -0.7631
   59CHL1  H26A 5540   4.039   1.055   4.086  0.2165  0.8916  2.0915
   59CHL1  H26B 5541   4.004   0.940   4.210  1.3962  0.5108 -0.0362
   59CHL1  H26C 5542   4.154   0.923   4.091 -0.3739 -0.6784 -0.1822
   59CHL1   C27 5543   3.814   0.882   4.085 -0.2842  0.3054  0.2623
   59CHL1  H27A 5544   3.740   0.811   4.042 -0.2267 -0.1095  0.8514
   59CHL1  H27B 5545   3.806   0.869   4.195 -2.8198 -1.5893 -0.0929
   59CHL1  H27C 5546   3.774   0.980   4.050  0.4161  0.5259  0.0654
   60CHL1    C3 5547   5.076   6.642   2.525 -0.4299 -0.0864  0.1949
   60CHL1    H3 5548   5.159   6.694   2.577  0.1232 -0.5320 -0.2440
   60CHL1    O3 5549   5.104   6.645   2.387 -0.0121  0.2543 -0.2292
   60CHL1   H3' 5550   5.181   6.589   2.380 -1.0654 -1.2870  0.3182
   60CHL1    C4 5551   5.068   6.492   2.583  0.4166  0.6934 -0.3917
   60CHL1   H4A 5552   4.997   6.429   2.525 -0.3103 -0.3826  1.6260
   60CHL1   H4B 5553   5.168   6.446   2.566  0.9342  0.1929  3.5540
   60CHL1    C5 5554   5.042   6.488   2.733  0.4428 -0.2392 -0.3515
   60CHL1    C6 5555   5.125   6.419   2.818  0.0976  0.3326 -0.3072
   60CHL1    H6 5556   5.209   6.356   2.786  1.4808  0.3190  3.0579
   60CHL1    C7 5557   5.102   6.413   2.971 -0.4692 -0.2893  0.3344
   60CHL1   H7A 5558   5.108   6.311   3.015  0.3597 -1.2651 -1.9521
   60CHL1   H7B 5559   5.178   6.481   3.013 -0.5564  0.3923 -0.6028
   60CHL1    C8 5560   4.966   6.466   3.020  0.0790  0.2567  1.2823
   60CHL1    H8 5561   4.895   6.381   3.006 -0.7334  0.8993  1.4636
   60CHL1   C14 5562   4.957   6.492   3.169 -0.0561  0.2127  0.5338
   60CHL1   H14 5563   5.030   6.575   3.178  1.4635 -0.9644 -0.7510
   60CHL1   C15 5564   5.007   6.374   3.255  0.1668 -0.2841 -0.0511
   60CHL1  H15A 5565   4.948   6.285   3.226 -1.2631  0.6284  0.0106
   60CHL1  H15B 5566   5.118   6.366   3.252  0.0605 -2.7075  1.3092
   60CHL1   C16 5567   4.950   6.420   3.389  0.4947  0.2913 -0.2739
   60CHL1  H16A 5568   4.890   6.336   3.429  2.4585 -1.5096 -1.0286
   60CHL1  H16B 5569   5.038   6.445   3.452  1.2359 -1.4509 -0.5943
   60CHL1   C17 5570   4.855   6.542   3.367 -0.2377 -0.1438  0.0807
   60CHL1   H17 5571   4.930   6.622   3.387 -0.1744 -0.1482 -0.1432
   60CHL1   C13 5572   4.818   6.538   3.224 -0.3542 -0.2655  0.1463
   60CHL1   C18 5573   4.704   6.439   3.200  0.5611 -0.0904 -0.6312
   60CHL1  H18A 5574   4.706   6.338   3.245 -0.0700 -0.9314 -2.4787
   60CHL1  H18B 5575   4.603   6.483   3.218 -0.2902 -1.3274 -2.2996
   60CHL1  H18C 5576   4.709   6.423   3.090  0.0012 -0.0012 -0.6720
   60CHL1   C12 5577   4.799   6.679   3.154  0.2425 -0.6655 -0.3118
   60CHL1  H12A 5578   4.697   6.716   3.181  0.5060  0.1316 -0.3926
   60CHL1  H12B 5579   4.882   6.744   3.187  0.1331 -0.3346 -0.6777
   60CHL1   C11 5580   4.798   6.660   3.001 -1.1072  0.4501 -0.6046
   60CHL1  H11A 5581   4.706   6.604   2.975 -0.1701 -1.2978 -0.2171
   60CHL1  H11B 5582   4.792   6.757   2.948 -1.0564  1.3311  0.9706
   60CHL1    C9 5583   4.923   6.588   2.942 -0.2666 -0.6733  0.8801
   60CHL1    H9 5584   5.003   6.665   2.951  1.5528 -2.1776 -1.7782
   60CHL1   C10 5585   4.917   6.572   2.785 -0.0156  0.6490  0.4292
   60CHL1   C19 5586   4.791   6.485   2.748  0.2683  0.5369 -0.3552
   60CHL1  H19A 5587   4.698   6.540   2.774  0.0826  1.2651 -2.4422
   60CHL1  H19B 5588   4.794   6.461   2.640 -1.5803  2.6720 -0.9237
   60CHL1  H19C 5589   4.799   6.386   2.796  0.0898 -0.4695 -2.3585
   60CHL1    C1 5590   4.918   6.706   2.709 -0.0072  0.6771 -0.0712
   60CHL1   H1A 5591   4.822   6.760   2.725  0.6065  2.0605 -1.0140
   60CHL1   H1B 5592   4.991   6.771   2.760  0.3715  0.2096 -0.0190
   60CHL1    C2 5593   4.940   6.712   2.558  0.0527  0.1177  0.7539
   60CHL1   H2A 5594   4.944   6.817   2.520 -0.2126 -0.3042 -0.4345
   60CHL1   H2B 5595   4.861   6.647   2.516  0.8194 -0.3028 -0.0448
   60CHL1   C20 5596   4.735   6.549   3.478 -0.4817  0.3231 -0.7167
   60CHL1   H20 5597   4.674   6.457   3.469 -0.6234  0.0460  2.7689
   60CHL1   C21 5598   4.645   6.675   3.462 -0.0647  0.0770  0.0047
   60CHL1  H21A 5599   4.700   6.771   3.474  0.8436 -0.2550 -1.4074
   60CHL1  H21B 5600   4.563   6.669   3.537  0.2642  3.6683  0.7691
   60CHL1  H21C 5601   4.611   6.671   3.356 -3.1687 -2.3698  1.0315
   60CHL1   C22 5602   4.799   6.526   3.618 -0.3832 -0.6140 -0.6102
   60CHL1  H22A 5603   4.843   6.424   3.625  1.3605  0.2117  0.8411
   60CHL1  H22B 5604   4.879   6.601   3.631 -1.2280  0.1540  0.1197
   60CHL1   C23 5605   4.699   6.536   3.736  0.7083  0.5891 -0.2136
   60CHL1  H23A 5606   4.644   6.632   3.751 -0.1031  0.0239  0.4894
   60CHL1  H23B 5607   4.617   6.464   3.716 -0.2662  1.5847  0.1468
   60CHL1   C24 5608   4.755   6.492   3.874 -0.6580 -0.2173  0.2558
   60CHL1  H24A 5609   4.801   6.392   3.860  1.5454  0.7412  0.3747
   60CHL1  H24B 5610   4.837   6.555   3.915 -0.9899  0.0789  0.4660
   60CHL1   C25 5611   4.656   6.486   3.990  1.3933  0.2301 -0.0350
   60CHL1   H25 5612   4.560   6.436   3.964  0.3809  1.4514  1.3138
   60CHL1   C26 5613   4.726   6.418   4.108 -0.1394  0.0510  0.1901
   60CHL1  H26A 5614   4.667   6.397   4.200  0.0840  1.3026  0.6336
   60CHL1  H26B 5615   4.765   6.317   4.085  1.6880  1.2278 -2.1516
   60CHL1  H26C 5616   4.815   6.480   4.134  0.4672 -0.7761  0.1077
   60CHL1   C27 5617   4.611   6.631   4.021 -0.0808 -0.0071  0.1306
   60CHL1  H27A 5618   4.545   6.630   4.110 -0.0522  0.3833  0.1562
   60CHL1  H27B 5619   4.691   6.699   4.058 -0.0769 -0.6346  1.3036
   60CHL1  H27C 5620   4.558   6.690   3.943  1.9660  2.6805  0.6737
   61CHL1    C3 5621   6.727   2.593   2.598 -0.4261  0.7101 -0.5552
   61CHL1    H3 5622   6.829   2.598   2.642 -0.0647  0.3675 -1.3469
   61CHL1    O3 5623   6.723   2.673   2.483  0.4920 -0.5438  0.2736
   61CHL1   H3' 5624   6.636   2.666   2.444  0.9908  1.6195 -1.3323
   61CHL1    C4 5625   6.701   2.450   2.563  0.2041 -0.4488 -0.2893
   61CHL1   H4A 5626   6.606   2.446   2.505 -0.1008 -0.8414  0.2213
   61CHL1   H4B 5627   6.782   2.430   2.491 -0.3506  0.7171 -1.2479
   61CHL1    C5 5628   6.700   2.357   2.686  0.0215  0.4782 -0.3940
   61CHL1    C6 5629   6.774   2.245   2.702 -0.3300  0.6632  0.4616
   61CHL1    H6 5630   6.852   2.221   2.628  0.5203 -2.2722  2.2051
   61CHL1    C7 5631   6.766   2.142   2.814  0.2351 -0.0743  0.0364
   61CHL1   H7A 5632   6.768   2.038   2.775 -1.5845  0.0169 -0.3337
   61CHL1   H7B 5633   6.857   2.149   2.876 -0.1634  1.6135  0.4422
   61CHL1    C8 5634   6.639   2.169   2.906 -1.0468  0.3412  0.2041
   61CHL1    H8 5635   6.550   2.134   2.850 -0.0867 -2.7598  0.5285
   61CHL1   C14 5636   6.648   2.095   3.043  0.0454 -0.3634 -0.1625
   61CHL1   H14 5637   6.736   2.147   3.087 -1.4278  1.9145  0.1877
   61CHL1   C15 5638   6.668   1.945   3.039  0.3399  0.9354  0.4998
   61CHL1  H15A 5639   6.593   1.894   2.976 -1.0883  0.0133  2.8535
   61CHL1  H15B 5640   6.771   1.911   3.016 -0.5308 -0.0804 -2.0364
   61CHL1   C16 5641   6.644   1.899   3.188  0.1031 -0.2419  0.4029
   61CHL1  H16A 5642   6.569   1.817   3.186  0.3842 -0.4953 -0.0741
   61CHL1  H16B 5643   6.731   1.867   3.249 -0.9750  0.9496  2.6233
   61CHL1   C17 5644   6.593   2.029   3.261  0.4825  0.5399 -0.2777
   61CHL1   H17 5645   6.678   2.067   3.321 -0.8349 -1.1348  2.7747
   61CHL1   C13 5646   6.540   2.123   3.146  0.1714 -0.1006 -0.1477
   61CHL1   C18 5647   6.398   2.086   3.096  0.7399  0.3822 -0.4178
   61CHL1  H18A 5648   6.318   2.107   3.171  0.1332 -2.5770 -0.1854
   61CHL1  H18B 5649   6.365   2.141   3.005 -1.1165 -0.3701 -0.2321
   61CHL1  H18C 5650   6.380   1.981   3.066 -0.8251  0.4616  0.1684
   61CHL1   C12 5651   6.551   2.277   3.165  0.2435 -1.2018  0.8645
   61CHL1  H12A 5652   6.479   2.310   3.244  0.6923 -0.3444  0.9263
   61CHL1  H12B 5653   6.653   2.295   3.207  0.6991 -1.3308 -0.1690
   61CHL1   C11 5654   6.537   2.365   3.041 -0.2038  0.2153  0.4430
   61CHL1  H11A 5655   6.431   2.357   3.008 -0.2952  0.6437  0.6345
   61CHL1  H11B 5656   6.548   2.471   3.070 -1.3049  0.7187 -0.9236
   61CHL1    C9 5657   6.627   2.325   2.926 -0.3171 -0.3085 -0.4871
   61CHL1    H9 5658   6.727   2.364   2.956  0.5859 -1.0218 -2.5269
   61CHL1   C10 5659   6.598   2.404   2.796  0.0431  0.5394  0.2996
   61CHL1   C19 5660   6.452   2.383   2.754  0.8199 -0.3355 -0.3163
   61CHL1  H19A 5661   6.416   2.278   2.761 -2.5405  0.6157 -2.0380
   61CHL1  H19B 5662   6.379   2.447   2.808 -0.8368 -0.9278 -1.7729
   61CHL1  H19C 5663   6.437   2.402   2.645  2.4634  0.4327 -0.4273
   61CHL1    C1 5664   6.620   2.559   2.820  0.3605  0.0833 -0.0509
   61CHL1   H1A 5665   6.536   2.601   2.878 -1.9842 -0.4303 -2.9775
   61CHL1   H1B 5666   6.715   2.577   2.875  0.5190 -0.0144 -0.2923
   61CHL1    C2 5667   6.624   2.651   2.698 -0.1425 -0.6299  0.4698
   61CHL1   H2A 5668   6.664   2.749   2.733 -0.3832  0.0278 -1.0452
   61CHL1   H2B 5669   6.527   2.666   2.646  0.6796 -2.7720 -1.7792
   61CHL1   C20 5670   6.487   1.990   3.368  0.1231  0.8893  0.3318
   61CHL1   H20 5671   6.402   1.951   3.308  2.2549  1.1282 -2.9823
   61CHL1   C21 5672   6.445   2.120   3.436 -0.2986  0.4814  0.8702
   61CHL1  H21A 5673   6.378   2.094   3.521 -0.2016  3.2460  1.8149
   61CHL1  H21B 5674   6.381   2.190   3.377 -0.7384 -0.7083 -0.0969
   61CHL1  H21C 5675   6.530   2.175   3.480  1.5968 -1.6913  0.0699
   61CHL1   C22 5676   6.541   1.880   3.468  0.0518 -0.1297  0.2685
   61CHL1  H22A 5677   6.577   1.790   3.414 -1.4900 -1.5294  1.5065
   61CHL1  H22B 5678   6.617   1.917   3.540 -1.5854  1.8576  1.0142
   61CHL1   C23 5679   6.439   1.813   3.560 -0.6986 -0.0804 -0.1184
   61CHL1  H23A 5680   6.392   1.891   3.624 -0.0194  1.3104 -1.2712
   61CHL1  H23B 5681   6.363   1.747   3.514  1.0422 -0.4156 -2.6089
   61CHL1   C24 5682   6.518   1.720   3.660  0.5081 -0.4388 -0.2162
   61CHL1  H24A 5683   6.558   1.636   3.598 -0.4875  1.6736 -3.8765
   61CHL1  H24B 5684   6.609   1.758   3.709  2.3158 -1.1653 -2.8771
   61CHL1   C25 5685   6.427   1.666   3.772 -0.5853  0.6170 -0.4048
   61CHL1   H25 5686   6.337   1.626   3.720  0.4632  0.6579 -2.3094
   61CHL1   C26 5687   6.505   1.546   3.844  0.8241  0.0896 -0.1124
   61CHL1  H26A 5688   6.603   1.584   3.879  0.7262 -0.4076  0.7064
   61CHL1  H26B 5689   6.437   1.511   3.924 -1.2835  1.8268 -1.0853
   61CHL1  H26C 5690   6.527   1.468   3.768  1.3103  0.0188  0.1016
   61CHL1   C27 5691   6.369   1.757   3.883  0.0254 -0.7351  0.1586
   61CHL1  H27A 5692   6.302   1.710   3.958 -1.1439 -0.2715 -0.5885
   61CHL1  H27B 5693   6.445   1.778   3.962 -0.8934  0.4179  0.7499
   61CHL1  H27C 5694   6.320   1.848   3.843  1.3589 -0.3634 -0.6403
   62CHL1    C3 5695   1.682   1.323   2.659 -0.6659  0.0820  0.2025
   62CHL1    H3 5696   1.774   1.384   2.654 -1.3053  1.1163  0.7071
   62CHL1    O3 5697   1.624   1.329   2.530 -0.6236  0.0571 -0.1781
   62CHL1   H3' 5698   1.571   1.248   2.524 -1.2943  0.2739  2.2473
   62CHL1    C4 5699   1.724   1.182   2.709 -0.0145  0.2913  0.7033
   62CHL1   H4A 5700   1.640   1.109   2.710  0.1800  0.0314 -1.3109
   62CHL1   H4B 5701   1.796   1.141   2.636  0.0808  1.5793  0.0551
   62CHL1    C5 5702   1.787   1.184   2.854  0.5255 -0.3213 -0.5655
   62CHL1    C6 5703   1.909   1.137   2.880 -0.4224 -0.6097  0.1717
   62CHL1    H6 5704   1.982   1.103   2.805  1.0742  1.4205  0.6500
   62CHL1    C7 5705   1.962   1.138   3.015 -0.7325  0.0228 -0.5277
   62CHL1   H7A 5706   2.008   1.037   3.022  0.7069  0.3942 -3.6316
   62CHL1   H7B 5707   2.045   1.211   3.025  0.5280 -1.7676  2.6747
   62CHL1    C8 5708   1.863   1.154   3.127  0.5024  0.1166  0.2633
   62CHL1    H8 5709   1.799   1.065   3.147  1.0541 -0.4768 -0.5706
   62CHL1   C14 5710   1.936   1.186   3.255 -0.5938 -0.5726  0.4236
   62CHL1   H14 5711   1.997   1.276   3.231 -0.0394 -1.0837 -0.1101
   62CHL1   C15 5712   2.045   1.089   3.304  0.2147  0.3913 -0.4024
   62CHL1  H15A 5713   2.017   0.982   3.305  2.5244 -0.2397  0.4435
   62CHL1  H15B 5714   2.133   1.082   3.236  0.0975 -2.2886 -0.3196
   62CHL1   C16 5715   2.080   1.142   3.444  0.4758 -0.4394  0.8680
   62CHL1  H16A 5716   2.092   1.065   3.524  0.0586 -2.5191 -1.0200
   62CHL1  H16B 5717   2.183   1.182   3.454 -0.1283  1.3386  0.0805
   62CHL1   C17 5718   1.974   1.254   3.479  0.2236 -0.1560 -0.2788
   62CHL1   H17 5719   2.020   1.352   3.455 -0.0457  0.1927  0.5947
   62CHL1   C13 5720   1.854   1.228   3.376 -0.2312  0.3354  0.4669
   62CHL1   C18 5721   1.764   1.106   3.415  0.7198 -0.0661  0.9068
   62CHL1  H18A 5722   1.831   1.024   3.451  0.1378 -1.4758 -1.1670
   62CHL1  H18B 5723   1.698   1.135   3.499  0.1756 -1.2042  0.8821
   62CHL1  H18C 5724   1.697   1.084   3.330  1.4854  1.7196 -0.1858
   62CHL1   C12 5725   1.761   1.345   3.337  0.3720 -0.2941  0.3463
   62CHL1  H12A 5726   1.688   1.355   3.420  0.5954  1.5121  0.3502
   62CHL1  H12B 5727   1.820   1.439   3.327 -0.2427 -0.0010 -0.6888
   62CHL1   C11 5728   1.677   1.321   3.205  0.1057 -0.6156  0.3420
   62CHL1  H11A 5729   1.596   1.250   3.231 -0.8412  0.1132 -0.5661
   62CHL1  H11B 5730   1.637   1.423   3.184  2.2779  0.2201  0.0784
   62CHL1    C9 5731   1.772   1.272   3.089 -0.0937  0.1288 -1.0053
   62CHL1    H9 5732   1.843   1.357   3.083  0.7333 -0.4190  0.7600
   62CHL1   C10 5733   1.695   1.247   2.961  0.4147  0.1905 -0.4721
   62CHL1   C19 5734   1.584   1.143   2.975  0.3944 -0.1671  0.4936
   62CHL1  H19A 5735   1.626   1.045   3.008  3.2351  1.3387  1.5665
   62CHL1  H19B 5736   1.500   1.176   3.040 -0.3721 -1.5100  0.1983
   62CHL1  H19C 5737   1.528   1.124   2.881  2.1407 -0.1328 -0.5651
   62CHL1    C1 5738   1.634   1.377   2.908  0.1004  0.9241  0.3917
   62CHL1   H1A 5739   1.555   1.411   2.979 -0.0180  1.0775  0.1866
   62CHL1   H1B 5740   1.719   1.448   2.918 -0.0651  1.2834 -0.7297
   62CHL1    C2 5741   1.581   1.376   2.764  0.2216  0.1805 -0.0118
   62CHL1   H2A 5742   1.554   1.481   2.743 -4.6234 -0.7395  1.0359
   62CHL1   H2B 5743   1.489   1.315   2.746 -0.7964  1.3274  1.2966
   62CHL1   C20 5744   1.942   1.272   3.630 -0.2474 -0.6261 -0.6125
   62CHL1   H20 5745   1.931   1.169   3.669 -1.7568  0.6819  2.6107
   62CHL1   C21 5746   1.821   1.359   3.659  0.2698 -0.2117  0.6968
   62CHL1  H21A 5747   1.728   1.306   3.627  0.6881 -1.0274  0.8135
   62CHL1  H21B 5748   1.834   1.462   3.619 -2.1335 -0.2364 -0.2529
   62CHL1  H21C 5749   1.819   1.382   3.767 -1.6775  0.8858  0.4516
   62CHL1   C22 5750   2.055   1.325   3.715 -0.1906  0.1207 -0.4373
   62CHL1  H22A 5751   2.148   1.273   3.683 -0.2329  0.3733 -0.9877
   62CHL1  H22B 5752   2.080   1.430   3.687 -0.2086  0.0280 -0.8043
   62CHL1   C23 5753   2.046   1.317   3.873  0.0637  0.9162  0.7693
   62CHL1  H23A 5754   1.957   1.364   3.920 -0.0660  1.0719  0.3728
   62CHL1  H23B 5755   2.047   1.208   3.892  0.5842  0.6590 -0.6472
   62CHL1   C24 5756   2.171   1.380   3.935  0.4569  0.8921  0.1216
   62CHL1  H24A 5757   2.264   1.346   3.884  0.1431 -1.2485  0.9226
   62CHL1  H24B 5758   2.167   1.491   3.926 -2.1808  0.7878 -0.4394
   62CHL1   C25 5759   2.187   1.359   4.089  0.7688  0.5238  0.3651
   62CHL1   H25 5760   2.224   1.257   4.108 -0.1601  0.2958  0.9870
   62CHL1   C26 5761   2.303   1.454   4.145 -0.2165  0.8198  0.0660
   62CHL1  H26A 5762   2.404   1.418   4.116  0.7832  0.6153  3.5228
   62CHL1  H26B 5763   2.270   1.553   4.106  1.5335  2.2978  2.2245
   62CHL1  H26C 5764   2.312   1.466   4.255 -0.3163  1.5530 -0.0019
   62CHL1   C27 5765   2.053   1.377   4.164  0.4144  0.1817 -0.5769
   62CHL1  H27A 5766   1.994   1.459   4.117  0.7879  0.3585 -0.7402
   62CHL1  H27B 5767   1.995   1.284   4.176 -0.9978  1.1756  0.4191
   62CHL1  H27C 5768   2.087   1.405   4.266  0.2870  0.6925 -0.6712
   63CHL1    C3 5769   6.422   4.711   2.518  0.2867 -0.6196  0.0498
   63CHL1    H3 5770   6.346   4.754   2.587 -0.1056 -1.5689  0.2151
   63CHL1    O3 5771   6.437   4.780   2.399 -0.0075  0.1001  0.5883
   63CHL1   H3' 5772   6.351   4.774   2.356 -1.3609  3.3308  2.6555
   63CHL1    C4 5773   6.555   4.720   2.606 -0.4963  0.4698  0.2365
   63CHL1   H4A 5774   6.639   4.681   2.545  0.1211  1.4342  0.4559
   63CHL1   H4B 5775   6.582   4.827   2.618  0.8726  0.1080  0.4865
   63CHL1    C5 5776   6.545   4.647   2.739  0.3274  0.3602  0.1892
   63CHL1    C6 5777   6.553   4.714   2.855  0.1974  0.1413  0.6456
   63CHL1    H6 5778   6.593   4.816   2.869 -1.3058  0.7169  0.7717
   63CHL1    C7 5779   6.534   4.662   2.988  0.1241 -0.1685  0.0227
   63CHL1   H7A 5780   6.617   4.695   3.055  0.7339  0.2431 -0.9215
   63CHL1   H7B 5781   6.442   4.703   3.035  0.1187  1.5782 -1.4383
   63CHL1    C8 5782   6.535   4.505   2.985  0.4168 -0.6235 -0.3104
   63CHL1    H8 5783   6.638   4.469   2.970  0.3444 -1.0438  0.1748
   63CHL1   C14 5784   6.471   4.455   3.111  0.3331  0.0929 -0.5698
   63CHL1   H14 5785   6.367   4.493   3.100  0.4987  0.4353 -0.9655
   63CHL1   C15 5786   6.525   4.507   3.249 -0.2363  1.0783  0.0972
   63CHL1  H15A 5787   6.635   4.507   3.261 -0.1578 -1.5357 -0.2610
   63CHL1  H15B 5788   6.482   4.608   3.265  0.6212  1.1862  1.7799
   63CHL1   C16 5789   6.472   4.408   3.345 -0.3942 -0.1335 -0.7183
   63CHL1  H16A 5790   6.553   4.367   3.408 -0.5670  0.7741  0.1180
   63CHL1  H16B 5791   6.396   4.452   3.414 -0.1961  0.2858 -0.7638
   63CHL1   C17 5792   6.393   4.291   3.268 -0.2996 -0.1321  0.2235
   63CHL1   H17 5793   6.287   4.317   3.250  0.3659  1.0436 -2.2681
   63CHL1   C13 5794   6.462   4.300   3.124  0.3635 -0.0507 -0.4101
   63CHL1   C18 5795   6.600   4.231   3.130 -0.1758 -0.1369  0.4099
   63CHL1  H18A 5796   6.581   4.124   3.153 -3.8965  0.4118  0.2444
   63CHL1  H18B 5797   6.648   4.230   3.030 -0.0144 -0.5209  0.4911
   63CHL1  H18C 5798   6.674   4.280   3.197 -1.4314 -0.2159  1.8900
   63CHL1   C12 5799   6.380   4.254   3.009 -0.0098 -0.3018 -0.3407
   63CHL1  H12A 5800   6.369   4.144   2.999  0.2159 -0.6346  2.5226
   63CHL1  H12B 5801   6.277   4.296   3.010 -0.0664 -0.2710 -3.2540
   63CHL1   C11 5802   6.431   4.297   2.875 -0.4739 -0.3965 -0.8401
   63CHL1  H11A 5803   6.522   4.234   2.862  0.4846  1.0389 -1.2378
   63CHL1  H11B 5804   6.367   4.271   2.788 -0.4080 -2.9412 -0.1652
   63CHL1    C9 5805   6.452   4.449   2.864  0.4460  0.3714 -0.0413
   63CHL1    H9 5806   6.355   4.500   2.886  1.3898  1.7595  1.0270
   63CHL1   C10 5807   6.499   4.500   2.723  0.0498  0.1115  0.8635
   63CHL1   C19 5808   6.627   4.418   2.679  1.0499 -0.4414 -0.0353
   63CHL1  H19A 5809   6.705   4.433   2.757 -1.1771  0.0745  2.1548
   63CHL1  H19B 5810   6.599   4.311   2.677 -2.5858  0.4260  0.6047
   63CHL1  H19C 5811   6.670   4.458   2.584  1.6126 -0.2184  0.3099
   63CHL1    C1 5812   6.389   4.472   2.617 -0.1008 -0.1425  0.3630
   63CHL1   H1A 5813   6.367   4.364   2.601 -0.4277 -0.2271  1.3566
   63CHL1   H1B 5814   6.301   4.496   2.680 -1.0404 -1.1206 -0.5602
   63CHL1    C2 5815   6.385   4.561   2.491 -0.1635  0.1648  0.0773
   63CHL1   H2A 5816   6.282   4.558   2.448  0.2860 -0.9930 -0.9499
   63CHL1   H2B 5817   6.443   4.508   2.412 -0.8616  2.0401 -1.7443
   63CHL1   C20 5818   6.408   4.165   3.351 -0.0915  0.2798  0.5408
   63CHL1   H20 5819   6.511   4.124   3.347 -1.0870 -2.3011  0.2475
   63CHL1   C21 5820   6.311   4.058   3.289  0.1196 -0.0448 -0.4856
   63CHL1  H21A 5821   6.330   3.960   3.338 -1.2715 -0.0381  0.1110
   63CHL1  H21B 5822   6.326   4.032   3.183  0.6016 -0.5475 -0.2965
   63CHL1  H21C 5823   6.204   4.087   3.304  0.3535 -0.6940  2.8000
   63CHL1   C22 5824   6.373   4.179   3.496  0.2995  0.5592  0.1494
   63CHL1  H22A 5825   6.422   4.269   3.541 -0.8745  0.1351  2.3542
   63CHL1  H22B 5826   6.263   4.197   3.499  0.2070 -0.1202  1.2034
   63CHL1   C23 5827   6.413   4.060   3.593  0.0218  0.0988  0.3225
   63CHL1  H23A 5828   6.355   3.967   3.571 -0.0106  0.8324 -2.8694
   63CHL1  H23B 5829   6.521   4.036   3.584 -0.1143 -0.0473 -1.0760
   63CHL1   C24 5830   6.386   4.087   3.740 -0.3186  0.2296 -0.0557
   63CHL1  H24A 5831   6.279   4.108   3.758  0.0940  2.5375 -0.1076
   63CHL1  H24B 5832   6.423   3.994   3.787  2.9070  0.8440 -1.1728
   63CHL1   C25 5833   6.460   4.200   3.807  0.3590 -0.8059 -0.5301
   63CHL1   H25 5834   6.409   4.297   3.787  0.9699 -0.3069  0.2608
   63CHL1   C26 5835   6.440   4.199   3.961 -0.5222 -0.6485 -0.8018
   63CHL1  H26A 5836   6.481   4.291   4.006  1.8402 -1.5384 -1.0588
   63CHL1  H26B 5837   6.331   4.193   3.984 -0.4182 -1.6729 -0.5288
   63CHL1  H26C 5838   6.489   4.107   4.001 -3.5686 -1.4587  1.2725
   63CHL1   C27 5839   6.602   4.219   3.776 -0.4591 -0.8428  0.0669
   63CHL1  H27A 5840   6.622   4.242   3.669 -1.7137  2.2584  0.4349
   63CHL1  H27B 5841   6.646   4.307   3.828 -1.8263  0.6813 -1.3092
   63CHL1  H27C 5842   6.666   4.132   3.800  0.2164 -0.3640  0.0326
   64CHL1    C3 5843   1.764   6.511   2.501 -0.1306  0.0915  0.1254
   64CHL1    H3 5844   1.785   6.417   2.446  0.9211  1.0772 -1.2040
   64CHL1    O3 5845   1.805   6.618   2.412  0.6117 -0.0582 -0.3488
   64CHL1   H3' 5846   1.779   6.701   2.453  0.7575 -0.8232  1.3706
   64CHL1    C4 5847   1.614   6.516   2.536 -1.0823  0.3856  0.0776
   64CHL1   H4A 5848   1.607   6.620   2.573  2.2323  1.0958 -1.1563
   64CHL1   H4B 5849   1.560   6.506   2.439 -1.5976 -1.3333  0.5233
   64CHL1    C5 5850   1.567   6.411   2.636  0.4266 -0.4751 -0.0017
   64CHL1    C6 5851   1.460   6.326   2.611  0.6392 -0.4982  0.3577
   64CHL1    H6 5852   1.383   6.332   2.532  1.7861 -0.9824 -0.8192
   64CHL1    C7 5853   1.428   6.215   2.704  0.3796  0.1567 -0.5682
   64CHL1   H7A 5854   1.322   6.212   2.737  0.1439 -0.4897 -1.3745
   64CHL1   H7B 5855   1.437   6.114   2.660 -1.7953  0.2834 -1.3492
   64CHL1    C8 5856   1.499   6.218   2.846 -0.4983  0.3364 -0.4782
   64CHL1    H8 5857   1.457   6.298   2.910  1.4230  1.1717 -0.2412
   64CHL1   C14 5858   1.493   6.085   2.915 -0.5794 -0.0697 -0.4649
   64CHL1   H14 5859   1.550   6.013   2.854 -0.1959  0.6536 -0.9653
   64CHL1   C15 5860   1.356   6.013   2.923 -0.0495 -0.4677 -0.4868
   64CHL1  H15A 5861   1.269   6.078   2.945  0.5992  0.2584 -0.0129
   64CHL1  H15B 5862   1.332   5.954   2.831 -0.3100  0.6689 -1.1624
   64CHL1   C16 5863   1.383   5.910   3.035 -0.0182 -0.2162  0.4513
   64CHL1  H16A 5864   1.305   5.930   3.113  0.9621 -0.8777  1.6195
   64CHL1  H16B 5865   1.372   5.808   2.993 -1.3922  0.0218  0.2181
   64CHL1   C17 5866   1.531   5.935   3.095 -0.7499 -0.1176  0.8548
   64CHL1   H17 5867   1.592   5.862   3.037  0.9887  1.5407  0.5627
   64CHL1   C13 5868   1.562   6.083   3.055 -0.2496 -1.0438 -0.6174
   64CHL1   C18 5869   1.489   6.174   3.163  0.1314  0.1326  0.2047
   64CHL1  H18A 5870   1.514   6.166   3.271 -0.3589 -0.4965  0.2727
   64CHL1  H18B 5871   1.504   6.280   3.133 -0.7197 -0.6159 -3.0172
   64CHL1  H18C 5872   1.385   6.144   3.142  1.2649 -4.4620  0.7849
   64CHL1   C12 5873   1.706   6.114   3.037 -0.0927 -0.2916  0.1587
   64CHL1  H12A 5874   1.768   6.116   3.129  1.7640 -2.3977 -0.9918
   64CHL1  H12B 5875   1.745   6.033   2.971 -0.1281 -0.2459  0.0806
   64CHL1   C11 5876   1.723   6.247   2.960 -0.0991 -0.0742  0.9292
   64CHL1  H11A 5877   1.697   6.335   3.022  0.2517  0.3502  0.4710
   64CHL1  H11B 5878   1.833   6.249   2.947  0.0463 -0.9174  1.9205
   64CHL1    C9 5879   1.645   6.259   2.824  0.4996  1.1111 -0.0253
   64CHL1    H9 5880   1.683   6.181   2.755 -0.3959  0.9418 -0.3320
   64CHL1   C10 5881   1.655   6.395   2.758 -0.1252  0.1059  0.0776
   64CHL1   C19 5882   1.604   6.507   2.852  0.0636 -0.4953 -0.6981
   64CHL1  H19A 5883   1.500   6.487   2.887 -0.2774  0.0305 -1.4034
   64CHL1  H19B 5884   1.675   6.508   2.938  0.5217  1.0903 -1.0843
   64CHL1  H19C 5885   1.621   6.608   2.809  3.7784  0.2688  2.3141
   64CHL1    C1 5886   1.805   6.418   2.718  0.0109  0.3455  0.0173
   64CHL1   H1A 5887   1.872   6.405   2.806 -0.7774 -1.4807  0.3816
   64CHL1   H1B 5888   1.828   6.318   2.675 -2.6828 -1.2928  2.1677
   64CHL1    C2 5889   1.844   6.532   2.634 -0.6949 -0.5041 -0.3090
   64CHL1   H2A 5890   1.948   6.539   2.597 -1.0271  0.9345 -0.9904
   64CHL1   H2B 5891   1.821   6.629   2.683 -3.6664 -1.1507 -0.3286
   64CHL1   C20 5892   1.546   5.882   3.230  0.0854  0.0192 -0.7709
   64CHL1   H20 5893   1.473   5.928   3.300  1.5236 -0.8618  1.3461
   64CHL1   C21 5894   1.684   5.908   3.292  0.3916  0.3200 -0.0042
   64CHL1  H21A 5895   1.766   5.851   3.242 -0.5439 -1.1220  0.0636
   64CHL1  H21B 5896   1.697   5.867   3.394 -0.7310  1.5190  0.6182
   64CHL1  H21C 5897   1.711   6.016   3.286  0.8510  0.2405  0.5697
   64CHL1   C22 5898   1.514   5.732   3.235 -0.5597 -0.0317  0.1291
   64CHL1  H22A 5899   1.421   5.703   3.181 -0.2737 -0.6620 -0.0278
   64CHL1  H22B 5900   1.594   5.667   3.194  1.2294  1.7286  0.7382
   64CHL1   C23 5901   1.470   5.672   3.377 -0.0956  0.1460  0.1590
   64CHL1  H23A 5902   1.533   5.723   3.453  0.0874 -1.1246  0.8762
   64CHL1  H23B 5903   1.364   5.701   3.394 -0.0579 -0.0245  0.7142
   64CHL1   C24 5904   1.500   5.522   3.387  0.2599 -0.2055  0.1773
   64CHL1  H24A 5905   1.489   5.465   3.291  0.7926  0.2172 -0.1360
   64CHL1  H24B 5906   1.607   5.509   3.414 -0.0661 -0.7374  1.2401
   64CHL1   C25 5907   1.411   5.436   3.490  0.0974  0.0107 -0.7319
   64CHL1   H25 5908   1.482   5.358   3.524 -0.1126  0.0150 -0.2827
   64CHL1   C26 5909   1.365   5.524   3.614 -0.5288  0.2479 -0.1270
   64CHL1  H26A 5910   1.315   5.459   3.689  2.0497 -0.3525  1.1290
   64CHL1  H26B 5911   1.448   5.588   3.649  0.1549  0.3140 -1.8249
   64CHL1  H26C 5912   1.294   5.602   3.579 -0.0060 -0.2581 -2.4154
   64CHL1   C27 5913   1.289   5.371   3.421 -0.0908  0.0763 -0.2260
   64CHL1  H27A 5914   1.313   5.322   3.324 -0.3776 -0.0019 -0.2603
   64CHL1  H27B 5915   1.226   5.307   3.488 -0.4778 -0.4268 -1.0591
   64CHL1  H27C 5916   1.231   5.461   3.390 -0.7635 -0.2966 -0.0803
   65CHL1    C3 5917   1.045   1.624   2.591  0.2301  0.5727  0.0589
   65CHL1    H3 5918   1.016   1.716   2.646 -0.1545  1.0013 -0.8529
   65CHL1    O3 5919   1.058   1.654   2.453  0.2727 -0.1693 -0.8183
   65CHL1   H3' 5920   1.063   1.571   2.405  0.2267 -1.7769  1.8592
   65CHL1    C4 5921   1.179   1.574   2.639 -0.0843  0.2314  0.1013
   65CHL1   H4A 5922   1.207   1.497   2.564 -0.6787  0.0049  0.1106
   65CHL1   H4B 5923   1.246   1.663   2.632 -0.4216  0.6032  1.5138
   65CHL1    C5 5924   1.172   1.522   2.782  0.8614  0.1935  0.9111
   65CHL1    C6 5925   1.254   1.570   2.871 -0.3860 -0.0783 -0.1355
   65CHL1    H6 5926   1.333   1.642   2.842 -2.2509  0.6597 -3.6336
   65CHL1    C7 5927   1.261   1.511   3.011  0.2884 -0.2511  0.4899
   65CHL1   H7A 5928   1.361   1.489   3.055  0.0740 -3.0941 -0.3412
   65CHL1   H7B 5929   1.220   1.584   3.083 -1.5725 -1.8797  1.1110
   65CHL1    C8 5930   1.180   1.383   3.035 -0.2456  0.5343  0.3278
   65CHL1    H8 5931   1.225   1.294   2.987 -2.4336 -0.9688  0.9818
   65CHL1   C14 5932   1.159   1.358   3.189  0.3251 -0.7094 -0.8962
   65CHL1   H14 5933   1.095   1.441   3.225  2.3807 -0.1950  1.7229
   65CHL1   C15 5934   1.287   1.353   3.284 -0.1486 -0.2685 -0.1280
   65CHL1  H15A 5935   1.363   1.283   3.243  0.5860  0.6569 -0.3623
   65CHL1  H15B 5936   1.330   1.455   3.289 -0.2353 -0.3086  1.8450
   65CHL1   C16 5937   1.237   1.295   3.409  0.8909  0.2461  0.0928
   65CHL1  H16A 5938   1.298   1.209   3.444 -1.9063 -1.8028  0.1115
   65CHL1  H16B 5939   1.218   1.362   3.495  0.6985  0.5055 -0.1507
   65CHL1   C17 5940   1.089   1.234   3.380  0.4693  0.4497  0.2519
   65CHL1   H17 5941   1.022   1.317   3.413 -0.0141  0.1465  0.0493
   65CHL1   C13 5942   1.084   1.227   3.221 -0.4134 -0.2357  0.2055
   65CHL1   C18 5943   1.155   1.107   3.172 -0.4561  0.2615 -0.5380
   65CHL1  H18A 5944   1.161   1.096   3.062 -0.4487  2.0182 -0.7215
   65CHL1  H18B 5945   1.251   1.092   3.226 -1.7626  0.5171  1.9136
   65CHL1  H18C 5946   1.090   1.021   3.200 -2.7083  2.6293  1.7732
   65CHL1   C12 5947   0.943   1.247   3.157  0.0123  0.1623 -0.2310
   65CHL1  H12A 5948   0.882   1.156   3.174  2.1509 -1.1680  0.4573
   65CHL1  H12B 5949   0.897   1.335   3.206 -0.2764  0.8643 -1.7127
   65CHL1   C11 5950   0.952   1.272   3.002 -0.2380  0.4917  0.0301
   65CHL1  H11A 5951   1.002   1.179   2.968  0.3875  0.5760  0.7009
   65CHL1  H11B 5952   0.856   1.293   2.951 -0.7257 -1.1629  0.2551
   65CHL1    C9 5953   1.046   1.389   2.966  0.1978  0.4367 -1.0494
   65CHL1    H9 5954   1.003   1.482   3.011  2.9464  0.3429  1.9707
   65CHL1   C10 5955   1.057   1.416   2.816 -0.5224  0.1602  1.5305
   65CHL1   C19 5956   1.113   1.286   2.741  0.4742 -0.5110  0.1580
   65CHL1  H19A 5957   1.050   1.195   2.750 -1.2177  0.5271 -0.9953
   65CHL1  H19B 5958   1.127   1.316   2.635 -0.0404  0.8797  0.4649
   65CHL1  H19C 5959   1.216   1.258   2.773  1.6302  1.6194 -1.6085
   65CHL1    C1 5960   0.926   1.465   2.745 -0.0066  0.3589 -0.0203
   65CHL1   H1A 5961   0.853   1.381   2.746  1.3621 -0.8394  2.0186
   65CHL1   H1B 5962   0.884   1.536   2.819  1.2015  0.9430  0.1211
   65CHL1    C2 5963   0.932   1.522   2.604 -0.5266  0.1554  0.4948
   65CHL1   H2A 5964   0.838   1.573   2.574  0.9597  1.8828 -1.3733
   65CHL1   H2B 5965   0.953   1.435   2.539  2.1574  0.9056  0.3116
   65CHL1   C20 5966   1.051   1.117   3.472  1.0121  0.1825 -0.0333
   65CHL1   H20 5967   1.107   1.027   3.437 -0.0040  0.3044 -2.0533
   65CHL1   C21 5968   0.911   1.057   3.453 -0.2132  0.3911  0.0898
   65CHL1  H21A 5969   0.823   1.123   3.466  1.5682  2.5140  1.9756
   65CHL1  H21B 5970   0.897   0.979   3.531  2.4014  0.0806  0.3034
   65CHL1  H21C 5971   0.894   1.003   3.358 -0.2297 -0.8644  0.7933
   65CHL1   C22 5972   1.089   1.150   3.622 -0.3858 -0.1458  0.6706
   65CHL1  H22A 5973   1.182   1.206   3.645  0.7170 -1.3821 -0.7317
   65CHL1  H22B 5974   1.010   1.220   3.659  0.4212  0.6883  0.8392
   65CHL1   C23 5975   1.102   1.030   3.720 -0.5576  0.4075  0.0372
   65CHL1  H23A 5976   1.066   1.072   3.816  1.3764  1.4645  0.3400
   65CHL1  H23B 5977   1.039   0.946   3.685  0.1912 -0.0475 -0.2391
   65CHL1   C24 5978   1.250   0.977   3.724  0.7050  0.0075  0.2934
   65CHL1  H24A 5979   1.249   0.870   3.754 -2.1105 -0.1123 -0.1475
   65CHL1  H24B 5980   1.298   0.986   3.624  1.1473  1.0882  0.5885
   65CHL1   C25 5981   1.338   1.042   3.829 -0.3219 -0.2843 -0.3416
   65CHL1   H25 5982   1.322   1.152   3.823 -1.0230 -0.4576 -1.7838
   65CHL1   C26 5983   1.299   1.005   3.975 -0.3627  0.7990  0.3630
   65CHL1  H26A 5984   1.312   0.895   3.984 -3.1259  0.6239  2.9448
   65CHL1  H26B 5985   1.363   1.055   4.051 -0.3052  0.7143  0.3705
   65CHL1  H26C 5986   1.192   1.026   3.992 -1.6223 -2.4924 -2.7767
   65CHL1   C27 5987   1.486   1.019   3.807  0.4352 -0.1905  0.0123
   65CHL1  H27A 5988   1.513   1.039   3.701 -0.3319  0.7578 -0.0148
   65CHL1  H27B 5989   1.538   1.091   3.874 -0.3204  0.9637 -0.6063
   65CHL1  H27C 5990   1.522   0.915   3.819  1.8627  0.3722  0.7185
   66CHL1    C3 5991   7.110   2.583   2.470 -0.3586 -0.0834 -0.0852
   66CHL1    H3 5992   7.000   2.567   2.467 -0.3266  0.0176 -3.1423
   66CHL1    O3 5993   7.166   2.582   2.336  0.4425 -0.6869  0.1111
   66CHL1   H3' 5994   7.123   2.656   2.292 -1.8195 -2.4678 -0.7781
   66CHL1    C4 5995   7.143   2.719   2.527 -0.1528 -0.3441  0.6762
   66CHL1   H4A 5996   7.252   2.732   2.516 -0.4302  1.1723 -0.5338
   66CHL1   H4B 5997   7.095   2.789   2.455  1.6098 -0.6969 -0.8600
   66CHL1    C5 5998   7.104   2.745   2.673 -0.0234 -0.4383 -0.0716
   66CHL1    C6 5999   7.025   2.846   2.703 -0.3604 -0.1742  0.9088
   66CHL1    H6 6000   6.992   2.921   2.629 -0.1680 -0.3780  0.6167
   66CHL1    C7 6001   6.985   2.872   2.847  0.1449 -0.0048  0.5461
   66CHL1   H7A 6002   6.992   2.980   2.873 -0.3670  0.6712 -1.9542
   66CHL1   H7B 6003   6.878   2.844   2.853 -0.0598  0.7278  0.3609
   66CHL1    C8 6004   7.075   2.795   2.947  0.1903  0.3784 -0.0828
   66CHL1    H8 6005   7.172   2.849   2.954  0.2618  0.0584  1.5998
   66CHL1   C14 6006   7.006   2.798   3.083 -0.3867  0.7583  0.5204
   66CHL1   H14 6007   6.908   2.746   3.083  0.9019 -1.7063  0.7120
   66CHL1   C15 6008   6.969   2.943   3.133 -0.5628  0.4151 -0.3559
   66CHL1  H15A 6009   7.064   3.000   3.131 -1.3252  1.7433  0.3868
   66CHL1  H15B 6010   6.890   2.998   3.078  0.0905  0.9515 -0.7661
   66CHL1   C16 6011   6.945   2.917   3.283 -0.3536  0.4583  0.0722
   66CHL1  H16A 6012   7.000   2.998   3.335  0.8489  0.0658 -0.5801
   66CHL1  H16B 6013   6.836   2.918   3.307 -0.3489 -1.2252  0.2178
   66CHL1   C17 6014   6.999   2.768   3.307  0.1807  0.2049  0.3625
   66CHL1   H17 6015   6.911   2.701   3.302 -0.1575  0.7862 -1.9314
   66CHL1   C13 6016   7.086   2.719   3.190  0.4982  0.6680 -0.3981
   66CHL1   C18 6017   7.226   2.777   3.220 -0.0703 -0.0153  0.1749
   66CHL1  H18A 6018   7.212   2.886   3.235 -2.2585 -0.3258  0.6467
   66CHL1  H18B 6019   7.287   2.736   3.303  1.8974  0.3730 -1.0575
   66CHL1  H18C 6020   7.296   2.782   3.134  1.4649  2.7244  1.5517
   66CHL1   C12 6021   7.073   2.571   3.162 -0.9311 -0.5806  0.0594
   66CHL1  H12A 6022   7.136   2.510   3.231 -0.2308  0.8849  0.7291
   66CHL1  H12B 6023   6.973   2.525   3.176 -2.0258  1.0395 -2.1450
   66CHL1   C11 6024   7.128   2.550   3.019  0.2238 -0.6934  0.6687
   66CHL1  H11A 6025   7.237   2.569   3.024  0.1199 -0.3717  1.7208
   66CHL1  H11B 6026   7.124   2.444   2.984 -1.1015 -0.7225  0.8508
   66CHL1    C9 6027   7.077   2.647   2.910 -0.1215  1.0622  0.8271
   66CHL1    H9 6028   6.971   2.618   2.896  0.7437 -3.5048  2.6712
   66CHL1   C10 6029   7.153   2.642   2.774  0.6591  0.4677 -0.2173
   66CHL1   C19 6030   7.310   2.666   2.799 -0.1009 -0.2591  0.0084
   66CHL1  H19A 6031   7.329   2.754   2.864 -0.4770  0.1812 -0.4714
   66CHL1  H19B 6032   7.349   2.586   2.865  0.1114 -1.8301 -1.9956
   66CHL1  H19C 6033   7.370   2.677   2.706  0.5843 -2.2823  0.1888
   66CHL1    C1 6034   7.141   2.497   2.708 -0.3155 -0.4291  0.0216
   66CHL1   H1A 6035   7.207   2.426   2.761 -0.5338  0.6090  1.6887
   66CHL1   H1B 6036   7.035   2.465   2.723  0.5072 -2.4206  1.8418
   66CHL1    C2 6037   7.175   2.474   2.556  0.2328 -0.3178 -0.6746
   66CHL1   H2A 6038   7.151   2.372   2.518  0.4511 -0.9392  0.8099
   66CHL1   H2B 6039   7.285   2.491   2.553  0.1331  0.6869  0.7273
   66CHL1   C20 6040   7.049   2.758   3.452 -0.0565  0.1322 -0.3971
   66CHL1   H20 6041   7.134   2.829   3.460 -0.6492  0.9498 -1.1922
   66CHL1   C21 6042   7.090   2.611   3.478  0.1136  0.4882 -0.1355
   66CHL1  H21A 6043   7.175   2.563   3.426  1.0596  2.0911 -0.0830
   66CHL1  H21B 6044   7.012   2.535   3.453  0.4068 -0.2816  1.2168
   66CHL1  H21C 6045   7.115   2.601   3.586 -1.5753 -0.3559  0.2064
   66CHL1   C22 6046   6.951   2.796   3.558  0.7148  0.2793 -0.2546
   66CHL1  H22A 6047   6.905   2.895   3.537  1.2198  0.4520 -0.5570
   66CHL1  H22B 6048   6.873   2.720   3.581  0.4824  1.2613  2.3275
   66CHL1   C23 6049   7.022   2.824   3.695  0.4010  0.3843 -0.0429
   66CHL1  H23A 6050   7.060   2.725   3.728 -0.2589  0.0820 -0.1823
   66CHL1  H23B 6051   7.100   2.901   3.677  1.0016 -0.5277 -1.4121
   66CHL1   C24 6052   6.932   2.884   3.807  0.6832  0.2005 -0.8200
   66CHL1  H24A 6053   6.873   2.975   3.785  1.8014  1.8630  2.5833
   66CHL1  H24B 6054   6.844   2.816   3.811 -0.0217  1.1121 -0.6794
   66CHL1   C25 6055   6.990   2.896   3.953 -0.0671  0.2476 -0.3371
   66CHL1   H25 6056   7.087   2.948   3.938  1.0833 -1.3105  1.5145
   66CHL1   C26 6057   6.882   2.971   4.034  0.1689  0.0456  0.7286
   66CHL1  H26A 6058   6.786   2.915   4.029  0.0104  0.5130 -3.0887
   66CHL1  H26B 6059   6.920   2.980   4.138  1.3673 -0.1056  0.3100
   66CHL1  H26C 6060   6.866   3.073   3.994  1.4181 -0.6560 -1.6405
   66CHL1   C27 6061   7.026   2.767   4.022 -0.3567  0.3314 -0.0835
   66CHL1  H27A 6062   7.066   2.796   4.122  1.4195 -0.7815 -0.4599
   66CHL1  H27B 6063   7.098   2.708   3.961 -1.9428  0.2621 -1.9230
   66CHL1  H27C 6064   6.941   2.695   4.027  0.4229 -0.6615 -1.0476
   67CHL1    C3 6065   4.602   7.124   2.516  0.0022 -0.2814  0.6329
   67CHL1    H3 6066   4.660   7.218   2.526 -1.5694  0.8442 -0.5623
   67CHL1    O3 6067   4.615   7.079   2.379  0.7121  0.3072  0.0885
   67CHL1   H3' 6068   4.603   6.984   2.387  1.3279  0.0355 -2.0136
   67CHL1    C4 6069   4.653   7.011   2.600  0.4042  0.1957  0.0793
   67CHL1   H4A 6070   4.612   6.911   2.576  0.1587 -0.2340  2.2033
   67CHL1   H4B 6071   4.763   7.004   2.588  0.5788 -0.8281  2.0475
   67CHL1    C5 6072   4.626   7.032   2.743  0.1115  0.7462  0.3816
   67CHL1    C6 6073   4.725   7.034   2.830 -0.1881 -0.2072 -0.1213
   67CHL1    H6 6074   4.827   7.013   2.793  1.4804 -0.9402  4.5963
   67CHL1    C7 6075   4.715   7.059   2.978  0.2009 -0.4592  0.1018
   67CHL1   H7A 6076   4.777   6.991   3.041  0.2493  0.9081  1.5393
   67CHL1   H7B 6077   4.740   7.163   3.006 -1.6293  0.2989 -0.9893
   67CHL1    C8 6078   4.571   7.045   3.034  0.1120  0.0037  0.3526
   67CHL1    H8 6079   4.545   6.937   3.039  1.0610 -0.2537 -0.0281
   67CHL1   C14 6080   4.551   7.107   3.179 -0.5268  0.0020  0.1303
   67CHL1   H14 6081   4.568   7.215   3.158  0.7448 -0.2828 -0.3260
   67CHL1   C15 6082   4.652   7.067   3.285  0.5860  0.0445 -0.4767
   67CHL1  H15A 6083   4.685   6.962   3.270  0.3719 -0.1968  0.7293
   67CHL1  H15B 6084   4.748   7.123   3.284  0.6963 -0.0571  2.0277
   67CHL1   C16 6085   4.576   7.090   3.417 -0.2895  0.0151  0.6763
   67CHL1  H16A 6086   4.580   6.986   3.457  0.7390  0.0040  0.5748
   67CHL1  H16B 6087   4.630   7.161   3.483 -0.4520 -0.2717  1.1211
   67CHL1   C17 6088   4.433   7.144   3.375  0.3686  0.0615 -1.0963
   67CHL1   H17 6089   4.449   7.253   3.372  2.0801 -0.1485 -0.4438
   67CHL1   C13 6090   4.414   7.089   3.234  0.5503 -0.8929  0.1482
   67CHL1   C18 6091   4.388   6.934   3.246 -0.0291 -0.4167 -0.2120
   67CHL1  H18A 6092   4.288   6.909   3.286  0.6127 -0.5438  1.3578
   67CHL1  H18B 6093   4.397   6.886   3.147  4.4626 -0.1852 -0.0611
   67CHL1  H18C 6094   4.459   6.882   3.315 -1.4763 -0.3511  1.3767
   67CHL1   C12 6095   4.300   7.151   3.145 -0.6623 -0.9344 -0.3673
   67CHL1  H12A 6096   4.199   7.122   3.180 -2.0683  1.9303 -1.8800
   67CHL1  H12B 6097   4.303   7.261   3.129 -0.1332 -1.0475 -1.0920
   67CHL1   C11 6098   4.315   7.104   2.997 -0.2339  0.1779  0.1938
   67CHL1  H11A 6099   4.287   6.997   2.993  1.2507 -0.1664 -1.3564
   67CHL1  H11B 6100   4.248   7.174   2.943 -0.7564 -0.1078  0.4660
   67CHL1    C9 6101   4.462   7.112   2.942 -0.2876  0.0512  0.4736
   67CHL1    H9 6102   4.493   7.218   2.933  1.5966 -0.4098  1.3632
   67CHL1   C10 6103   4.476   7.059   2.787 -0.5038 -0.7156  0.1926
   67CHL1   C19 6104   4.401   6.924   2.766 -0.1611  0.8360  0.1125
   67CHL1  H19A 6105   4.293   6.940   2.786 -0.7671 -1.3935 -1.1771
   67CHL1  H19B 6106   4.421   6.881   2.665  0.7090 -1.2242  1.1193
   67CHL1  H19C 6107   4.446   6.846   2.831 -1.3813  0.1745  0.1895
   67CHL1    C1 6108   4.415   7.166   2.683 -0.6718  0.0196  0.0478
   67CHL1   H1A 6109   4.305   7.162   2.699 -0.8180  0.9865 -0.7141
   67CHL1   H1B 6110   4.439   7.271   2.712 -0.8847 -0.8380  3.6503
   67CHL1    C2 6111   4.451   7.153   2.530 -0.0229 -0.1073  0.8529
   67CHL1   H2A 6112   4.439   7.252   2.481  0.1087 -0.1903  0.6537
   67CHL1   H2B 6113   4.395   7.071   2.480  1.6805 -1.0007  0.3891
   67CHL1   C20 6114   4.324   7.115   3.482 -0.3531 -0.4553 -0.1485
   67CHL1   H20 6115   4.328   7.006   3.501  0.3434 -0.0772  2.0316
   67CHL1   C21 6116   4.187   7.182   3.445 -0.0735  0.4579 -0.1860
   67CHL1  H21A 6117   4.200   7.275   3.387 -2.3346  0.5184 -0.6181
   67CHL1  H21B 6118   4.127   7.203   3.536  0.5800  0.5149  0.2354
   67CHL1  H21C 6119   4.123   7.117   3.382  0.2106  1.0155 -1.0646
   67CHL1   C22 6120   4.368   7.167   3.629 -0.0123 -0.1184 -0.3038
   67CHL1  H22A 6121   4.469   7.132   3.661 -1.3344 -2.0882  1.8183
   67CHL1  H22B 6122   4.370   7.278   3.632 -0.5759 -0.0609 -1.6064
   67CHL1   C23 6123   4.280   7.116   3.744 -0.0041 -0.5175 -0.1959
   67CHL1  H23A 6124   4.180   7.164   3.745  0.5666  0.7338 -1.7226
   67CHL1  H23B 6125   4.269   7.006   3.739 -0.2517 -0.5818  1.3690
   67CHL1   C24 6126   4.338   7.153   3.885 -0.4814  0.0855 -0.0864
   67CHL1  H24A 6127   4.411   7.070   3.894 -0.4129  0.3135  1.7183
   67CHL1  H24B 6128   4.393   7.249   3.872  1.8242 -1.4926 -2.4570
   67CHL1   C25 6129   4.245   7.142   4.009  0.4038 -0.0017  0.1172
   67CHL1   H25 6130   4.192   7.044   4.004  1.9144 -0.7958 -0.5237
   67CHL1   C26 6131   4.325   7.157   4.139 -0.4121  0.3449 -0.0420
   67CHL1  H26A 6132   4.263   7.131   4.227  0.5655  1.2947  0.9353
   67CHL1  H26B 6133   4.408   7.083   4.138 -1.3873 -0.7792 -0.0972
   67CHL1  H26C 6134   4.361   7.261   4.153  0.2750  0.1362 -0.2534
   67CHL1   C27 6135   4.138   7.250   3.999  0.7911 -0.8251 -0.0362
   67CHL1  H27A 6136   4.075   7.259   4.090  0.5311 -0.0479 -0.2879
   67CHL1  H27B 6137   4.191   7.346   3.982  2.2328 -1.5780  0.1801
   67CHL1  H27C 6138   4.070   7.226   3.914  0.6517  1.6688 -0.6715
   68CHL1    C3 6139   2.524   0.375   2.468  0.6763  0.0381  0.0310
   68CHL1    H3 6140   2.633   0.385   2.489  1.1136  1.0547 -2.5167
   68CHL1    O3 6141   2.499   0.432   2.347 -0.0034  0.1395 -0.5607
   68CHL1   H3' 6142   2.404   0.444   2.341 -0.0636 -0.4002 -0.7251
   68CHL1    C4 6143   2.502   0.220   2.457 -0.0095 -0.2320  0.4595
   68CHL1   H4A 6144   2.409   0.197   2.400 -0.2980 -0.7924  1.1509
   68CHL1   H4B 6145   2.586   0.179   2.397 -0.1289  0.2640 -0.0587
   68CHL1    C5 6146   2.513   0.162   2.594 -0.0412  0.1220  1.1701
   68CHL1    C6 6147   2.585   0.052   2.614  0.4911 -0.4625  0.1776
   68CHL1    H6 6148   2.640   0.015   2.526  0.4164 -1.2101  0.4473
   68CHL1    C7 6149   2.605  -0.032   2.736 -0.3681 -0.6666  0.4256
   68CHL1   H7A 6150   2.597  -0.142   2.723 -0.4802 -0.5026 -0.9242
   68CHL1   H7B 6151   2.710  -0.010   2.765 -0.0523  0.3810 -1.4594
   68CHL1    C8 6152   2.492   0.008   2.840 -0.0802 -0.8034  0.5067
   68CHL1    H8 6153   2.404  -0.034   2.786 -0.2978 -0.4917  0.6153
   68CHL1   C14 6154   2.518  -0.031   2.978  0.1628  0.2738 -0.1213
   68CHL1   H14 6155   2.597   0.037   3.016  3.3505 -1.5474 -3.2045
   68CHL1   C15 6156   2.577  -0.175   3.000  0.1228  0.1125 -0.7201
   68CHL1  H15A 6157   2.525  -0.243   2.930 -0.3432  1.8938 -2.1305
   68CHL1  H15B 6158   2.686  -0.175   2.977  0.1789  0.2140 -0.4697
   68CHL1   C16 6159   2.542  -0.202   3.142 -0.4541 -0.3914  0.0824
   68CHL1  H16A 6160   2.492  -0.301   3.141  1.0664 -1.1578 -2.1071
   68CHL1  H16B 6161   2.629  -0.217   3.209  1.1275  1.5452 -1.4680
   68CHL1   C17 6162   2.463  -0.081   3.204  0.6570  0.5071  0.2241
   68CHL1   H17 6163   2.538  -0.013   3.251  2.5053 -1.0493 -0.4300
   68CHL1   C13 6164   2.399  -0.017   3.079 -0.5002 -0.7216 -0.5848
   68CHL1   C18 6165   2.280  -0.104   3.031 -0.2147  0.1718 -0.3280
   68CHL1  H18A 6166   2.247  -0.086   2.926 -0.4696 -0.8986 -0.4383
   68CHL1  H18B 6167   2.311  -0.210   3.047  2.4689  1.1661  1.3353
   68CHL1  H18C 6168   2.199  -0.085   3.104 -0.7855 -1.2159 -0.5870
   68CHL1   C12 6169   2.366   0.128   3.083  0.4473  0.4733 -0.6523
   68CHL1  H12A 6170   2.272   0.139   3.141  0.6124  0.2343 -0.3373
   68CHL1  H12B 6171   2.446   0.180   3.140  0.1281 -1.4187  1.6276
   68CHL1   C11 6172   2.345   0.195   2.945  0.0837  0.2963 -0.1402
   68CHL1  H11A 6173   2.248   0.148   2.919  0.7095 -1.5182  0.6929
   68CHL1  H11B 6174   2.330   0.305   2.945  0.5154  0.3579  0.5266
   68CHL1    C9 6175   2.460   0.162   2.847  0.4234  0.3635 -0.3463
   68CHL1    H9 6176   2.548   0.214   2.889 -0.3636  0.4019  1.3310
   68CHL1   C10 6177   2.427   0.223   2.710  0.2928 -0.1039  0.8392
   68CHL1   C19 6178   2.286   0.186   2.670  0.6061 -0.1124 -0.0430
   68CHL1  H19A 6179   2.267   0.189   2.561  2.7707  0.1100 -0.4237
   68CHL1  H19B 6180   2.252   0.088   2.710 -1.6217  0.7943  0.3556
   68CHL1  H19C 6181   2.219   0.261   2.718 -0.4734 -0.0485 -1.6373
   68CHL1    C1 6182   2.453   0.378   2.711 -0.0474  0.6065  0.9609
   68CHL1   H1A 6183   2.383   0.431   2.779  0.8277  0.5257  1.9283
   68CHL1   H1B 6184   2.555   0.402   2.749  0.2796  0.6410  0.0718
   68CHL1    C2 6185   2.439   0.448   2.575  0.0876  0.0453  0.0411
   68CHL1   H2A 6186   2.470   0.555   2.579  0.0327  0.1878 -2.4845
   68CHL1   H2B 6187   2.335   0.452   2.538  0.2957 -1.4089 -0.7571
   68CHL1   C20 6188   2.378  -0.124   3.327 -0.1386 -0.2402  0.1277
   68CHL1   H20 6189   2.305  -0.205   3.303  0.5471 -1.0531  0.7356
   68CHL1   C21 6190   2.306   0.001   3.384  0.2773 -0.2762  0.6605
   68CHL1  H21A 6191   2.376   0.080   3.419 -0.9378  0.6988  0.9644
   68CHL1  H21B 6192   2.235  -0.025   3.466 -2.6455  3.9629 -0.3520
   68CHL1  H21C 6193   2.243   0.048   3.306  1.6459  0.3172 -0.0977
   68CHL1   C22 6194   2.462  -0.182   3.441 -0.4091  0.7235 -0.7306
   68CHL1  H22A 6195   2.540  -0.252   3.404 -0.7151  0.0367 -0.1016
   68CHL1  H22B 6196   2.511  -0.105   3.504  0.8290  1.5737 -2.7253
   68CHL1   C23 6197   2.387  -0.275   3.533  0.2542 -0.0702 -0.1582
   68CHL1  H23A 6198   2.301  -0.218   3.573  1.4589  1.9980 -0.4627
   68CHL1  H23B 6199   2.345  -0.354   3.466  0.0992 -0.3833  0.3041
   68CHL1   C24 6200   2.469  -0.336   3.640 -0.1365  0.1888 -0.2565
   68CHL1  H24A 6201   2.558  -0.388   3.596  0.1712  0.1649  0.3913
   68CHL1  H24B 6202   2.519  -0.268   3.712  0.3576  2.0519 -2.2916
   68CHL1   C25 6203   2.396  -0.445   3.729 -0.2176  0.1788  0.3489
   68CHL1   H25 6204   2.351  -0.524   3.666 -1.1187  0.4536  0.6463
   68CHL1   C26 6205   2.478  -0.512   3.837 -0.0597 -0.9253 -0.4985
   68CHL1  H26A 6206   2.578  -0.528   3.791  0.6286 -0.2964  0.7422
   68CHL1  H26B 6207   2.497  -0.443   3.923 -2.6192  0.6790 -1.1585
   68CHL1  H26C 6208   2.425  -0.604   3.869 -0.3661 -0.2366  1.0349
   68CHL1   C27 6209   2.278  -0.383   3.800 -0.3634  0.3931 -0.1131
   68CHL1  H27A 6210   2.324  -0.307   3.867 -2.0777  0.6728  0.7783
   68CHL1  H27B 6211   2.207  -0.329   3.734 -0.0844  2.3671  1.1696
   68CHL1  H27C 6212   2.225  -0.462   3.857  2.4437 -0.8559  0.8520
   69CHL1    C3 6213   5.812   7.047   2.480 -0.0651  0.4677  0.5429
   69CHL1    H3 6214   5.856   6.948   2.501 -0.2629 -0.1314 -1.7230
   69CHL1    O3 6215   5.812   7.063   2.341  0.2638 -0.0804 -0.0569
   69CHL1   H3' 6216   5.750   7.133   2.317  0.1817 -0.3013 -0.4765
   69CHL1    C4 6217   5.677   7.056   2.543 -0.1237 -0.8557  0.2148
   69CHL1   H4A 6218   5.622   7.146   2.511 -2.1532 -1.8424  0.8767
   69CHL1   H4B 6219   5.621   6.977   2.488 -0.3071 -1.8826  1.8319
   69CHL1    C5 6220   5.673   7.050   2.693 -0.6004  0.0950 -0.4456
   69CHL1    C6 6221   5.607   6.959   2.762 -0.2742 -0.3402  0.9665
   69CHL1    H6 6222   5.571   6.869   2.710 -0.5459  0.4704 -0.2725
   69CHL1    C7 6223   5.596   6.954   2.911  0.5348 -0.0291  0.7254
   69CHL1   H7A 6224   5.487   6.946   2.934 -0.4019  0.4661 -3.1174
   69CHL1   H7B 6225   5.659   6.872   2.951 -0.5705 -0.0615  2.4548
   69CHL1    C8 6226   5.641   7.089   2.979  0.1822  0.3751  0.0514
   69CHL1    H8 6227   5.556   7.157   2.961  0.6593  0.9938  0.1433
   69CHL1   C14 6228   5.666   7.076   3.133  0.0950  0.5861 -0.6731
   69CHL1   H14 6229   5.735   6.990   3.141  1.5045  1.8306  0.7794
   69CHL1   C15 6230   5.540   7.028   3.212  0.1564  0.1595  0.1606
   69CHL1  H15A 6231   5.449   7.083   3.181 -1.1464 -2.9592 -1.7779
   69CHL1  H15B 6232   5.525   6.920   3.191 -1.3806 -0.0997  2.4082
   69CHL1   C16 6233   5.564   7.066   3.353 -0.8407 -0.2434 -0.4944
   69CHL1  H16A 6234   5.488   7.142   3.381  0.6450  0.3316  2.1780
   69CHL1  H16B 6235   5.570   6.982   3.426 -2.9668  0.7015  0.8053
   69CHL1   C17 6236   5.706   7.145   3.351  0.9425  0.1579  0.4582
   69CHL1   H17 6237   5.787   7.069   3.364  0.4589 -0.4261  0.1129
   69CHL1   C13 6238   5.724   7.195   3.203  0.4093  0.4837 -0.4245
   69CHL1   C18 6239   5.629   7.315   3.174  0.3483 -0.2278 -0.0053
   69CHL1  H18A 6240   5.528   7.303   3.218 -0.4526 -3.7478 -2.5858
   69CHL1  H18B 6241   5.680   7.404   3.217  1.0949 -0.5717 -0.1707
   69CHL1  H18C 6242   5.619   7.342   3.067  1.6521 -0.4143 -0.1869
   69CHL1   C12 6243   5.870   7.210   3.133 -0.3246 -0.2331  0.2693
   69CHL1  H12A 6244   5.920   7.291   3.190 -0.0498 -1.3030  1.6038
   69CHL1  H12B 6245   5.933   7.120   3.154  1.8186  1.0418 -0.5294
   69CHL1   C11 6246   5.862   7.239   2.981  0.5646 -0.0297 -0.5857
   69CHL1  H11A 6247   5.828   7.342   2.958  0.0761 -0.0751 -0.0964
   69CHL1  H11B 6248   5.966   7.229   2.946  1.4668  0.4515  1.8720
   69CHL1    C9 6249   5.775   7.134   2.913  0.5482  0.6193 -0.0464
   69CHL1    H9 6250   5.835   7.042   2.924  0.4472  0.3645 -1.4258
   69CHL1   C10 6251   5.772   7.159   2.755  0.0927  0.2820 -0.2320
   69CHL1   C19 6252   5.708   7.296   2.724  0.2303 -0.7018  0.3506
   69CHL1  H19A 6253   5.691   7.311   2.615 -1.6713 -0.1644  0.6990
   69CHL1  H19B 6254   5.616   7.307   2.785  0.1054  0.4212 -0.0297
   69CHL1  H19C 6255   5.776   7.378   2.757 -1.7099 -0.6175  4.4445
   69CHL1    C1 6256   5.923   7.152   2.701  0.5970 -0.3935 -0.5345
   69CHL1   H1A 6257   5.987   7.237   2.730 -1.7522  1.2688 -0.0227
   69CHL1   H1B 6258   5.974   7.057   2.728 -0.7716 -1.0346 -0.1371
   69CHL1    C2 6259   5.923   7.143   2.545  0.2107 -0.2857  0.2306
   69CHL1   H2A 6260   6.023   7.108   2.512  0.1613  0.1149 -0.3525
   69CHL1   H2B 6261   5.913   7.246   2.505  0.7514 -0.2639  0.1479
   69CHL1   C20 6262   5.718   7.242   3.466  0.8771 -0.8230 -0.2678
   69CHL1   H20 6263   5.630   7.310   3.476  1.3848 -0.0548 -0.9276
   69CHL1   C21 6264   5.852   7.312   3.452 -0.1754 -0.7549  0.7294
   69CHL1  H21A 6265   5.875   7.366   3.357 -0.1255 -2.2000 -0.0900
   69CHL1  H21B 6266   5.931   7.236   3.470  0.0194 -1.0978 -1.4573
   69CHL1  H21C 6267   5.852   7.390   3.532 -2.0490 -0.5112  0.5148
   69CHL1   C22 6268   5.711   7.179   3.610 -0.3202 -0.2156  0.0560
   69CHL1  H22A 6269   5.623   7.113   3.625 -0.3180 -0.1420  0.4014
   69CHL1  H22B 6270   5.798   7.110   3.619  0.7658  1.1842  0.5796
   69CHL1   C23 6271   5.704   7.279   3.729  0.9521  0.2213 -0.4814
   69CHL1  H23A 6272   5.797   7.338   3.715  0.6908  0.4583 -1.2372
   69CHL1  H23B 6273   5.617   7.348   3.720 -0.7706 -1.0691  4.6733
   69CHL1   C24 6274   5.695   7.219   3.873  0.3119  0.2349 -0.5355
   69CHL1  H24A 6275   5.612   7.145   3.875  0.5842 -0.0188  2.2845
   69CHL1  H24B 6276   5.780   7.160   3.913  1.0857  1.0539 -0.9376
   69CHL1   C25 6277   5.655   7.318   3.982 -0.4900  0.3991 -0.0960
   69CHL1   H25 6278   5.581   7.379   3.926 -2.1908  0.8745  2.5625
   69CHL1   C26 6279   5.586   7.253   4.097 -0.7037  0.1080 -0.3499
   69CHL1  H26A 6280   5.648   7.182   4.156 -2.9340 -0.9840  0.7410
   69CHL1  H26B 6281   5.540   7.326   4.166 -0.6518  1.6215 -1.8902
   69CHL1  H26C 6282   5.503   7.195   4.050  0.2384 -2.2200  0.7693
   69CHL1   C27 6283   5.773   7.415   4.017 -0.4835  0.2240 -0.9465
   69CHL1  H27A 6284   5.825   7.465   3.933  1.6133  1.1327  0.8404
   69CHL1  H27B 6285   5.727   7.498   4.074 -2.2018 -1.5949  0.4179
   69CHL1  H27C 6286   5.846   7.358   4.078 -2.4190  0.2502  1.4796
   70CHL1    C3 6287   1.445   0.634   2.625  0.6737  0.6121 -0.1566
   70CHL1    H3 6288   1.354   0.578   2.652  0.3035 -0.3405 -3.1808
   70CHL1    O3 6289   1.443   0.668   2.485 -0.0862  0.2400 -0.2288
   70CHL1   H3' 6290   1.471   0.591   2.436  1.2154  0.3319  0.3521
   70CHL1    C4 6291   1.452   0.760   2.711 -0.0248 -0.4033 -0.1352
   70CHL1   H4A 6292   1.545   0.813   2.678  1.0023 -2.2127 -0.2136
   70CHL1   H4B 6293   1.369   0.829   2.687 -0.6100 -2.3610 -4.1156
   70CHL1    C5 6294   1.464   0.746   2.858 -0.4421 -0.0658 -0.2150
   70CHL1    C6 6295   1.384   0.800   2.951 -0.2861 -0.2345  0.3220
   70CHL1    H6 6296   1.295   0.859   2.921 -0.2143 -1.3812 -2.2119
   70CHL1    C7 6297   1.411   0.809   3.094 -0.4815 -0.0632  0.0978
   70CHL1   H7A 6298   1.393   0.910   3.137 -1.3918  0.2105 -0.8970
   70CHL1   H7B 6299   1.337   0.741   3.140 -1.4099  1.1851  0.4866
   70CHL1    C8 6300   1.548   0.748   3.123 -0.2649  0.1997 -0.3437
   70CHL1    H8 6301   1.625   0.825   3.102 -0.6015  0.2292 -1.5201
   70CHL1   C14 6302   1.564   0.709   3.269  0.0562 -0.7140 -0.7111
   70CHL1   H14 6303   1.497   0.621   3.282  0.2670 -0.8869 -0.7844
   70CHL1   C15 6304   1.516   0.817   3.361  0.7752  0.6481 -0.8041
   70CHL1  H15A 6305   1.552   0.913   3.321  0.2859  1.0724 -0.2395
   70CHL1  H15B 6306   1.405   0.814   3.371  1.0590 -0.9234  2.7173
   70CHL1   C16 6307   1.591   0.781   3.492 -0.1522 -0.5385 -0.6975
   70CHL1  H16A 6308   1.649   0.871   3.522 -2.4336  1.8466 -3.2028
   70CHL1  H16B 6309   1.510   0.754   3.563 -2.0594  0.1738 -2.5585
   70CHL1   C17 6310   1.684   0.660   3.465  0.1240 -0.7195 -0.7283
   70CHL1   H17 6311   1.632   0.565   3.490  1.5740 -1.0870  1.0471
   70CHL1   C13 6312   1.698   0.657   3.312 -0.8025 -0.6682 -0.4908
   70CHL1   C18 6313   1.806   0.759   3.271  0.0879 -0.4128  0.2649
   70CHL1  H18A 6314   1.786   0.858   3.317 -0.0531 -0.0947 -0.4815
   70CHL1  H18B 6315   1.907   0.737   3.311 -0.0288  0.9350  1.3308
   70CHL1  H18C 6316   1.810   0.786   3.164  0.8039  0.9787  0.6258
   70CHL1   C12 6317   1.711   0.526   3.239  0.3112 -0.7463  0.0197
   70CHL1  H12A 6318   1.811   0.483   3.264  0.5402  1.1900  2.6306
   70CHL1  H12B 6319   1.640   0.455   3.285 -3.0762  1.7466 -1.2124
   70CHL1   C11 6320   1.710   0.547   3.090  0.2004  0.2419  0.1659
   70CHL1  H11A 6321   1.802   0.602   3.060 -2.2528  2.9157 -2.7468
   70CHL1  H11B 6322   1.705   0.446   3.044 -0.2458 -0.1602  1.0955
   70CHL1    C9 6323   1.582   0.627   3.038  0.4506 -0.9027 -0.3609
   70CHL1    H9 6324   1.492   0.567   3.065 -0.6942  0.5871 -0.8575
   70CHL1   C10 6325   1.580   0.660   2.891  0.1912 -0.0565 -0.7418
   70CHL1   C19 6326   1.705   0.740   2.857  0.0604 -0.4704  0.6476
   70CHL1  H19A 6327   1.716   0.831   2.920 -1.0122  0.2456 -0.1786
   70CHL1  H19B 6328   1.797   0.682   2.877 -0.1609 -1.2182 -0.4392
   70CHL1  H19C 6329   1.724   0.764   2.750 -0.0981 -1.4584  0.3973
   70CHL1    C1 6330   1.569   0.528   2.807 -0.0129 -0.2121 -0.8388
   70CHL1   H1A 6331   1.655   0.459   2.821 -0.9287 -1.0911  0.5702
   70CHL1   H1B 6332   1.486   0.466   2.847  2.4561 -3.3691 -0.3864
   70CHL1    C2 6333   1.567   0.554   2.655 -0.0499  0.1747 -0.2738
   70CHL1   H2A 6334   1.568   0.462   2.593  0.0010 -1.2524  1.7911
   70CHL1   H2B 6335   1.657   0.612   2.626 -1.0388  1.0383 -1.6767
   70CHL1   C20 6336   1.817   0.659   3.554  0.5095 -0.5006  0.3464
   70CHL1   H20 6337   1.878   0.743   3.513 -1.1149  0.0977 -0.9099
   70CHL1   C21 6338   1.891   0.525   3.535  0.2648 -0.1246  0.1251
   70CHL1  H21A 6339   1.943   0.534   3.438  2.2131  3.2968  1.3886
   70CHL1  H21B 6340   1.818   0.441   3.532  1.0703 -0.7775 -1.3718
   70CHL1  H21C 6341   1.961   0.514   3.621 -0.4179 -0.0167  0.7020
   70CHL1   C22 6342   1.792   0.687   3.705  0.2036 -0.6497  0.4667
   70CHL1  H22A 6343   1.718   0.770   3.713  0.5661 -0.4149  1.3824
   70CHL1  H22B 6344   1.740   0.607   3.761 -0.5049  0.5661  1.5902
   70CHL1   C23 6345   1.919   0.724   3.783 -0.6271 -0.6627 -0.1111
   70CHL1  H23A 6346   2.003   0.653   3.769 -0.2881 -0.2144 -0.3487
   70CHL1  H23B 6347   1.958   0.822   3.747 -0.2741 -1.5830 -2.3119
   70CHL1   C24 6348   1.881   0.736   3.931 -0.4287  0.3268  0.0832
   70CHL1  H24A 6349   1.785   0.789   3.950 -1.3901 -1.0862 -0.8046
   70CHL1  H24B 6350   1.861   0.636   3.974  2.8177  0.3274  1.7906
   70CHL1   C25 6351   1.996   0.783   4.025 -0.7769 -0.2446  0.2016
   70CHL1   H25 6352   2.095   0.746   3.992 -0.4000  1.5771 -0.7537
   70CHL1   C26 6353   2.021   0.932   4.026  0.1901  0.3782 -0.3897
   70CHL1  H26A 6354   1.922   0.971   4.059 -0.1912 -0.0448 -1.0151
   70CHL1  H26B 6355   2.091   0.973   4.101 -0.8110  0.9181  0.2542
   70CHL1  H26C 6356   2.042   0.972   3.925  1.1903  0.0644 -0.3085
   70CHL1   C27 6357   1.965   0.749   4.173  0.2002  0.3223 -0.2819
   70CHL1  H27A 6358   2.006   0.646   4.187  0.6944  0.0613 -3.2038
   70CHL1  H27B 6359   2.026   0.812   4.241 -0.0773 -0.4988  0.7433
   70CHL1  H27C 6360   1.858   0.767   4.197 -0.1799 -1.3079 -0.6722
   71CHL1    C3 6361   0.164   1.918   2.586 -0.6091  0.6101 -0.3931
   71CHL1    H3 6362   0.238   1.880   2.660 -1.2255  1.7239  0.8153
   71CHL1    O3 6363   0.209   1.878   2.458 -0.1101 -0.0777 -0.3800
   71CHL1   H3' 6364   0.132   1.880   2.401  0.5677 -1.0063 -1.3492
   71CHL1    C4 6365   0.032   1.844   2.614 -0.1781  0.2744  1.2736
   71CHL1   H4A 6366  -0.047   1.882   2.545 -1.0161 -1.7673  1.0857
   71CHL1   H4B 6367   0.051   1.737   2.591 -0.8087  0.8176 -2.0182
   71CHL1    C5 6368  -0.019   1.873   2.755 -0.3397  0.3118 -0.0772
   71CHL1    C6 6369  -0.050   1.768   2.840 -0.1027  0.0618 -0.5920
   71CHL1    H6 6370  -0.032   1.664   2.807  1.7502  1.2264 -3.4611
   71CHL1    C7 6371  -0.106   1.788   2.978  0.8737  0.8590  0.1393
   71CHL1   H7A 6372  -0.202   1.734   2.993  1.0900  1.0120  2.0794
   71CHL1   H7B 6373  -0.032   1.747   3.050 -0.2254 -2.5018 -0.5487
   71CHL1    C8 6374  -0.130   1.940   3.011  0.7353 -0.1943  0.6372
   71CHL1    H8 6375  -0.225   1.965   2.959  0.4306 -3.6033 -0.5602
   71CHL1   C14 6376  -0.145   1.964   3.162  0.1907  0.1341  0.5210
   71CHL1   H14 6377  -0.052   1.924   3.208 -0.3301 -0.8322  0.7380
   71CHL1   C15 6378  -0.263   1.889   3.234 -0.1726 -0.0209 -0.3906
   71CHL1  H15A 6379  -0.351   1.896   3.168  0.1885 -1.8151 -1.0759
   71CHL1  H15B 6380  -0.245   1.780   3.247  0.9255  0.3399  1.2929
   71CHL1   C16 6381  -0.279   1.966   3.366 -0.0017 -0.1989  0.2911
   71CHL1  H16A 6382  -0.387   1.993   3.376 -0.6448 -2.8375  0.9400
   71CHL1  H16B 6383  -0.249   1.900   3.450  2.6894  0.3559 -0.2115
   71CHL1   C17 6384  -0.187   2.086   3.351  0.6417 -0.0028  0.1800
   71CHL1   H17 6385  -0.088   2.055   3.392  0.5235 -0.3382  0.2123
   71CHL1   C13 6386  -0.166   2.111   3.205  0.2190 -0.9127  0.9851
   71CHL1   C18 6387  -0.294   2.166   3.142  0.1446 -0.0708  0.3853
   71CHL1  H18A 6388  -0.380   2.099   3.166 -0.5609  1.0091  0.9020
   71CHL1  H18B 6389  -0.318   2.265   3.185 -2.2327 -0.0393 -0.8741
   71CHL1  H18C 6390  -0.284   2.173   3.031 -0.6334  2.7988  0.4535
   71CHL1   C12 6391  -0.043   2.185   3.167  0.3461 -0.7381 -0.4632
   71CHL1  H12A 6392  -0.060   2.289   3.202 -0.1626 -0.6091 -1.0716
   71CHL1  H12B 6393   0.044   2.140   3.220 -0.5778 -1.9973  0.0016
   71CHL1   C11 6394  -0.019   2.170   3.014 -0.1792  0.0491  0.5817
   71CHL1  H11A 6395  -0.099   2.236   2.973 -1.7080 -1.4597  1.0684
   71CHL1  H11B 6396   0.083   2.211   2.996 -0.2485 -0.4074 -0.9066
   71CHL1    C9 6397  -0.022   2.026   2.958  1.1395 -0.5613 -0.0735
   71CHL1    H9 6398   0.075   1.983   2.990  0.7216 -1.5034 -0.0726
   71CHL1   C10 6399  -0.018   2.018   2.797  0.0668  0.3703 -0.4209
   71CHL1   C19 6400  -0.137   2.101   2.739 -0.0350 -0.6685 -0.0038
   71CHL1  H19A 6401  -0.131   2.211   2.751 -0.8718 -0.5507 -0.6114
   71CHL1  H19B 6402  -0.132   2.086   2.629  1.4446  2.1012 -0.3708
   71CHL1  H19C 6403  -0.236   2.062   2.768 -0.0479 -0.6945 -0.0837
   71CHL1    C1 6404   0.115   2.084   2.751  0.2833  0.3469 -0.5011
   71CHL1   H1A 6405   0.110   2.193   2.771 -0.1372  0.1750  0.3680
   71CHL1   H1B 6406   0.200   2.040   2.808  0.3227  1.1074  0.0331
   71CHL1    C2 6407   0.154   2.064   2.605 -0.0658 -0.0012 -0.2073
   71CHL1   H2A 6408   0.256   2.109   2.598  1.4185 -2.9432  1.7791
   71CHL1   H2B 6409   0.095   2.115   2.525  0.7644 -0.7630 -1.3080
   71CHL1   C20 6410  -0.223   2.207   3.440  0.5216 -0.3776  0.1953
   71CHL1   H20 6411  -0.254   2.296   3.380  0.1344  0.1642  1.1924
   71CHL1   C21 6412  -0.089   2.254   3.509  0.4514 -0.6483  0.3449
   71CHL1  H21A 6413   0.001   2.257   3.444  0.8541 -2.4057  0.8102
   71CHL1  H21B 6414  -0.066   2.195   3.601 -0.5507  0.8580  1.6041
   71CHL1  H21C 6415  -0.099   2.360   3.542  1.2235 -0.4336 -0.1020
   71CHL1   C22 6416  -0.323   2.170   3.551 -0.2742  0.0253 -0.1841
   71CHL1  H22A 6417  -0.424   2.156   3.506 -0.8791  1.3963  0.7087
   71CHL1  H22B 6418  -0.287   2.083   3.609 -0.2040  0.4485  0.4050
   71CHL1   C23 6419  -0.342   2.283   3.648  0.8707  0.4387 -0.4927
   71CHL1  H23A 6420  -0.249   2.305   3.703  0.1806 -1.8969  1.6809
   71CHL1  H23B 6421  -0.365   2.373   3.587 -0.8461 -0.7745 -1.7102
   71CHL1   C24 6422  -0.452   2.243   3.747 -0.2317  0.1094 -0.1367
   71CHL1  H24A 6423  -0.534   2.198   3.687  0.8589 -1.2776 -0.6068
   71CHL1  H24B 6424  -0.409   2.176   3.824 -3.4800  1.4672  3.0100
   71CHL1   C25 6425  -0.525   2.362   3.828  0.0715 -0.1393 -1.0029
   71CHL1   H25 6426  -0.542   2.447   3.759 -2.8467  0.9717  0.9748
   71CHL1   C26 6427  -0.658   2.324   3.887  0.0020  0.0819 -0.0684
   71CHL1  H26A 6428  -0.642   2.224   3.933 -0.7482  0.9464  2.1572
   71CHL1  H26B 6429  -0.688   2.387   3.973  0.2468  0.8462 -0.5350
   71CHL1  H26C 6430  -0.742   2.328   3.815 -1.8827  0.4451  2.0779
   71CHL1   C27 6431  -0.433   2.418   3.945 -0.1651  0.4754  0.0942
   71CHL1  H27A 6432  -0.491   2.479   4.017 -1.8531 -0.5901 -0.3513
   71CHL1  H27B 6433  -0.385   2.338   4.005  0.4755  0.3973 -0.5117
   71CHL1  H27C 6434  -0.357   2.488   3.902  0.0117  0.9925  1.2446
   72CHL1    C3 6435   6.293   6.643   2.472 -0.1382 -0.2275  0.0249
   72CHL1    H3 6436   6.385   6.620   2.530 -0.3787  0.6719  0.7823
   72CHL1    O3 6437   6.314   6.650   2.334  0.3351  0.1355  0.3056
   72CHL1   H3' 6438   6.337   6.564   2.299 -1.9992 -0.2650 -0.3767
   72CHL1    C4 6439   6.179   6.546   2.505 -0.2262  0.5401  0.6739
   72CHL1   H4A 6440   6.087   6.588   2.459 -0.3154 -0.0650  0.2898
   72CHL1   H4B 6441   6.203   6.448   2.457 -1.9603 -0.0966  1.0472
   72CHL1    C5 6442   6.156   6.536   2.655  0.0807  0.3564 -0.0938
   72CHL1    C6 6443   6.160   6.422   2.723  0.1060 -0.3819 -0.0609
   72CHL1    H6 6444   6.193   6.329   2.675 -1.0361 -0.1072 -1.4169
   72CHL1    C7 6445   6.129   6.404   2.872 -0.2189 -0.0818 -0.3784
   72CHL1   H7A 6446   6.067   6.314   2.894  1.5881 -1.0260  0.9532
   72CHL1   H7B 6447   6.219   6.379   2.931 -1.9798  2.6582  3.6771
   72CHL1    C8 6448   6.065   6.530   2.931 -0.0610  0.0882  0.5057
   72CHL1    H8 6449   5.957   6.520   2.904  0.3861 -0.2472 -1.1537
   72CHL1   C14 6450   6.090   6.535   3.087  0.4505  0.5154  0.1468
   72CHL1   H14 6451   6.199   6.541   3.108  0.4931  1.4006 -0.3201
   72CHL1   C15 6452   6.046   6.401   3.169  0.5453 -0.9048 -1.1832
   72CHL1  H15A 6453   5.954   6.359   3.122 -0.3039  0.4752 -0.7786
   72CHL1  H15B 6454   6.116   6.315   3.165  0.2984 -1.3348  2.2553
   72CHL1   C16 6455   6.026   6.460   3.308  0.2806  0.4836  0.4006
   72CHL1  H16A 6456   5.927   6.430   3.350 -0.4765  0.5690 -1.3132
   72CHL1  H16B 6457   6.101   6.406   3.370 -2.2450  0.1225  3.3007
   72CHL1   C17 6458   6.057   6.612   3.304 -0.2210 -0.5834 -0.5687
   72CHL1   H17 6459   6.167   6.622   3.316 -0.3252 -1.1018  0.8851
   72CHL1   C13 6460   6.032   6.651   3.161  0.1028  0.3015  1.2736
   72CHL1   C18 6461   5.877   6.660   3.134 -0.0736 -0.1079  0.4796
   72CHL1  H18A 6462   5.856   6.635   3.028  0.3816 -0.7236  0.5310
   72CHL1  H18B 6463   5.827   6.588   3.202 -0.0595  1.1222  1.8041
   72CHL1  H18C 6464   5.838   6.761   3.157  1.8754  0.7407  0.1909
   72CHL1   C12 6465   6.101   6.776   3.100 -0.1647  0.0844 -0.1719
   72CHL1  H12A 6466   6.083   6.870   3.156 -0.2973 -0.2840  0.3977
   72CHL1  H12B 6467   6.210   6.756   3.112 -0.7974 -2.1544  1.9472
   72CHL1   C11 6468   6.071   6.785   2.953 -0.5410 -0.7570 -0.1764
   72CHL1  H11A 6469   5.961   6.790   2.938 -0.6468  1.2360  1.1298
   72CHL1  H11B 6470   6.133   6.864   2.905 -2.2594  1.1951  0.7586
   72CHL1    C9 6471   6.122   6.657   2.876  0.3549  0.7841 -0.4173
   72CHL1    H9 6472   6.229   6.648   2.901  0.1530  0.4447  0.3180
   72CHL1   C10 6473   6.122   6.667   2.723  0.3804  0.1314  0.4006
   72CHL1   C19 6474   5.983   6.714   2.676 -0.4475 -0.8192 -0.2283
   72CHL1  H19A 6475   5.949   6.811   2.718  3.0559  1.1379 -1.6969
   72CHL1  H19B 6476   5.993   6.746   2.570 -2.4841 -0.3866 -0.3158
   72CHL1  H19C 6477   5.898   6.642   2.684 -0.4620 -0.8786 -0.8967
   72CHL1    C1 6478   6.239   6.760   2.676 -0.4532  0.2198  0.0864
   72CHL1   H1A 6479   6.229   6.862   2.718 -2.5438 -1.5529  4.1804
   72CHL1   H1B 6480   6.341   6.725   2.704  0.1029  2.1438  0.5375
   72CHL1    C2 6481   6.262   6.783   2.531  0.0946  0.6112  0.2217
   72CHL1   H2A 6482   6.331   6.860   2.492  0.4115 -0.0760 -0.5995
   72CHL1   H2B 6483   6.166   6.819   2.489 -1.6868  0.0486  3.6451
   72CHL1   C20 6484   5.987   6.691   3.417 -0.6803  0.7734 -0.5670
   72CHL1   H20 6485   5.880   6.664   3.409 -0.2749 -0.8803 -0.5655
   72CHL1   C21 6486   5.988   6.841   3.404  0.3994  0.1426 -0.4526
   72CHL1  H21A 6487   5.930   6.865   3.312 -3.8039 -2.1959  1.4318
   72CHL1  H21B 6488   6.097   6.864   3.401  0.4201  0.0640 -0.2836
   72CHL1  H21C 6489   5.942   6.900   3.487 -0.5398  1.4070 -1.8448
   72CHL1   C22 6490   6.043   6.651   3.559 -0.0810 -0.2024 -0.3005
   72CHL1  H22A 6491   6.047   6.539   3.559  2.1131 -0.1496 -1.2957
   72CHL1  H22B 6492   6.146   6.688   3.574 -0.3635  0.2874  0.4330
   72CHL1   C23 6493   5.951   6.699   3.670  0.1669  0.2272  0.2611
   72CHL1  H23A 6494   5.975   6.651   3.767 -0.9499 -0.4475  0.2083
   72CHL1  H23B 6495   5.966   6.808   3.685  0.0300  0.1553  0.9595
   72CHL1   C24 6496   5.803   6.652   3.657  0.4246  0.0636 -0.6076
   72CHL1  H24A 6497   5.750   6.717   3.585 -2.5935 -0.9011  0.6643
   72CHL1  H24B 6498   5.805   6.546   3.626 -0.7271 -0.6502  1.6663
   72CHL1   C25 6499   5.727   6.666   3.791 -0.6729 -0.2808  0.6638
   72CHL1   H25 6500   5.787   6.616   3.870  0.1375  0.1770  0.3484
   72CHL1   C26 6501   5.710   6.813   3.836 -0.3663  0.5471  0.3346
   72CHL1  H26A 6502   5.811   6.850   3.863  0.0504 -0.1152 -0.2985
   72CHL1  H26B 6503   5.675   6.866   3.745 -0.8162 -1.1302 -0.4776
   72CHL1  H26C 6504   5.645   6.820   3.926 -0.4967  1.8522  0.1489
   72CHL1   C27 6505   5.586   6.588   3.783 -0.0347 -0.3348 -0.4043
   72CHL1  H27A 6506   5.603   6.485   3.745 -5.1243 -1.4036 -0.0964
   72CHL1  H27B 6507   5.531   6.595   3.879 -0.5261 -3.5239 -0.4116
   72CHL1  H27C 6508   5.526   6.646   3.710 -0.6071  2.3740  2.1194
   73CHL1    C3 6509   0.043   0.795   2.579  0.2886  0.2438 -0.5749
   73CHL1    H3 6510   0.092   0.698   2.552  0.3995 -0.8086  3.1392
   73CHL1    O3 6511   0.023   0.863   2.453 -0.3186  0.0347 -0.5232
   73CHL1   H3' 6512   0.049   0.955   2.467 -4.2419  1.2164 -0.3361
   73CHL1    C4 6513  -0.086   0.768   2.663 -0.3122  0.0167  1.1874
   73CHL1   H4A 6514  -0.129   0.869   2.680  1.0613  0.6294  1.0334
   73CHL1   H4B 6515  -0.164   0.711   2.608 -0.1721  0.4280  0.5545
   73CHL1    C5 6516  -0.061   0.689   2.791 -0.0311 -0.4110  1.0936
   73CHL1    C6 6517  -0.117   0.571   2.821  0.7313  0.4673  1.1931
   73CHL1    H6 6518  -0.171   0.522   2.738  1.6125 -1.6525  1.8452
   73CHL1    C7 6519  -0.102   0.503   2.953  0.7832  0.3434 -0.4760
   73CHL1   H7A 6520  -0.204   0.463   2.971  0.3475  0.2129 -2.9946
   73CHL1   H7B 6521  -0.041   0.411   2.943  0.0463 -0.6116  3.1106
   73CHL1    C8 6522  -0.045   0.600   3.063 -0.8003  0.0171 -0.1453
   73CHL1    H8 6523  -0.131   0.666   3.089  1.4600  2.8715  0.3703
   73CHL1   C14 6524  -0.001   0.528   3.186  0.4394 -0.0310 -0.1987
   73CHL1   H14 6525   0.088   0.472   3.148 -1.1979 -1.7588 -1.5998
   73CHL1   C15 6526  -0.088   0.416   3.252  0.2641  0.2711  0.2923
   73CHL1  H15A 6527  -0.194   0.450   3.255  0.1970  0.0980 -0.0650
   73CHL1  H15B 6528  -0.087   0.319   3.197 -1.3910 -0.7599  2.0241
   73CHL1   C16 6529  -0.028   0.408   3.395  0.6349 -0.1450  0.2682
   73CHL1  H16A 6530  -0.105   0.431   3.471  1.0695 -1.7821  1.2362
   73CHL1  H16B 6531  -0.005   0.302   3.422  4.2010  0.8217  1.2979
   73CHL1   C17 6532   0.091   0.517   3.408 -0.1981 -0.3056 -0.7160
   73CHL1   H17 6533   0.189   0.472   3.380  1.6227  1.7878  1.9179
   73CHL1   C13 6534   0.060   0.618   3.301  0.9156  0.4448 -0.0308
   73CHL1   C18 6535  -0.050   0.713   3.348  0.2872 -0.2036 -0.0692
   73CHL1  H18A 6536  -0.014   0.782   3.428  2.8947  1.0369 -2.2198
   73CHL1  H18B 6537  -0.078   0.776   3.262  0.8157  1.3457  0.8730
   73CHL1  H18C 6538  -0.141   0.660   3.384  0.6497 -0.9349 -0.2240
   73CHL1   C12 6539   0.182   0.688   3.240 -0.0316 -0.1769  0.0348
   73CHL1  H12A 6540   0.209   0.765   3.315 -0.2011 -0.9391  0.8830
   73CHL1  H12B 6541   0.262   0.614   3.217  2.3122  2.2664  0.0557
   73CHL1   C11 6542   0.145   0.764   3.111  0.5172 -0.1616  0.7944
   73CHL1  H11A 6543   0.085   0.852   3.139  0.0427 -0.5436  0.9887
   73CHL1  H11B 6544   0.240   0.798   3.065 -0.6790  2.2801  0.0856
   73CHL1    C9 6545   0.067   0.681   3.008  0.1362 -1.0462  0.7840
   73CHL1    H9 6546   0.139   0.600   2.981 -1.3127 -2.0569 -0.1359
   73CHL1   C10 6547   0.040   0.763   2.879  0.3987  0.3052  0.3411
   73CHL1   C19 6548  -0.024   0.896   2.920 -0.1457  0.2738  0.5803
   73CHL1  H19A 6549  -0.127   0.885   2.960 -0.2661 -0.4514  0.0952
   73CHL1  H19B 6550   0.043   0.960   2.980  1.4155 -0.4410 -0.3769
   73CHL1  H19C 6551  -0.050   0.963   2.835 -4.0862  0.8944  2.1557
   73CHL1    C1 6552   0.160   0.786   2.798 -0.3012 -0.4536 -0.1867
   73CHL1   H1A 6553   0.241   0.823   2.864 -2.3299 -0.0232  2.1365
   73CHL1   H1B 6554   0.194   0.683   2.772 -0.6462 -0.3410 -1.1106
   73CHL1    C2 6555   0.142   0.870   2.666 -0.4268 -0.1551  0.1311
   73CHL1   H2A 6556   0.239   0.880   2.613 -1.0648  3.7994 -0.4206
   73CHL1   H2B 6557   0.100   0.970   2.693 -0.8591 -0.2399 -0.2345
   73CHL1   C20 6558   0.119   0.575   3.551  0.0615 -0.3897 -0.4079
   73CHL1   H20 6559   0.115   0.686   3.551  0.8305 -0.3579  0.4211
   73CHL1   C21 6560   0.268   0.559   3.588  0.4543  0.0278 -0.6000
   73CHL1  H21A 6561   0.328   0.601   3.505  1.6640 -0.6184 -0.0549
   73CHL1  H21B 6562   0.300   0.454   3.605 -1.7725 -1.0319 -2.5865
   73CHL1  H21C 6563   0.293   0.613   3.682  0.6514 -2.0587  0.5740
   73CHL1   C22 6564   0.023   0.526   3.662 -0.4169  0.0605  0.1592
   73CHL1  H22A 6565  -0.077   0.560   3.627  0.0215  2.8029  1.4301
   73CHL1  H22B 6566   0.020   0.415   3.667  1.1015 -0.0757 -1.5150
   73CHL1   C23 6567   0.042   0.588   3.804  0.2924 -0.5629 -0.0370
   73CHL1  H23A 6568  -0.018   0.536   3.882 -0.9454  1.7036  0.5843
   73CHL1  H23B 6569   0.146   0.572   3.840  0.2995 -2.3167 -0.8061
   73CHL1   C24 6570   0.014   0.737   3.817 -0.4293 -0.0993  0.7945
   73CHL1  H24A 6571   0.089   0.798   3.763 -1.7000  0.7543 -0.0286
   73CHL1  H24B 6572  -0.089   0.758   3.781 -0.0698 -0.2025 -0.3161
   73CHL1   C25 6573   0.022   0.789   3.970  0.0201  0.1602  0.0448
   73CHL1   H25 6574  -0.016   0.701   4.027 -1.4836 -0.8517 -2.4366
   73CHL1   C26 6575   0.163   0.831   4.005  0.8530  0.6036  0.1273
   73CHL1  H26A 6576   0.230   0.742   4.010  1.1419  0.8111 -0.0154
   73CHL1  H26B 6577   0.202   0.908   3.936  1.0045  2.4706  2.2497
   73CHL1  H26C 6578   0.160   0.878   4.106 -1.6520 -0.3847  0.5531
   73CHL1   C27 6579  -0.076   0.907   4.007 -0.0500  0.6396  0.4601
   73CHL1  H27A 6580  -0.035   0.998   3.959 -1.9380  1.3009  0.0575
   73CHL1  H27B 6581  -0.176   0.893   3.962 -0.7763 -1.0713  2.5018
   73CHL1  H27C 6582  -0.091   0.915   4.117 -0.4369 -4.2583  0.8931
   74CHL1    C3 6583   1.343   0.072   2.492 -0.3289 -0.0358 -0.4796
   74CHL1    H3 6584   1.419  -0.009   2.484  1.4773  1.4565  1.1291
   74CHL1    O3 6585   1.295   0.094   2.357  0.2027 -0.5824  0.3415
   74CHL1   H3' 6586   1.369   0.095   2.296  0.9478 -0.7887  1.2213
   74CHL1    C4 6587   1.225   0.021   2.589 -0.5427  0.4993  0.1203
   74CHL1   H4A 6588   1.144   0.096   2.582  0.1687  1.1736 -1.0109
   74CHL1   H4B 6589   1.192  -0.076   2.547  0.1132 -0.0141  0.7839
   74CHL1    C5 6590   1.268   0.002   2.735 -0.0998  0.1905  0.4198
   74CHL1    C6 6591   1.248  -0.107   2.801 -0.1796  0.2104  0.6325
   74CHL1    H6 6592   1.192  -0.186   2.749  0.1355  0.3112  0.1244
   74CHL1    C7 6593   1.285  -0.137   2.944  0.4989 -0.8405  0.3110
   74CHL1   H7A 6594   1.202  -0.180   3.004 -0.2131  1.9658  1.4129
   74CHL1   H7B 6595   1.365  -0.215   2.941  1.5281  0.1836  0.8810
   74CHL1    C8 6596   1.321   0.004   3.017  0.1817 -0.1561  0.4659
   74CHL1    H8 6597   1.221   0.046   3.039 -0.3343 -1.2663  0.3042
   74CHL1   C14 6598   1.377  -0.027   3.160 -0.2989 -0.3368  0.3013
   74CHL1   H14 6599   1.468  -0.089   3.141  2.1135  2.9738  0.4396
   74CHL1   C15 6600   1.286  -0.111   3.257  0.8308 -0.0702  0.2191
   74CHL1  H15A 6601   1.182  -0.073   3.258  0.3448 -1.3833  0.4163
   74CHL1  H15B 6602   1.276  -0.217   3.225  0.2670 -0.1273  0.5934
   74CHL1   C16 6603   1.346  -0.076   3.395 -0.0187  0.4048 -0.3609
   74CHL1  H16A 6604   1.265  -0.037   3.460 -1.3027  1.9196 -2.8133
   74CHL1  H16B 6605   1.397  -0.170   3.427  2.4122  1.7634 -0.0883
   74CHL1   C17 6606   1.451   0.041   3.374 -0.2811 -0.1975  0.0162
   74CHL1   H17 6607   1.552  -0.003   3.375  0.0617  0.5923  1.2265
   74CHL1   C13 6608   1.421   0.101   3.230 -0.4122 -0.4565  1.0480
   74CHL1   C18 6609   1.296   0.197   3.240 -0.4710 -0.0938  0.0579
   74CHL1  H18A 6610   1.326   0.292   3.290  1.4047  0.2174 -1.5754
   74CHL1  H18B 6611   1.263   0.220   3.137  1.2853 -0.0586 -0.5255
   74CHL1  H18C 6612   1.211   0.159   3.300  0.0738  2.0398  2.2630
   74CHL1   C12 6613   1.535   0.150   3.143 -0.0849 -0.3819 -0.2455
   74CHL1  H12A 6614   1.599   0.231   3.183  1.0225 -1.0520 -0.6316
   74CHL1  H12B 6615   1.597   0.060   3.123  0.7502 -0.7491  3.5972
   74CHL1   C11 6616   1.495   0.191   3.004  0.2900 -0.2131  0.1493
   74CHL1  H11A 6617   1.430   0.278   3.027  0.9633  0.2697  0.2309
   74CHL1  H11B 6618   1.582   0.218   2.940  0.7026  0.3667  0.9543
   74CHL1    C9 6619   1.420   0.076   2.931  0.1588 -0.4006 -0.4475
   74CHL1    H9 6620   1.501   0.003   2.908  0.3855 -0.0362 -0.8187
   74CHL1   C10 6621   1.353   0.115   2.793 -0.3418 -0.1615 -0.7878
   74CHL1   C19 6622   1.255   0.234   2.821  0.1807 -0.2638  0.2218
   74CHL1  H19A 6623   1.304   0.331   2.846 -0.8540 -0.0389  1.4534
   74CHL1  H19B 6624   1.203   0.266   2.729  2.0977 -1.8401 -1.4501
   74CHL1  H19C 6625   1.187   0.210   2.906 -1.2464  0.4426 -0.6990
   74CHL1    C1 6626   1.465   0.165   2.697 -0.1090 -0.2336  0.2617
   74CHL1   H1A 6627   1.507   0.261   2.734 -0.4393 -0.0712  0.2236
   74CHL1   H1B 6628   1.545   0.090   2.684  1.4209  1.6433 -1.3699
   74CHL1    C2 6629   1.410   0.197   2.550 -0.3728 -0.2016 -0.1417
   74CHL1   H2A 6630   1.494   0.235   2.487 -1.5992  0.7470 -1.2386
   74CHL1   H2B 6631   1.336   0.277   2.572  0.7999  0.0483  3.1176
   74CHL1   C20 6632   1.448   0.142   3.493 -0.1949 -0.5378 -0.1963
   74CHL1   H20 6633   1.347   0.188   3.504 -0.3664 -0.7889 -0.7254
   74CHL1   C21 6634   1.545   0.256   3.458  0.5735  0.5727  1.0845
   74CHL1  H21A 6635   1.518   0.308   3.364  1.6368  0.7070  0.8475
   74CHL1  H21B 6636   1.649   0.215   3.457 -0.1032 -1.2084  1.5766
   74CHL1  H21C 6637   1.527   0.319   3.547 -1.9346 -1.7113  2.2572
   74CHL1   C22 6638   1.455   0.079   3.633 -0.1575  0.2477 -0.5402
   74CHL1  H22A 6639   1.366   0.011   3.637 -0.5331  0.7696  0.1817
   74CHL1  H22B 6640   1.547   0.017   3.641  0.7297  1.5658 -0.4298
   74CHL1   C23 6641   1.437   0.173   3.746  0.9787  0.0234  0.6416
   74CHL1  H23A 6642   1.524   0.242   3.752 -0.3208  1.8248 -0.4828
   74CHL1  H23B 6643   1.341   0.227   3.734  1.1581 -0.2257 -2.5306
   74CHL1   C24 6644   1.444   0.095   3.884  0.1158  0.0949 -0.0945
   74CHL1  H24A 6645   1.352   0.034   3.895  1.6131 -2.3168 -0.6240
   74CHL1  H24B 6646   1.535   0.032   3.879  1.0329  1.5255 -2.3969
   74CHL1   C25 6647   1.452   0.188   4.010  0.1591  0.5528  0.1377
   74CHL1   H25 6648   1.473   0.113   4.090 -0.2147 -1.3113 -1.4868
   74CHL1   C26 6649   1.573   0.283   4.010  0.3302  0.3291  0.6807
   74CHL1  H26A 6650   1.567   0.375   3.948  0.4701 -1.1466 -1.6102
   74CHL1  H26B 6651   1.590   0.320   4.113 -0.7519  0.8274  0.6804
   74CHL1  H26C 6652   1.656   0.219   3.973  0.1232 -0.1241  0.9902
   74CHL1   C27 6653   1.329   0.277   4.042 -0.5882 -0.2123  0.4863
   74CHL1  H27A 6654   1.235   0.222   4.021 -0.4063 -0.5693  0.6141
   74CHL1  H27B 6655   1.340   0.321   4.143  2.3313  1.8444 -0.6514
   74CHL1  H27C 6656   1.324   0.360   3.968 -1.1348 -1.0871 -0.4772
   75CHL1    C3 6657   0.856   0.081   2.440 -0.7242  0.1237  0.2970
   75CHL1    H3 6658   0.965   0.064   2.430 -1.0024 -0.0225 -3.2219
   75CHL1    O3 6659   0.805   0.096   2.304  0.2376  0.5320  0.1428
   75CHL1   H3' 6660   0.709   0.099   2.309  0.0833  1.4726 -2.7070
   75CHL1    C4 6661   0.787  -0.038   2.511 -0.0030  0.5290  0.0174
   75CHL1   H4A 6662   0.676  -0.046   2.504  0.1986 -1.1329 -1.5484
   75CHL1   H4B 6663   0.819  -0.127   2.454  0.6574  1.0912 -0.5054
   75CHL1    C5 6664   0.813  -0.056   2.656 -0.2017 -0.3945 -0.2718
   75CHL1    C6 6665   0.859  -0.169   2.703 -0.2865 -0.0685  0.4085
   75CHL1    H6 6666   0.888  -0.251   2.636  0.0388  0.5138 -0.1665
   75CHL1    C7 6667   0.874  -0.204   2.850 -0.0495 -0.1143 -0.2152
   75CHL1   H7A 6668   0.838  -0.305   2.878  0.0599  0.1333  0.8290
   75CHL1   H7B 6669   0.981  -0.204   2.881 -0.2161  0.9629  0.3675
   75CHL1    C8 6670   0.810  -0.099   2.940  0.7605  0.2336  0.6839
   75CHL1    H8 6671   0.703  -0.127   2.944 -0.0279  1.8719 -4.9506
   75CHL1   C14 6672   0.870  -0.103   3.081  1.0892  0.1759  0.2134
   75CHL1   H14 6673   0.980  -0.094   3.067  0.8693  0.6974 -1.2173
   75CHL1   C15 6674   0.866  -0.234   3.162  0.6465  0.2776 -0.6801
   75CHL1  H15A 6675   0.762  -0.273   3.164  0.3840  0.9985  0.0643
   75CHL1  H15B 6676   0.921  -0.319   3.117 -1.5840 -0.5076 -2.0087
   75CHL1   C16 6677   0.921  -0.182   3.294  0.0817  0.2017 -0.2823
   75CHL1  H16A 6678   0.861  -0.227   3.376 -1.4641 -0.8110 -1.9401
   75CHL1  H16B 6679   1.021  -0.216   3.329  1.2326  3.7868  0.1532
   75CHL1   C17 6680   0.916  -0.024   3.299  0.5561 -0.2535 -0.2930
   75CHL1   H17 6681   1.017   0.014   3.271 -0.1935  1.7684 -0.3147
   75CHL1   C13 6682   0.832   0.010   3.176  0.1433  0.0222 -0.0553
   75CHL1   C18 6683   0.681  -0.007   3.214  0.5461  0.0231  0.4014
   75CHL1  H18A 6684   0.656  -0.104   3.263  1.1971  0.0927  0.8670
   75CHL1  H18B 6685   0.637   0.072   3.278  1.1227 -0.6236  1.5968
   75CHL1  H18C 6686   0.624  -0.008   3.118  1.7511 -0.1874 -0.3258
   75CHL1   C12 6687   0.857   0.152   3.120  0.2333  0.0744 -0.2739
   75CHL1  H12A 6688   0.806   0.228   3.183 -1.1270  0.1532 -1.4606
   75CHL1  H12B 6689   0.965   0.178   3.113  0.5979 -1.0026  1.0665
   75CHL1   C11 6690   0.786   0.151   2.985 -0.6797 -0.0910 -0.2220
   75CHL1  H11A 6691   0.677   0.146   3.007 -0.4953 -1.3009  0.4445
   75CHL1  H11B 6692   0.790   0.245   2.926  0.1598 -0.6553 -1.0782
   75CHL1    C9 6693   0.834   0.045   2.884 -0.2187  0.5130  0.7098
   75CHL1    H9 6694   0.944   0.039   2.876 -0.1992 -0.0496  1.3627
   75CHL1   C10 6695   0.784   0.070   2.733 -0.5238  0.4827  0.0939
   75CHL1   C19 6696   0.641   0.117   2.734 -0.4887  0.1488 -0.1250
   75CHL1  H19A 6697   0.609   0.140   2.631 -2.9993 -0.8761  0.4029
   75CHL1  H19B 6698   0.568   0.047   2.779 -2.5222  0.7994 -2.3512
   75CHL1  H19C 6699   0.625   0.212   2.789 -0.5575  1.4755 -2.3779
   75CHL1    C1 6700   0.868   0.182   2.669  0.1921  0.1816  0.3693
   75CHL1   H1A 6701   0.873   0.278   2.724  0.1977  1.0734 -1.1771
   75CHL1   H1B 6702   0.976   0.154   2.668 -0.1371 -1.1165 -1.1118
   75CHL1    C2 6703   0.829   0.212   2.524 -0.3140  0.5244  0.2440
   75CHL1   H2A 6704   0.898   0.296   2.499 -0.0336 -0.2811 -1.8305
   75CHL1   H2B 6705   0.729   0.257   2.501 -1.0095 -1.4128 -0.5969
   75CHL1   C20 6706   0.889   0.027   3.438  0.0729 -0.3773 -0.0106
   75CHL1   H20 6707   0.783   0.005   3.465  0.7517 -0.8557  2.3183
   75CHL1   C21 6708   0.898   0.182   3.432  0.2926 -0.1223 -0.1682
   75CHL1  H21A 6709   0.993   0.211   3.382  1.6529 -0.6308  2.0724
   75CHL1  H21B 6710   0.894   0.239   3.527  0.7939  0.0654 -0.2574
   75CHL1  H21C 6711   0.807   0.220   3.380  0.1177 -1.8590 -1.2006
   75CHL1   C22 6712   0.983  -0.024   3.549  0.3303 -0.1935 -0.2347
   75CHL1  H22A 6713   0.993  -0.134   3.533  1.6147 -0.2086  0.5999
   75CHL1  H22B 6714   1.080   0.031   3.540 -0.4887  1.3151  0.0606
   75CHL1   C23 6715   0.931  -0.009   3.690 -0.4080  0.0565  0.1058
   75CHL1  H23A 6716   0.911   0.098   3.715  0.6451  0.3425 -0.2326
   75CHL1  H23B 6717   0.837  -0.063   3.714 -0.1412 -0.5323 -0.1795
   75CHL1   C24 6718   1.023  -0.070   3.798 -0.9738 -0.2689  0.0962
   75CHL1  H24A 6719   1.037  -0.173   3.759 -1.7587  0.1207 -1.2786
   75CHL1  H24B 6720   1.121  -0.018   3.799 -2.6311  2.9598  1.2019
   75CHL1   C25 6721   0.963  -0.077   3.940 -0.3352 -0.7354  0.0900
   75CHL1   H25 6722   0.861  -0.120   3.932 -1.1846  0.9109  1.6054
   75CHL1   C26 6723   1.036  -0.168   4.033  0.0778  0.0360 -0.0311
   75CHL1  H26A 6724   1.144  -0.154   4.008  0.4813 -1.9419  0.5429
   75CHL1  H26B 6725   1.017  -0.160   4.142 -1.3875 -0.1830 -0.2618
   75CHL1  H26C 6726   1.029  -0.278   4.017  1.6683 -0.3387  1.6816
   75CHL1   C27 6727   0.945   0.070   3.998 -0.3718 -0.1231  0.1000
   75CHL1  H27A 6728   1.048   0.113   3.996  0.1259 -1.0991  2.1477
   75CHL1  H27B 6729   0.860   0.119   3.948 -0.4945  0.9652  1.3435
   75CHL1  H27C 6730   0.911   0.060   4.104 -0.8763 -1.5450 -0.1839
   76CHL1    C3 6731   0.336   6.935   2.553  0.2327 -0.1226 -1.0087
   76CHL1    H3 6732   0.335   6.824   2.560  2.9856 -0.1794 -1.0284
   76CHL1    O3 6733   0.318   6.963   2.417 -0.6502  0.1287  0.2304
   76CHL1   H3' 6734   0.225   6.988   2.412 -0.6288  0.2145  0.2578
   76CHL1    C4 6735   0.225   7.012   2.626  0.4587  0.4596 -0.1650
   76CHL1   H4A 6736   0.231   7.120   2.600 -0.6828  0.4426 -0.5186
   76CHL1   H4B 6737   0.131   6.976   2.579  0.2086 -0.2709  0.8878
   76CHL1    C5 6738   0.233   6.982   2.774  0.9163 -0.1239  0.0873
   76CHL1    C6 6739   0.139   6.919   2.844 -0.5673 -0.0903  1.1809
   76CHL1    H6 6740   0.044   6.893   2.794  0.2307 -0.0723 -0.3629
   76CHL1    C7 6741   0.146   6.893   2.986  0.3824 -0.3008  0.2941
   76CHL1   H7A 6742   0.055   6.942   3.027  0.0656  1.3469 -2.3116
   76CHL1   H7B 6743   0.138   6.784   3.008 -0.5490 -0.1597  0.6668
   76CHL1    C8 6744   0.260   6.950   3.062 -0.0369  0.2753  0.0979
   76CHL1    H8 6745   0.234   7.056   3.084 -2.4777 -0.5632  1.4594
   76CHL1   C14 6746   0.278   6.870   3.191  0.2110  0.2630  0.0605
   76CHL1   H14 6747   0.308   6.772   3.150  0.4822  0.6870 -0.7591
   76CHL1   C15 6748   0.162   6.839   3.288 -0.4170  0.3014 -0.6079
   76CHL1  H15A 6749   0.093   6.925   3.303 -1.3920 -0.8727  2.0358
   76CHL1  H15B 6750   0.099   6.748   3.272 -1.0457  0.7477 -0.6666
   76CHL1   C16 6751   0.238   6.804   3.419 -0.4507  0.1187 -0.7209
   76CHL1  H16A 6752   0.201   6.878   3.493 -3.5777 -1.5608 -0.4999
   76CHL1  H16B 6753   0.210   6.699   3.446  0.5375 -0.8185 -3.1623
   76CHL1   C17 6754   0.390   6.805   3.391  0.3913 -1.3628 -0.2851
   76CHL1   H17 6755   0.424   6.709   3.347  4.9256  0.1039 -0.2640
   76CHL1   C13 6756   0.395   6.910   3.276 -0.0144 -0.2604 -0.3565
   76CHL1   C18 6757   0.378   7.053   3.333  0.0827 -0.3117 -0.7927
   76CHL1  H18A 6758   0.389   7.130   3.253 -0.0567  2.1585  1.4792
   76CHL1  H18B 6759   0.292   7.079   3.398  3.4583  3.0221  2.6300
   76CHL1  H18C 6760   0.464   7.073   3.401 -2.2165  2.1304  1.5045
   76CHL1   C12 6761   0.519   6.895   3.187 -0.6125 -0.3725  0.6228
   76CHL1  H12A 6762   0.612   6.921   3.241 -1.9565  1.0369  2.3422
   76CHL1  H12B 6763   0.540   6.789   3.162  2.5184  0.1119  1.0858
   76CHL1   C11 6764   0.512   6.981   3.059 -0.4581  0.0720 -0.0278
   76CHL1  H11A 6765   0.494   7.088   3.085  2.1741  0.4622  0.3673
   76CHL1  H11B 6766   0.599   6.954   2.995 -0.2723 -0.1934  0.3374
   76CHL1    C9 6767   0.384   6.945   2.977 -0.5110  0.0285 -0.3776
   76CHL1    H9 6768   0.394   6.838   2.951  0.2987 -0.4396  1.7793
   76CHL1   C10 6769   0.365   7.013   2.840 -0.4777 -0.1004  0.0575
   76CHL1   C19 6770   0.377   7.173   2.863  0.3999 -0.3597  0.4157
   76CHL1  H19A 6771   0.300   7.209   2.935 -0.0185 -1.0926  0.3379
   76CHL1  H19B 6772   0.471   7.195   2.918  0.2650 -1.2535  1.0022
   76CHL1  H19C 6773   0.374   7.230   2.768  1.3771 -0.6857  0.1806
   76CHL1    C1 6774   0.483   6.960   2.746  0.3133 -0.0523 -0.3356
   76CHL1   H1A 6775   0.570   7.016   2.787 -0.7562 -0.3069  2.3995
   76CHL1   H1B 6776   0.502   6.852   2.765 -0.7622 -0.3784 -1.0698
   76CHL1    C2 6777   0.471   6.987   2.596  0.2500 -0.5068 -0.1830
   76CHL1   H2A 6778   0.564   6.945   2.553  0.1654  0.8968 -1.7894
   76CHL1   H2B 6779   0.479   7.094   2.569 -1.9583 -0.1540  0.4738
   76CHL1   C20 6780   0.468   6.831   3.528  0.9045 -0.3702  0.3657
   76CHL1   H20 6781   0.429   6.929   3.564  0.1011 -0.3239 -0.6385
   76CHL1   C21 6782   0.617   6.837   3.507  0.8380  0.3239  0.4530
   76CHL1  H21A 6783   0.654   6.747   3.453  0.7766  0.4655  0.1769
   76CHL1  H21B 6784   0.665   6.838   3.607  1.4789 -0.8738  0.1716
   76CHL1  H21C 6785   0.645   6.930   3.454 -1.1987 -0.2473 -1.6945
   76CHL1   C22 6786   0.442   6.718   3.631 -0.2343  0.8561  1.4121
   76CHL1  H22A 6787   0.340   6.675   3.618  0.0279  0.5566  0.3213
   76CHL1  H22B 6788   0.514   6.634   3.625 -2.7867 -1.4576  2.1392
   76CHL1   C23 6789   0.459   6.769   3.778  0.2762  0.2984  0.9045
   76CHL1  H23A 6790   0.445   6.678   3.841  1.1689 -1.9965 -2.0970
   76CHL1  H23B 6791   0.567   6.790   3.787  0.1548  0.0658  3.0487
   76CHL1   C24 6792   0.381   6.888   3.825  0.1555 -0.4715 -0.1982
   76CHL1  H24A 6793   0.403   6.920   3.928  1.6343 -0.9343 -0.3515
   76CHL1  H24B 6794   0.405   6.978   3.765 -0.1941  0.9713  1.7914
   76CHL1   C25 6795   0.230   6.869   3.819  0.6405  0.0813  0.0738
   76CHL1   H25 6796   0.194   6.838   3.719 -0.5309 -0.2139  0.5735
   76CHL1   C26 6797   0.179   6.765   3.920 -0.9823  0.4111 -0.3978
   76CHL1  H26A 6798   0.229   6.778   4.018 -3.8048 -2.1229  1.4602
   76CHL1  H26B 6799   0.068   6.764   3.930 -0.9511  0.7619  0.0024
   76CHL1  H26C 6800   0.207   6.661   3.892 -0.3749 -0.5411  3.5099
   76CHL1   C27 6801   0.164   7.007   3.848  0.0307  0.2223  0.7006
   76CHL1  H27A 6802   0.203   7.093   3.789 -2.3290  1.1761  0.4474
   76CHL1  H27B 6803   0.056   6.995   3.824  0.5108 -1.7908 -0.5472
   76CHL1  H27C 6804   0.190   7.037   3.952 -1.3693  3.2123  0.2419
   77SOPE     N 6805   3.499   3.904   6.643  0.1671 -0.4689  0.3360
   77SOPE   HN1 6806   3.420   3.864   6.697 -0.4585 -0.3249 -0.4635
   77SOPE   HN2 6807   3.501   3.837   6.563  0.1679  1.5218 -1.3669
   77SOPE   HN3 6808   3.583   3.888   6.703  0.5820 -0.3445 -0.2076
   77SOPE   C12 6809   3.480   4.047   6.601  0.3756  0.4668 -0.1917
   77SOPE  H12A 6810   3.564   4.074   6.533 -0.7019  1.0665 -1.3017
   77SOPE  H12B 6811   3.485   4.110   6.693 -1.5236 -0.4404  0.5744
   77SOPE   C11 6812   3.332   4.068   6.547  0.6317  0.1317  0.1330
   77SOPE  H11A 6813   3.310   4.175   6.565  0.4293 -0.2677  2.4336
   77SOPE  H11B 6814   3.256   4.015   6.609 -0.1191  0.3071 -0.6337
   77SOPE     P 6815   3.184   4.058   6.343 -0.0752 -0.3758  0.4860
   77SOPE   O13 6816   3.079   4.094   6.440 -0.4401 -0.2346 -0.4729
   77SOPE   O14 6817   3.149   3.949   6.245 -0.3189  0.2759 -0.2644
   77SOPE   O12 6818   3.323   4.030   6.404 -0.9735 -0.2602  0.6104
   77SOPE   O11 6819   3.215   4.184   6.270 -0.0387  0.7038 -0.8022
   77SOPE    C1 6820   3.332   4.268   6.289  0.1340 -0.2375 -0.3215
   77SOPE    HA 6821   3.419   4.200   6.277  2.0037  1.8027  1.2287
   77SOPE    HB 6822   3.341   4.291   6.398  1.3585 -0.1915 -0.4295
   77SOPE    C2 6823   3.325   4.386   6.185  0.2256 -0.3506  0.4178
   77SOPE    HS 6824   3.240   4.455   6.204  0.3952  0.1500 -0.6186
   77SOPE   O21 6825   3.318   4.324   6.052  0.2458 -0.0502  0.4614
   77SOPE   C21 6826   3.224   4.371   5.979  0.1479 -0.9412  0.8985
   77SOPE   O22 6827   3.143   4.461   6.007  0.8110 -0.1164 -0.2155
   77SOPE   C22 6828   3.231   4.302   5.846  0.3150 -0.0283 -0.8424
   77SOPE   H2R 6829   3.139   4.326   5.788  1.3625  0.5365 -2.3139
   77SOPE   H2S 6830   3.222   4.195   5.874  0.4723  0.1486 -0.1009
   77SOPE    C3 6831   3.461   4.473   6.186 -0.0366 -0.4181 -0.4283
   77SOPE    HX 6832   3.547   4.403   6.177 -1.0018 -2.1202  2.8712
   77SOPE    HY 6833   3.475   4.503   6.292 -3.5251 -1.2746  0.3356
   77SOPE   O31 6834   3.477   4.586   6.095  0.1710  0.0701 -0.1151
   77SOPE   C31 6835   3.453   4.708   6.131 -0.1150  0.1863 -0.6911
   77SOPE   O32 6836   3.398   4.754   6.232  0.4872  0.4675  0.6003
   77SOPE   C32 6837   3.497   4.795   6.014 -0.3345  0.0636 -0.3434
   77SOPE   H2X 6838   3.571   4.743   5.949  0.4226  0.1490  0.4302
   77SOPE   H2Y 6839   3.534   4.893   6.053 -0.3587 -0.3097  0.6460
   77SOPE   C23 6840   3.353   4.340   5.759 -0.0882  0.8814 -0.1005
   77SOPE   H3R 6841   3.451   4.331   5.811  1.3507 -0.0454 -2.8729
   77SOPE   H3S 6842   3.342   4.450   5.745  1.6309  0.8222 -2.1964
   77SOPE   C24 6843   3.365   4.253   5.630 -0.1064  0.1739  0.1574
   77SOPE   H4R 6844   3.401   4.152   5.662  0.1180  0.4917  0.9344
   77SOPE   H4S 6845   3.261   4.243   5.592 -0.2688  0.6541  0.4618
   77SOPE   C25 6846   3.457   4.310   5.528  0.0960  0.4149  0.1331
   77SOPE   H5R 6847   3.463   4.421   5.530 -0.5385  0.4298  1.6191
   77SOPE   H5S 6848   3.553   4.265   5.561  0.4055  0.5791 -0.5285
   77SOPE   C26 6849   3.431   4.258   5.380 -0.2111  0.3493 -0.0057
   77SOPE   H6R 6850   3.410   4.149   5.384 -0.9088  0.4311 -1.2898
   77SOPE   H6S 6851   3.337   4.308   5.348  0.3280  1.3589 -0.0328
   77SOPE   C27 6852   3.546   4.298   5.284  0.2954 -0.1259 -0.2699
   77SOPE   H7R 6853   3.548   4.406   5.257  0.2122  0.4763  2.0284
   77SOPE   H7S 6854   3.644   4.260   5.322 -0.8672 -1.6248  1.3152
   77SOPE   C28 6855   3.512   4.225   5.147 -0.1013 -0.3980  0.2194
   77SOPE   H8R 6856   3.616   4.215   5.108 -0.2165  0.1844 -0.2376
   77SOPE   H8S 6857   3.464   4.126   5.166 -0.9350  0.1736  1.1475
   77SOPE   C29 6858   3.427   4.306   5.050 -0.0078  0.3082  0.4394
   77SOPE   H91 6859   3.343   4.360   5.097  0.1215  0.4791  0.4726
   77SOPE  C210 6860   3.435   4.318   4.917  0.0979 -0.2645  0.2074
   77SOPE  H101 6861   3.373   4.389   4.861  0.2230 -0.2450  0.0933
   77SOPE  C211 6862   3.534   4.244   4.827  0.4337  0.4706 -0.1543
   77SOPE  H11R 6863   3.565   4.144   4.865  1.2744  1.3893  1.6581
   77SOPE  H11S 6864   3.628   4.303   4.818  0.1827  0.5236 -2.7149
   77SOPE  C212 6865   3.501   4.225   4.674  0.7229  0.0278 -0.3107
   77SOPE  H12R 6866   3.417   4.155   4.654 -0.1852  1.7570 -2.7541
   77SOPE  H12S 6867   3.595   4.179   4.636  1.2980 -0.1400  1.2444
   77SOPE  C213 6868   3.478   4.356   4.611  0.9001  1.0882  1.0471
   77SOPE  H13R 6869   3.538   4.439   4.654 -0.0136  2.6270 -0.5858
   77SOPE  H13S 6870   3.373   4.379   4.638 -0.4242 -2.7368 -0.4584
   77SOPE  C214 6871   3.506   4.358   4.465 -0.4991  0.4038  0.0985
   77SOPE  H14R 6872   3.436   4.284   4.419  0.5861 -0.0575 -0.8238
   77SOPE  H14S 6873   3.608   4.325   4.435  0.1361  2.6447 -0.2592
   77SOPE  C215 6874   3.499   4.501   4.402  1.1033  0.2160 -0.0218
   77SOPE  H15R 6875   3.598   4.552   4.402  1.4718 -0.4733  0.9706
   77SOPE  H15S 6876   3.424   4.562   4.457  0.6888 -0.7371  0.4949
   77SOPE  C216 6877   3.441   4.492   4.258 -0.4351  0.4309  0.0052
   77SOPE  H16R 6878   3.355   4.422   4.258 -0.4660  0.4689  0.6369
   77SOPE  H16S 6879   3.519   4.449   4.191 -1.2833 -0.8825 -0.1491
   77SOPE  C217 6880   3.396   4.634   4.204  0.4684 -0.6196  0.1481
   77SOPE  H17R 6881   3.390   4.642   4.093  0.3085  0.5787  0.2345
   77SOPE  H17S 6882   3.483   4.697   4.233 -0.1719  0.4154 -0.1720
   77SOPE  C218 6883   3.261   4.680   4.266 -0.7549 -0.0554  0.0889
   77SOPE  H18R 6884   3.189   4.612   4.217  0.0460  0.3833 -1.7269
   77SOPE  H18S 6885   3.235   4.782   4.230 -1.4615 -0.8341 -1.6084
   77SOPE  H18T 6886   3.250   4.674   4.376 -1.3826  0.6037  0.0682
   77SOPE   C33 6887   3.391   4.826   5.904 -0.8139 -0.0759 -0.2817
   77SOPE   H3X 6888   3.314   4.896   5.942  0.6966  0.6846  1.4772
   77SOPE   H3Y 6889   3.334   4.734   5.882 -1.4078  0.1832  0.1571
   77SOPE   C34 6890   3.448   4.878   5.766 -0.1251 -0.8261 -0.8034
   77SOPE   H4X 6891   3.520   4.962   5.784 -1.1856  0.0609 -0.6618
   77SOPE   H4Y 6892   3.369   4.926   5.704  1.3764  0.7073 -1.5847
   77SOPE   C35 6893   3.513   4.769   5.678 -1.0124  0.5542  0.9045
   77SOPE   H5X 6894   3.444   4.682   5.683  1.8959 -2.0458 -1.6203
   77SOPE   H5Y 6895   3.619   4.749   5.702 -1.0512 -1.4845 -0.4501
   77SOPE   C36 6896   3.512   4.816   5.530  0.4534  0.3809 -0.2079
   77SOPE   H6X 6897   3.577   4.907   5.537  0.3434  0.2818  2.8913
   77SOPE   H6Y 6898   3.413   4.830   5.482  0.1999 -1.6222 -0.3126
   77SOPE   C37 6899   3.584   4.719   5.439 -0.2495  0.4163 -0.1908
   77SOPE   H7X 6900   3.512   4.636   5.421 -0.1929  0.5895 -1.2512
   77SOPE   H7Y 6901   3.680   4.701   5.492  1.0838 -0.0299 -2.6696
   77SOPE   C38 6902   3.598   4.772   5.293 -1.0813  0.1455  0.3966
   77SOPE   H8X 6903   3.672   4.855   5.291  1.6077 -2.2220 -0.6551
   77SOPE   H8Y 6904   3.502   4.819   5.262 -0.4655  2.3365  1.6967
   77SOPE   C39 6905   3.628   4.666   5.181  0.9367  0.5710 -0.5533
   77SOPE   H9X 6906   3.536   4.608   5.155 -0.7531  1.6463  2.6893
   77SOPE   H9Y 6907   3.700   4.594   5.226  0.0761 -0.9413 -1.5428
   77SOPE  C310 6908   3.684   4.733   5.050 -0.4880  0.1747  0.1867
   77SOPE  H10X 6909   3.772   4.793   5.083  0.2277 -1.1709  0.7828
   77SOPE  H10Y 6910   3.602   4.787   4.998 -2.6413 -2.3569  0.8015
   77SOPE  C311 6911   3.751   4.637   4.943  0.3854  0.0620 -0.8420
   77SOPE  H11X 6912   3.674   4.561   4.920  0.6647 -0.9255  1.4208
   77SOPE  H11Y 6913   3.832   4.581   4.994 -0.0716  0.3432  0.2083
   77SOPE  C312 6914   3.788   4.714   4.818  0.4787  0.5221 -0.5670
   77SOPE  H12X 6915   3.872   4.785   4.830 -0.1266  1.1386  0.1137
   77SOPE  H12Y 6916   3.694   4.771   4.800 -0.9114 -1.0697  1.4253
   77SOPE  C313 6917   3.833   4.612   4.716  0.3841  0.3590 -0.4045
   77SOPE  H13X 6918   3.752   4.538   4.698 -0.2974  0.5286  1.8522
   77SOPE  H13Y 6919   3.925   4.564   4.754  0.3344  1.8061  1.6039
   77SOPE  C314 6920   3.872   4.678   4.583  0.3602 -0.5480 -0.4658
   77SOPE  H14X 6921   3.933   4.768   4.604 -1.3538  0.5118  0.0708
   77SOPE  H14Y 6922   3.774   4.713   4.543  0.6194 -0.4935 -1.0457
   77SOPE  C315 6923   3.924   4.584   4.484 -0.3237  0.5914  0.5689
   77SOPE  H15X 6924   3.837   4.516   4.470  0.4784 -0.6690  1.5283
   77SOPE  H15Y 6925   4.003   4.517   4.524 -0.3878  0.8427  1.1241
   77SOPE  C316 6926   3.966   4.647   4.350  0.7568 -1.0044  0.1353
   77SOPE  H16X 6927   4.072   4.682   4.361 -0.4602  2.5344  1.3801
   77SOPE  H16Y 6928   3.901   4.730   4.316  1.4372  0.3145  1.9300
   77SOPE  C317 6929   3.978   4.542   4.232  0.7021  0.0779 -0.9096
   77SOPE  H17X 6930   4.001   4.594   4.137 -1.1856  0.5424 -1.1433
   77SOPE  H17Y 6931   3.873   4.509   4.216  0.4149 -1.1825  2.9400
   77SOPE  C318 6932   4.070   4.423   4.249  1.0067  0.3587  0.3072
   77SOPE  H18X 6933   4.055   4.373   4.347  0.0743 -2.7836 -1.3733
   77SOPE  H18Y 6934   4.175   4.456   4.237  0.1438  2.1509 -2.8938
   77SOPE  H18Z 6935   4.043   4.354   4.166  0.5034 -0.3557  1.0576
   78SOPE     N 6936   2.035   4.051   6.625  0.2979 -0.2006 -0.3304
   78SOPE   HN1 6937   2.137   4.033   6.623 -0.3250 -4.3624  0.1827
   78SOPE   HN2 6938   2.007   4.127   6.560  2.6314  1.8290  0.9594
   78SOPE   HN3 6939   2.017   4.087   6.721  1.4290 -1.0602  0.2104
   78SOPE   C12 6940   1.952   3.925   6.594 -0.5954  0.4780  0.4554
   78SOPE  H12A 6941   1.848   3.948   6.624 -1.1861  0.7592 -1.7146
   78SOPE  H12B 6942   1.986   3.840   6.657  1.9715 -0.8142 -2.4860
   78SOPE   C11 6943   1.960   3.883   6.440 -0.1922 -0.7657  0.1977
   78SOPE  H11A 6944   1.890   3.800   6.416  0.2390 -1.4023  1.1166
   78SOPE  H11B 6945   2.063   3.848   6.418  0.5266  1.1755  0.3910
   78SOPE     P 6946   1.782   4.021   6.314 -0.1801  0.2699  0.1017
   78SOPE   O13 6947   1.699   3.983   6.430  0.5158 -0.3281 -0.3733
   78SOPE   O14 6948   1.756   3.953   6.182  0.1080 -0.0444  0.1649
   78SOPE   O12 6949   1.938   4.005   6.357 -0.3621  0.3037 -0.1622
   78SOPE   O11 6950   1.763   4.175   6.294  0.4139 -0.0596  0.0647
   78SOPE    C1 6951   1.878   4.253   6.253 -0.7787 -0.3719 -0.0158
   78SOPE    HA 6952   1.926   4.204   6.166 -3.7613 -1.4446 -1.1263
   78SOPE    HB 6953   1.954   4.277   6.331  0.1475  1.3942 -1.4170
   78SOPE    C2 6954   1.835   4.388   6.200 -0.3879  0.0910  0.0690
   78SOPE    HS 6955   1.788   4.438   6.288  1.7057  1.2779  0.5332
   78SOPE   O21 6956   1.736   4.372   6.088  0.1324 -0.0193 -0.3477
   78SOPE   C21 6957   1.651   4.473   6.074 -0.4699  0.4305  0.1128
   78SOPE   O22 6958   1.641   4.571   6.144 -0.0007  0.5347  0.4762
   78SOPE   C22 6959   1.547   4.431   5.972 -0.5161 -0.4963 -0.2904
   78SOPE   H2R 6960   1.449   4.447   6.022  0.4018  0.4897  1.1909
   78SOPE   H2S 6961   1.568   4.325   5.944  0.0420  0.1151 -2.2378
   78SOPE    C3 6962   1.953   4.478   6.143 -0.5304  0.2796 -0.0130
   78SOPE    HX 6963   2.034   4.473   6.218  0.0634  0.1480 -0.6532
   78SOPE    HY 6964   1.927   4.586   6.145 -0.2239  0.3394  1.0573
   78SOPE   O31 6965   1.989   4.448   6.006 -0.1469 -0.0839  0.3375
   78SOPE   C31 6966   2.108   4.401   5.989 -0.2976 -0.6075 -0.2224
   78SOPE   O32 6967   2.186   4.361   6.072 -0.4592 -0.1468  0.0460
   78SOPE   C32 6968   2.134   4.414   5.836  0.5362 -0.4391 -0.2155
   78SOPE   H2X 6969   2.038   4.397   5.784 -0.1300 -1.0577  1.1946
   78SOPE   H2Y 6970   2.189   4.319   5.819 -1.3688 -2.0247  2.2197
   78SOPE   C23 6971   1.548   4.524   5.846 -0.0200 -0.8251 -0.0406
   78SOPE   H3R 6972   1.537   4.629   5.880 -1.6382 -1.2651  0.8371
   78SOPE   H3S 6973   1.463   4.504   5.777 -1.1219 -0.6588  1.2601
   78SOPE   C24 6974   1.675   4.510   5.761  0.0223 -0.2674  0.0434
   78SOPE   H4R 6975   1.751   4.585   5.792  0.7854 -1.2328  0.5179
   78SOPE   H4S 6976   1.719   4.411   5.783 -0.7261 -0.3046  1.3836
   78SOPE   C25 6977   1.660   4.525   5.602 -0.3040  0.3748 -0.9934
   78SOPE   H5R 6978   1.600   4.437   5.569 -0.4712 -1.2488  3.3281
   78SOPE   H5S 6979   1.610   4.622   5.578  0.8585  0.7314 -2.0314
   78SOPE   C26 6980   1.790   4.530   5.519  0.2197 -0.6212  0.4819
   78SOPE   H6R 6981   1.849   4.624   5.528  0.1857 -0.5115 -0.4472
   78SOPE   H6S 6982   1.847   4.441   5.554  0.3333  0.4101  3.0446
   78SOPE   C27 6983   1.758   4.511   5.373 -0.2564  0.5451  0.4423
   78SOPE   H7R 6984   1.854   4.500   5.317 -0.0232  2.3461  0.4688
   78SOPE   H7S 6985   1.699   4.421   5.346 -0.2623  0.5090  0.5743
   78SOPE   C28 6986   1.698   4.639   5.311  0.6322  0.0254 -0.0827
   78SOPE   H8R 6987   1.635   4.690   5.388 -0.2638  2.4295 -2.3484
   78SOPE   H8S 6988   1.775   4.717   5.293 -0.7299  0.8739 -2.3701
   78SOPE   C29 6989   1.619   4.595   5.193  0.0358  0.5529  0.1476
   78SOPE   H91 6990   1.680   4.562   5.108 -1.4781 -2.3696  0.1391
   78SOPE  C210 6991   1.485   4.584   5.193 -0.3920  0.0476  0.1126
   78SOPE  H101 6992   1.439   4.536   5.105 -0.2991 -0.0509  0.1170
   78SOPE  C211 6993   1.389   4.620   5.304  0.7940 -0.4314  1.0691
   78SOPE  H11R 6994   1.325   4.707   5.280  0.8715 -0.7279 -0.2643
   78SOPE  H11S 6995   1.443   4.645   5.397 -0.1095 -2.7182  2.2469
   78SOPE  C212 6996   1.298   4.502   5.347  0.1073  0.2642 -0.7476
   78SOPE  H12R 6997   1.352   4.405   5.337 -3.2705 -1.9273  1.4278
   78SOPE  H12S 6998   1.203   4.494   5.291 -0.4698 -0.3022  0.3034
   78SOPE  C213 6999   1.259   4.519   5.498  0.2494  0.5634  0.0074
   78SOPE  H13R 7000   1.215   4.620   5.500 -1.2134 -0.0453 -0.7958
   78SOPE  H13S 7001   1.347   4.518   5.566  0.6816  1.7294 -0.5369
   78SOPE  C214 7002   1.151   4.418   5.544 -0.9745 -0.1888  0.1619
   78SOPE  H14R 7003   1.210   4.324   5.541  0.7173  0.8202  0.4986
   78SOPE  H14S 7004   1.070   4.413   5.468 -0.8171  1.3792 -0.1404
   78SOPE  C215 7005   1.087   4.437   5.686 -0.5550 -0.2011  1.0508
   78SOPE  H15R 7006   1.024   4.347   5.701 -0.9811 -0.3531 -1.4178
   78SOPE  H15S 7007   1.020   4.525   5.698 -1.7351 -0.9833  0.2112
   78SOPE  C216 7008   1.193   4.450   5.788 -0.4972 -1.0554  0.3335
   78SOPE  H16R 7009   1.239   4.547   5.760  1.3358 -2.1409 -0.5254
   78SOPE  H16S 7010   1.267   4.368   5.776  2.6642  2.1475 -3.4275
   78SOPE  C217 7011   1.153   4.455   5.935  0.0107  0.1932 -0.3615
   78SOPE  H17R 7012   1.248   4.475   5.989  0.5534  2.1967 -1.9896
   78SOPE  H17S 7013   1.106   4.364   5.976  2.6901  0.1630  2.9316
   78SOPE  C218 7014   1.061   4.576   5.974  0.5278  0.4549 -0.0837
   78SOPE  H18R 7015   1.011   4.564   6.073  0.1305 -0.2943 -0.3759
   78SOPE  H18S 7016   0.986   4.589   5.894 -1.5044  0.9626  1.8512
   78SOPE  H18T 7017   1.125   4.667   5.973  0.1839  0.7339  1.3672
   78SOPE   C33 7018   2.222   4.532   5.800 -0.0719  0.4242  0.3518
   78SOPE   H3X 7019   2.309   4.533   5.868  0.3790  1.0933 -0.2210
   78SOPE   H3Y 7020   2.154   4.619   5.810 -0.0153  0.8372 -2.3107
   78SOPE   C34 7021   2.278   4.555   5.661 -0.3320 -0.4598  0.4237
   78SOPE   H4X 7022   2.345   4.642   5.675  0.5767 -0.8935 -1.0535
   78SOPE   H4Y 7023   2.202   4.587   5.587 -0.0103 -2.0530 -0.6231
   78SOPE   C35 7024   2.355   4.437   5.612  0.5237  0.0402 -0.2201
   78SOPE   H5X 7025   2.301   4.340   5.614  0.6004 -0.1124 -3.1369
   78SOPE   H5Y 7026   2.440   4.425   5.683  1.1829 -2.1853 -1.3512
   78SOPE   C36 7027   2.389   4.463   5.457 -0.1407 -0.3636  0.1184
   78SOPE   H6X 7028   2.441   4.562   5.450 -0.2838 -0.2404  0.7745
   78SOPE   H6Y 7029   2.293   4.492   5.410 -1.3815 -2.0521  1.5730
   78SOPE   C37 7030   2.453   4.348   5.389  0.3353  0.1343 -0.3728
   78SOPE   H7X 7031   2.389   4.259   5.407 -1.1011  1.9220  3.9216
   78SOPE   H7Y 7032   2.555   4.322   5.425  0.1038  0.8109  0.7889
   78SOPE   C38 7033   2.470   4.367   5.238 -0.0998  0.0328  0.1212
   78SOPE   H8X 7034   2.549   4.443   5.217 -0.5453  0.7705  1.0772
   78SOPE   H8Y 7035   2.368   4.394   5.203 -1.4345  0.3008  3.9990
   78SOPE   C39 7036   2.519   4.241   5.174 -0.9015 -0.4240  0.5699
   78SOPE   H9X 7037   2.438   4.165   5.183 -0.3363 -1.2284 -0.9490
   78SOPE   H9Y 7038   2.610   4.202   5.224 -0.0741 -0.4606 -0.9461
   78SOPE  C310 7039   2.547   4.268   5.020  0.3627 -0.2645 -0.7311
   78SOPE  H10X 7040   2.638   4.332   5.015 -0.3105  0.7099 -0.6094
   78SOPE  H10Y 7041   2.461   4.319   4.971 -0.3731 -1.8786 -1.1572
   78SOPE  C311 7042   2.575   4.134   4.950 -0.0875  0.1599  0.8347
   78SOPE  H11X 7043   2.490   4.066   4.971  0.0202 -0.2335  0.0153
   78SOPE  H11Y 7044   2.656   4.079   5.003 -0.7590 -0.8417  0.8240
   78SOPE  C312 7045   2.612   4.153   4.806  0.2436 -0.2883 -0.0878
   78SOPE  H12X 7046   2.696   4.226   4.799 -1.1458  1.6632  2.5815
   78SOPE  H12Y 7047   2.529   4.201   4.750  2.3461  1.1794 -2.0444
   78SOPE  C313 7048   2.639   4.019   4.733 -0.2628 -0.2997  0.0854
   78SOPE  H13X 7049   2.561   3.940   4.732 -1.0289  0.4438  0.5534
   78SOPE  H13Y 7050   2.720   3.977   4.797 -1.7180  0.7819  2.6627
   78SOPE  C314 7051   2.703   4.036   4.588 -0.4744 -0.1104 -0.4543
   78SOPE  H14X 7052   2.763   4.129   4.596 -0.3464 -0.0536 -1.9662
   78SOPE  H14Y 7053   2.627   4.043   4.507 -0.5119  1.9994 -0.2589
   78SOPE  C315 7054   2.802   3.928   4.553  0.2393 -0.7007  0.8577
   78SOPE  H15X 7055   2.883   3.935   4.628  0.5121 -1.2072  0.6117
   78SOPE  H15Y 7056   2.844   3.953   4.453 -1.3514  1.1817  0.6114
   78SOPE  C316 7057   2.747   3.789   4.533  0.3001 -0.1640 -0.0749
   78SOPE  H16X 7058   2.683   3.787   4.442 -0.2616 -1.0439  0.3387
   78SOPE  H16Y 7059   2.675   3.766   4.615  0.2123  0.6415  0.0781
   78SOPE  C317 7060   2.844   3.679   4.503  0.0862  0.3834  0.2482
   78SOPE  H17X 7061   2.801   3.579   4.523  1.5567 -0.2733  0.1219
   78SOPE  H17Y 7062   2.916   3.685   4.587 -2.1088 -1.4905  2.3518
   78SOPE  C318 7063   2.928   3.684   4.372  0.0196 -0.4842 -0.0957
   78SOPE  H18X 7064   2.993   3.594   4.362 -0.7506 -1.1827  0.9849
   78SOPE  H18Y 7065   2.980   3.782   4.371 -0.3041 -0.2966  1.0908
   78SOPE  H18Z 7066   2.856   3.675   4.288 -1.6703 -3.8007  1.6014
   79SOPE     N 7067   4.517   1.751   6.357  0.4804  0.6208 -0.4222
   79SOPE   HN1 7068   4.482   1.832   6.303 -0.6364 -0.0747 -0.7631
   79SOPE   HN2 7069   4.621   1.744   6.358  0.4593  0.3648  0.1334
   79SOPE   HN3 7070   4.488   1.663   6.309  0.1862  1.3195 -1.5263
   79SOPE   C12 7071   4.441   1.765   6.487  0.4913  0.0948  0.3875
   79SOPE  H12A 7072   4.505   1.815   6.562  1.4751  0.4779 -0.6923
   79SOPE  H12B 7073   4.427   1.661   6.525  2.3495 -1.0823 -2.0032
   79SOPE   C11 7074   4.306   1.821   6.460  0.8024  0.5136 -0.2165
   79SOPE  H11A 7075   4.251   1.851   6.551 -1.4410  2.6181 -2.1862
   79SOPE  H11B 7076   4.234   1.760   6.402  0.2433  0.2446  0.7617
   79SOPE     P 7077   4.301   1.990   6.251 -0.1400  0.3170  0.2771
   79SOPE   O13 7078   4.410   1.927   6.186  0.2602 -0.1126  0.3095
   79SOPE   O14 7079   4.294   2.137   6.227  0.1123 -0.5551 -1.2265
   79SOPE   O12 7080   4.324   1.953   6.405  0.0739 -0.3927  0.6336
   79SOPE   O11 7081   4.166   1.920   6.221 -0.5508 -0.3415 -0.1286
   79SOPE    C1 7082   4.044   1.979   6.232  0.4725  0.0115  0.2935
   79SOPE    HA 7083   4.056   2.085   6.204  1.2167 -0.2346 -0.3433
   79SOPE    HB 7084   4.007   1.977   6.337  3.7905 -0.8737  1.5106
   79SOPE    C2 7085   3.937   1.906   6.149  0.2729  0.2025  0.0437
   79SOPE    HS 7086   3.898   1.814   6.197  1.8043 -1.0630 -1.0843
   79SOPE   O21 7087   4.004   1.877   6.027 -0.3052 -0.6371  0.0998
   79SOPE   C21 7088   3.951   1.802   5.935  0.3322 -0.0339  0.7769
   79SOPE   O22 7089   3.849   1.740   5.944  0.4667  0.2532  0.7067
   79SOPE   C22 7090   4.008   1.827   5.791  0.3502  0.2103 -0.1719
   79SOPE   H2R 7091   4.053   1.734   5.750  2.1003  1.4373 -1.1085
   79SOPE   H2S 7092   4.079   1.911   5.803 -0.1973  0.7259 -0.5073
   79SOPE    C3 7093   3.814   1.999   6.126 -0.5443  0.2345 -0.1363
   79SOPE    HX 7094   3.772   2.026   6.225  0.0872 -1.4878  0.6124
   79SOPE    HY 7095   3.730   1.949   6.072 -2.3193  0.4761  2.3437
   79SOPE   O31 7096   3.860   2.112   6.055  0.4585  0.2980  0.7245
   79SOPE   C31 7097   3.794   2.146   5.946 -0.6722  0.1686  0.4197
   79SOPE   O32 7098   3.693   2.092   5.907  0.0043 -0.1245 -0.0601
   79SOPE   C32 7099   3.855   2.260   5.861  0.1362 -0.4127  0.3827
   79SOPE   H2X 7100   3.965   2.242   5.869 -0.0462 -1.0552  1.4932
   79SOPE   H2Y 7101   3.818   2.348   5.918  0.4749  0.2555 -0.4221
   79SOPE   C23 7102   3.902   1.884   5.686 -0.3564  0.5226 -0.2988
   79SOPE   H3R 7103   3.855   1.973   5.733 -2.3054 -1.3736  1.4854
   79SOPE   H3S 7104   3.834   1.796   5.678  0.9644 -0.7233  1.8376
   79SOPE   C24 7105   3.967   1.932   5.557  0.2979  0.2150  0.1922
   79SOPE   H4R 7106   3.895   1.999   5.506  0.6111  1.3758  1.2404
   79SOPE   H4S 7107   4.063   1.988   5.569 -0.3860  0.7275  3.7287
   79SOPE   C25 7108   4.007   1.821   5.453  0.2457  0.1158 -0.0145
   79SOPE   H5R 7109   4.067   1.739   5.498  0.4421  1.3152  1.9426
   79SOPE   H5S 7110   3.907   1.781   5.425  0.2058 -0.0243  0.3282
   79SOPE   C26 7111   4.066   1.893   5.334  0.2145 -0.1151 -0.5438
   79SOPE   H6R 7112   3.999   1.978   5.310 -1.7841 -0.8426  2.2285
   79SOPE   H6S 7113   4.161   1.928   5.380 -0.8429  1.1557  0.7143
   79SOPE   C27 7114   4.087   1.808   5.215  0.3413 -0.4559  0.0130
   79SOPE   H7R 7115   4.174   1.750   5.252  1.5974  1.8621  0.7857
   79SOPE   H7S 7116   3.998   1.743   5.198  0.5005 -0.4612 -0.8338
   79SOPE   C28 7117   4.137   1.892   5.099  0.7154  0.3311  0.4945
   79SOPE   H8R 7118   4.054   1.953   5.057 -0.0603 -0.3932  0.9774
   79SOPE   H8S 7119   4.207   1.970   5.137 -0.3761  1.5484  0.0282
   79SOPE   C29 7120   4.196   1.805   4.985 -0.1556 -0.0500 -0.4382
   79SOPE   H91 7121   4.124   1.731   4.948  0.2318 -0.0376 -1.2353
   79SOPE  C210 7122   4.311   1.812   4.914  0.0432  0.0020 -0.2287
   79SOPE  H101 7123   4.342   1.743   4.834  0.6475  0.8765 -0.7639
   79SOPE  C211 7124   4.404   1.928   4.945  0.2008 -0.0300  0.0933
   79SOPE  H11R 7125   4.364   2.014   5.003 -0.9488  0.1573 -0.9466
   79SOPE  H11S 7126   4.437   1.978   4.851 -0.3716 -0.8851 -0.5740
   79SOPE  C212 7127   4.516   1.866   5.029 -0.0455 -0.0957 -0.7817
   79SOPE  H12R 7128   4.557   1.781   4.972  2.4954  1.2812 -1.0798
   79SOPE  H12S 7129   4.478   1.816   5.121 -0.2253  0.5521 -0.4956
   79SOPE  C213 7130   4.635   1.957   5.068 -0.2526  0.1828  0.4801
   79SOPE  H13R 7131   4.603   2.058   5.103  3.8331  1.8227 -0.2684
   79SOPE  H13S 7132   4.701   1.965   4.979  0.2294  0.1296  0.8361
   79SOPE  C214 7133   4.721   1.898   5.184  0.6818 -0.2427  0.0571
   79SOPE  H14R 7134   4.827   1.929   5.170 -0.3783  3.6546  0.1537
   79SOPE  H14S 7135   4.726   1.787   5.170 -0.6463 -0.2369 -0.5414
   79SOPE  C215 7136   4.680   1.936   5.330 -0.2967 -0.3999 -0.0096
   79SOPE  H15R 7137   4.578   1.893   5.325 -0.2124 -0.6554  0.4370
   79SOPE  H15S 7138   4.657   2.041   5.357 -1.7577 -0.8317  0.4840
   79SOPE  C216 7139   4.761   1.861   5.442  0.1838 -0.6415 -0.1114
   79SOPE  H16R 7140   4.857   1.917   5.444  0.1840 -0.6540  0.2738
   79SOPE  H16S 7141   4.773   1.752   5.425  0.2680 -0.3127 -2.2276
   79SOPE  C217 7142   4.691   1.864   5.586 -0.1682 -0.7491 -0.7277
   79SOPE  H17R 7143   4.598   1.805   5.599  1.4917 -2.7722  2.7723
   79SOPE  H17S 7144   4.660   1.967   5.612 -0.2012 -0.6575 -1.1195
   79SOPE  C218 7145   4.794   1.826   5.691 -0.5419  0.2119 -0.0234
   79SOPE  H18R 7146   4.847   1.736   5.653  0.3291  1.0257 -0.7588
   79SOPE  H18S 7147   4.754   1.804   5.792 -0.7969  0.8934  0.0210
   79SOPE  H18T 7148   4.866   1.908   5.714 -0.8278 -0.2817  2.7846
   79SOPE   C33 7149   3.823   2.263   5.710 -0.6184 -0.1365 -0.5451
   79SOPE   H3X 7150   3.798   2.161   5.674 -0.1210  0.2611 -2.0512
   79SOPE   H3Y 7151   3.915   2.288   5.652 -0.3280 -1.7355 -0.7984
   79SOPE   C34 7152   3.717   2.361   5.662 -0.3201  0.2063 -0.4154
   79SOPE   H4X 7153   3.632   2.364   5.734 -0.8182  0.6517 -1.0179
   79SOPE   H4Y 7154   3.685   2.332   5.560  1.3928  1.2532 -1.2770
   79SOPE   C35 7155   3.782   2.502   5.647 -0.4369 -0.2912  0.2122
   79SOPE   H5X 7156   3.856   2.510   5.564 -1.0716 -1.3015 -0.4573
   79SOPE   H5Y 7157   3.822   2.527   5.747 -0.7304  0.4277  0.1534
   79SOPE   C36 7158   3.663   2.595   5.625 -0.6565 -0.1217 -0.1785
   79SOPE   H6X 7159   3.709   2.696   5.624  1.6814 -1.1554 -1.4949
   79SOPE   H6Y 7160   3.587   2.585   5.705  1.5051  0.4726  2.0062
   79SOPE   C37 7161   3.581   2.566   5.496 -0.0539 -0.3676  0.1133
   79SOPE   H7X 7162   3.504   2.645   5.487  0.2515 -0.3324 -2.4589
   79SOPE   H7Y 7163   3.524   2.472   5.515  1.5622 -1.2057  0.9085
   79SOPE   C38 7164   3.666   2.568   5.363 -0.1363  0.7582  0.7957
   79SOPE   H8X 7165   3.727   2.475   5.357 -1.0658  0.2471 -1.7124
   79SOPE   H8Y 7166   3.742   2.649   5.359  0.2662  0.3524  0.1347
   79SOPE   C39 7167   3.576   2.578   5.235  0.1139 -0.2163 -0.6862
   79SOPE   H9X 7168   3.526   2.676   5.251 -0.5866 -1.1190  3.2548
   79SOPE   H9Y 7169   3.506   2.492   5.243 -1.3873  1.0585  0.0480
   79SOPE  C310 7170   3.654   2.591   5.107  0.6842  0.4624 -0.7187
   79SOPE  H10X 7171   3.738   2.663   5.115  1.7078 -0.7282 -0.5064
   79SOPE  H10Y 7172   3.585   2.630   5.029 -0.2630  0.6928  0.2391
   79SOPE  C311 7173   3.720   2.463   5.047 -0.6020  0.2848  0.5977
   79SOPE  H11X 7174   3.733   2.386   5.126  0.5445 -0.4690 -0.2963
   79SOPE  H11Y 7175   3.821   2.491   5.007 -0.2419 -2.0755 -0.2303
   79SOPE  C312 7176   3.643   2.401   4.934 -0.2470  0.0581  0.6699
   79SOPE  H12X 7177   3.627   2.469   4.848 -0.3446 -1.2281 -0.3585
   79SOPE  H12Y 7178   3.542   2.384   4.976 -0.5942  1.2210  0.3146
   79SOPE  C313 7179   3.699   2.272   4.867 -0.1574  0.6081  0.3476
   79SOPE  H13X 7180   3.779   2.305   4.797 -0.6948  1.6878  0.2274
   79SOPE  H13Y 7181   3.622   2.224   4.803 -0.2656  0.4458  0.5995
   79SOPE  C314 7182   3.755   2.157   4.954 -0.2504 -0.4112 -0.7640
   79SOPE  H14X 7183   3.854   2.187   4.994 -0.9755 -0.6743  1.3117
   79SOPE  H14Y 7184   3.779   2.072   4.886  2.4800 -0.8167  0.6285
   79SOPE  C315 7185   3.669   2.110   5.070  0.0259  0.3024  0.2448
   79SOPE  H15X 7186   3.572   2.080   5.024  0.0200  1.1089 -0.2674
   79SOPE  H15Y 7187   3.633   2.185   5.143 -0.6424 -0.2046  0.4386
   79SOPE  C316 7188   3.728   1.986   5.148 -0.8195  0.7318  0.5316
   79SOPE  H16X 7189   3.818   2.009   5.209 -0.9845 -2.8501  2.2280
   79SOPE  H16Y 7190   3.760   1.919   5.066 -0.2083  0.5914  0.8774
   79SOPE  C317 7191   3.622   1.917   5.226  0.6903 -0.3019 -0.5714
   79SOPE  H17X 7192   3.642   1.809   5.213  0.6897 -0.4638  0.6991
   79SOPE  H17Y 7193   3.525   1.933   5.174 -0.2234 -0.7546  0.9825
   79SOPE  C318 7194   3.604   1.947   5.372  0.5273 -0.2582  0.6859
   79SOPE  H18X 7195   3.501   1.911   5.393  1.1462 -0.5146  3.4987
   79SOPE  H18Y 7196   3.617   2.049   5.415  1.0083 -0.6848  1.5613
   79SOPE  H18Z 7197   3.685   1.896   5.428  0.9351  0.2076  0.5210
   80SOPE     N 7198   1.606   4.766   6.714 -0.0660  0.6552  0.1449
   80SOPE   HN1 7199   1.534   4.821   6.766 -1.9794 -2.9698  1.4937
   80SOPE   HN2 7200   1.589   4.666   6.738 -1.0653  0.6722 -0.4597
   80SOPE   HN3 7201   1.700   4.796   6.747  0.2361 -1.0748  0.8910
   80SOPE   C12 7202   1.613   4.771   6.564  0.2810 -0.4775  0.3136
   80SOPE  H12A 7203   1.652   4.872   6.539 -1.9711 -0.1383 -2.0744
   80SOPE  H12B 7204   1.508   4.772   6.527  0.1378  3.6161  0.6097
   80SOPE   C11 7205   1.708   4.663   6.516  0.1843 -0.7789 -0.1292
   80SOPE  H11A 7206   1.713   4.669   6.405  2.4020  0.4759  0.0153
   80SOPE  H11B 7207   1.665   4.561   6.525 -1.3483 -0.1026  0.4390
   80SOPE     P 7208   1.974   4.652   6.526 -0.2011  0.0584 -0.3866
   80SOPE   O13 7209   1.971   4.503   6.504 -0.6183  0.7104 -0.3018
   80SOPE   O14 7210   2.075   4.702   6.618  0.2708  0.6562 -0.1363
   80SOPE   O12 7211   1.825   4.681   6.584 -0.5309  0.0759 -0.5186
   80SOPE   O11 7212   1.982   4.726   6.382 -0.1690  0.0640  0.2688
   80SOPE    C1 7213   1.928   4.858   6.365  0.4451  0.5243 -0.3249
   80SOPE    HA 7214   1.950   4.925   6.451 -1.7093  0.7643  0.0662
   80SOPE    HB 7215   1.819   4.854   6.345  0.3151 -0.6606  0.5977
   80SOPE    C2 7216   1.992   4.929   6.238 -0.3033  0.0053  0.6658
   80SOPE    HS 7217   1.953   5.033   6.243  1.4336  0.6543  0.9661
   80SOPE   O21 7218   1.955   4.858   6.123 -0.3984 -0.4016  0.1558
   80SOPE   C21 7219   1.910   4.928   6.020 -0.4546 -0.0934 -0.1399
   80SOPE   O22 7220   1.904   5.049   6.007  0.4334  0.3395 -0.7911
   80SOPE   C22 7221   1.844   4.833   5.924  0.1215 -0.1141  0.0437
   80SOPE   H2R 7222   1.747   4.800   5.968 -0.5624  2.6242  0.6848
   80SOPE   H2S 7223   1.901   4.739   5.910  1.9815  1.0103 -0.0937
   80SOPE    C3 7224   2.147   4.918   6.259 -0.4010  0.0234  0.2752
   80SOPE    HX 7225   2.181   4.812   6.262 -0.7911 -0.0829  0.9139
   80SOPE    HY 7226   2.158   4.970   6.356 -0.2429  0.2591  0.1321
   80SOPE   O31 7227   2.221   4.974   6.149 -0.7176  0.0243  0.0071
   80SOPE   C31 7228   2.256   5.103   6.171 -0.5974 -0.1482 -0.1194
   80SOPE   O32 7229   2.222   5.183   6.252  0.2104 -0.4550 -0.1371
   80SOPE   C32 7230   2.348   5.145   6.050  0.0261  0.8948  0.2853
   80SOPE   H2X 7231   2.430   5.071   6.050 -1.2895 -0.5772  2.1134
   80SOPE   H2Y 7232   2.391   5.245   6.075 -0.1398  0.6648  1.5040
   80SOPE   C23 7233   1.822   4.893   5.784 -0.1002 -0.1534 -0.1793
   80SOPE   H3R 7234   1.778   4.994   5.771  1.0842  0.3374 -0.4104
   80SOPE   H3S 7235   1.755   4.819   5.736  0.9203 -1.4307  0.3297
   80SOPE   C24 7236   1.952   4.880   5.691  0.4008  0.4257  0.9196
   80SOPE   H4R 7237   2.020   4.957   5.734  0.4406  0.8773  0.0562
   80SOPE   H4S 7238   1.998   4.779   5.704 -0.6140 -0.4346 -1.8483
   80SOPE   C25 7239   1.941   4.902   5.537 -0.0022  0.1201 -0.4237
   80SOPE   H5R 7240   1.841   4.862   5.509 -0.0076  0.6269 -1.1504
   80SOPE   H5S 7241   1.944   5.011   5.513  0.3551 -0.2069 -1.9219
   80SOPE   C26 7242   2.043   4.828   5.454 -0.1977 -0.6202 -0.0246
   80SOPE   H6R 7243   2.148   4.844   5.487 -1.1169  1.1153  2.2182
   80SOPE   H6S 7244   2.029   4.719   5.472 -0.0729 -0.6898 -0.3544
   80SOPE   C27 7245   2.030   4.877   5.310 -0.2256 -0.2962 -0.0478
   80SOPE   H7R 7246   1.928   4.869   5.265 -1.1715 -2.0138  2.3141
   80SOPE   H7S 7247   2.051   4.986   5.306  3.2994 -0.9329 -0.9525
   80SOPE   C28 7248   2.118   4.813   5.192 -0.4856  0.6428 -0.0336
   80SOPE   H8R 7249   2.084   4.860   5.097 -0.0973  0.5607 -0.2156
   80SOPE   H8S 7250   2.217   4.862   5.207 -1.2392  2.7439 -1.6680
   80SOPE   C29 7251   2.094   4.659   5.198 -0.4978  0.4458 -0.0795
   80SOPE   H91 7252   2.139   4.606   5.283 -2.0221  0.1216  0.5418
   80SOPE  C210 7253   2.034   4.582   5.094 -0.2586 -0.0960  0.3176
   80SOPE  H101 7254   2.012   4.478   5.122 -0.9531 -0.2221 -0.7160
   80SOPE  C211 7255   1.987   4.634   4.962 -0.6827 -0.1503  0.3153
   80SOPE  H11R 7256   1.961   4.741   4.976 -0.6615  0.0232 -0.9051
   80SOPE  H11S 7257   1.892   4.584   4.935 -0.7391  1.0165 -1.7556
   80SOPE  C212 7258   2.097   4.619   4.849  0.1696  0.0953 -0.6487
   80SOPE  H12R 7259   2.188   4.672   4.882 -1.3470  2.6307 -0.4389
   80SOPE  H12S 7260   2.071   4.664   4.751  2.3939  0.9892 -0.8654
   80SOPE  C213 7261   2.132   4.468   4.826 -0.5052 -0.1372  0.2943
   80SOPE  H13R 7262   2.045   4.400   4.828 -0.9325  0.4135  0.9564
   80SOPE  H13S 7263   2.195   4.445   4.915 -0.4895  0.1750  0.3659
   80SOPE  C214 7264   2.211   4.452   4.694 -0.1329 -0.2781 -0.8077
   80SOPE  H14R 7265   2.149   4.490   4.610  0.4239 -0.5558 -1.3589
   80SOPE  H14S 7266   2.245   4.347   4.678 -0.1615 -0.1780 -1.5784
   80SOPE  C215 7267   2.345   4.530   4.692 -1.0408  0.6947 -0.1771
   80SOPE  H15R 7268   2.412   4.470   4.757 -1.4947  0.4031  0.0279
   80SOPE  H15S 7269   2.320   4.625   4.744 -1.7082  1.2986 -1.5756
   80SOPE  C216 7270   2.393   4.568   4.555 -0.5407 -0.5261 -1.0046
   80SOPE  H16R 7271   2.485   4.631   4.555 -0.4689 -0.6343 -2.2399
   80SOPE  H16S 7272   2.313   4.631   4.510 -1.2284 -0.0196  0.8755
   80SOPE  C217 7273   2.419   4.451   4.463 -0.8786  0.2378 -0.1903
   80SOPE  H17R 7274   2.328   4.405   4.420 -2.0161 -0.7262  3.0927
   80SOPE  H17S 7275   2.464   4.371   4.525  0.9186  1.5064  0.1743
   80SOPE  C218 7276   2.530   4.473   4.356  0.3651 -0.0544 -0.6617
   80SOPE  H18R 7277   2.634   4.497   4.387  0.2150  0.8211 -0.8194
   80SOPE  H18S 7278   2.498   4.553   4.287  1.0970 -0.3411 -1.3381
   80SOPE  H18T 7279   2.528   4.380   4.297 -0.7656  0.4324 -1.3939
   80SOPE   C33 7280   2.266   5.146   5.920 -0.4342  0.6354 -0.3750
   80SOPE   H3X 7281   2.206   5.052   5.916  0.7141 -0.1181  0.0702
   80SOPE   H3Y 7282   2.334   5.148   5.832 -0.0102  0.8907 -0.0411
   80SOPE   C34 7283   2.170   5.266   5.911 -0.1657  0.2664 -0.7518
   80SOPE   H4X 7284   2.223   5.363   5.923  0.5756 -0.0531 -1.3935
   80SOPE   H4Y 7285   2.087   5.266   5.985  0.1495  0.3868 -0.3958
   80SOPE   C35 7286   2.100   5.285   5.772 -1.0112 -0.2082 -0.2779
   80SOPE   H5X 7287   2.028   5.367   5.795  0.2320  1.2154 -1.4434
   80SOPE   H5Y 7288   2.047   5.191   5.743 -0.8635 -0.9672  1.8003
   80SOPE   C36 7289   2.185   5.325   5.648  0.3406  0.2938 -0.5661
   80SOPE   H6X 7290   2.247   5.242   5.609  0.1152 -0.4875  0.6878
   80SOPE   H6Y 7291   2.245   5.414   5.675  1.5618 -0.2376 -1.4878
   80SOPE   C37 7292   2.093   5.377   5.537  0.0994  0.6864  0.0163
   80SOPE   H7X 7293   2.038   5.466   5.576  1.4604  1.6067 -0.1477
   80SOPE   H7Y 7294   2.018   5.297   5.520 -2.0166  2.5486  0.2653
   80SOPE   C38 7295   2.173   5.408   5.417  0.4585  0.3719  0.1978
   80SOPE   H8X 7296   2.268   5.463   5.436 -0.0991  1.3280  0.2474
   80SOPE   H8Y 7297   2.110   5.483   5.364  0.6823  0.8640  0.6142
   80SOPE   C39 7298   2.188   5.283   5.323  0.0720  0.8796 -0.3342
   80SOPE   H9X 7299   2.086   5.242   5.311  0.7092 -0.1950 -2.1904
   80SOPE   H9Y 7300   2.252   5.211   5.379  1.0046  0.8059 -1.4641
   80SOPE  C310 7301   2.232   5.326   5.185  0.0831  0.1837 -0.0930
   80SOPE  H10X 7302   2.330   5.377   5.191  0.9658 -1.2952 -1.5043
   80SOPE  H10Y 7303   2.169   5.409   5.145  1.4148  2.0247  1.5512
   80SOPE  C311 7304   2.244   5.210   5.085  0.4542  0.1584  0.0628
   80SOPE  H11X 7305   2.148   5.154   5.087 -0.1614  1.1131 -1.6789
   80SOPE  H11Y 7306   2.321   5.142   5.126  0.5035 -0.4289 -0.9739
   80SOPE  C312 7307   2.278   5.259   4.946 -0.5888 -0.2740  0.8215
   80SOPE  H12X 7308   2.381   5.300   4.942  0.0799 -1.8458  1.4998
   80SOPE  H12Y 7309   2.206   5.339   4.920  1.2477  0.3691 -2.5736
   80SOPE  C313 7310   2.276   5.145   4.841  0.3701  0.9974 -0.4514
   80SOPE  H13X 7311   2.173   5.102   4.849  1.4599 -1.8958 -1.5214
   80SOPE  H13Y 7312   2.351   5.070   4.872  0.4594  1.5560  0.6807
   80SOPE  C314 7313   2.292   5.195   4.700 -0.5393 -0.1646 -0.3167
   80SOPE  H14X 7314   2.385   5.256   4.706  0.5377 -1.7887  0.1381
   80SOPE  H14Y 7315   2.209   5.265   4.677  1.5088  1.7373 -2.1721
   80SOPE  C315 7316   2.307   5.089   4.594  0.0149 -0.2301 -0.1007
   80SOPE  H15X 7317   2.209   5.053   4.558 -2.3655  2.9832  2.9109
   80SOPE  H15Y 7318   2.358   5.004   4.644 -1.4351 -1.5985 -0.9127
   80SOPE  C316 7319   2.392   5.132   4.475  0.3447  0.7730 -0.6702
   80SOPE  H16X 7320   2.475   5.189   4.522  1.9819 -3.0251  1.2283
   80SOPE  H16Y 7321   2.326   5.204   4.422  0.7571  2.7670  1.3807
   80SOPE  C317 7322   2.448   5.018   4.390 -0.0943 -0.6648 -0.9519
   80SOPE  H17X 7323   2.498   4.945   4.457 -0.4113  0.6242  0.7273
   80SOPE  H17Y 7324   2.527   5.053   4.320 -0.6758  1.0177 -0.7963
   80SOPE  C318 7325   2.335   4.939   4.320 -0.0915 -0.5418 -0.5317
   80SOPE  H18X 7326   2.375   4.883   4.233  1.0549 -0.3987 -0.1087
   80SOPE  H18Y 7327   2.253   5.002   4.280 -0.0961  1.4700  2.4827
   80SOPE  H18Z 7328   2.287   4.868   4.389 -1.8508  1.8070  0.7322
   81SOPE     N 7329   3.021   7.002   6.396 -0.2035 -0.5696  0.0737
   81SOPE   HN1 7330   3.022   6.903   6.428 -1.2006 -0.7543 -0.4342
   81SOPE   HN2 7331   2.930   7.033   6.436 -0.6304 -0.7573 -0.7393
   81SOPE   HN3 7332   3.027   7.008   6.292 -1.3134 -0.5487  0.0044
   81SOPE   C12 7333   3.112   7.103   6.457 -0.3185  0.3719 -0.0974
   81SOPE  H12A 7334   3.093   7.081   6.564 -1.8467 -0.7818 -0.5865
   81SOPE  H12B 7335   3.068   7.203   6.436  2.6039  1.5191 -1.0013
   81SOPE   C11 7336   3.257   7.091   6.406  0.8076  0.2029 -0.2235
   81SOPE  H11A 7337   3.325   7.154   6.468 -0.0589  0.9365  0.0007
   81SOPE  H11B 7338   3.267   7.141   6.308 -0.0954  2.0069  0.5746
   81SOPE     P 7339   3.408   6.871   6.348 -0.2220 -0.4140  0.0563
   81SOPE   O13 7340   3.423   6.741   6.420 -0.1768 -0.5644  0.9771
   81SOPE   O14 7341   3.528   6.960   6.334 -0.1665 -0.7441 -0.1260
   81SOPE   O12 7342   3.299   6.957   6.422  0.1646 -0.4751  0.5739
   81SOPE   O11 7343   3.352   6.840   6.200  0.2924  0.1839 -0.1146
   81SOPE    C1 7344   3.383   6.929   6.095  0.0053 -0.3911  0.5906
   81SOPE    HA 7345   3.493   6.931   6.076 -0.5571  0.8620 -2.9804
   81SOPE    HB 7346   3.348   7.033   6.109 -1.1053 -0.2962 -2.3732
   81SOPE    C2 7347   3.321   6.869   5.968  0.0948  0.0668 -0.3913
   81SOPE    HS 7348   3.212   6.848   5.975  0.4558 -1.7758 -0.1020
   81SOPE   O21 7349   3.396   6.753   5.935 -0.1517 -0.1784  0.1142
   81SOPE   C21 7350   3.344   6.636   5.955  0.8883 -0.3636 -0.3149
   81SOPE   O22 7351   3.228   6.612   5.988  0.4250 -0.9768 -0.2112
   81SOPE   C22 7352   3.440   6.534   5.912 -0.8198 -0.2799 -0.1651
   81SOPE   H2R 7353   3.502   6.499   5.998  0.4415  1.8457 -0.1766
   81SOPE   H2S 7354   3.519   6.572   5.844 -0.6614  0.3790  0.3754
   81SOPE    C3 7355   3.335   6.962   5.842 -0.0384 -0.1342 -0.1864
   81SOPE    HX 7356   3.444   6.982   5.836  0.2839 -1.6738  0.4142
   81SOPE    HY 7357   3.287   7.057   5.874  0.8154 -0.0108  0.7284
   81SOPE   O31 7358   3.294   6.893   5.728 -0.3344  0.2378  0.1892
   81SOPE   C31 7359   3.209   6.962   5.652 -0.8394  0.0696  0.1775
   81SOPE   O32 7360   3.185   7.084   5.657 -0.8332  0.3065 -0.2304
   81SOPE   C32 7361   3.156   6.880   5.529  0.2024  0.3079 -0.3377
   81SOPE   H2X 7362   3.222   6.791   5.514  1.4669  0.8381  1.8692
   81SOPE   H2Y 7363   3.175   6.944   5.440 -0.6256  1.0398  0.0124
   81SOPE   C23 7364   3.378   6.412   5.834 -0.2850  0.3602  0.5901
   81SOPE   H3R 7365   3.320   6.355   5.910  2.1523 -1.2119  1.3172
   81SOPE   H3S 7366   3.459   6.346   5.797  0.6972  1.0802  1.4347
   81SOPE   C24 7367   3.295   6.457   5.717 -0.4752  0.4976 -0.1506
   81SOPE   H4R 7368   3.200   6.399   5.716  0.4947 -1.1592 -2.8574
   81SOPE   H4S 7369   3.280   6.567   5.715 -1.0774  0.4124 -0.2548
   81SOPE   C25 7370   3.364   6.410   5.584 -0.2709 -0.2988  0.1287
   81SOPE   H5R 7371   3.469   6.447   5.584 -0.8328  1.3648  1.4597
   81SOPE   H5S 7372   3.368   6.299   5.585  0.8186 -0.3122 -2.0820
   81SOPE   C26 7373   3.294   6.461   5.457 -0.2287  0.9246  0.3926
   81SOPE   H6R 7374   3.209   6.395   5.432  1.2324 -0.2055 -1.7493
   81SOPE   H6S 7375   3.250   6.563   5.462 -0.3125  0.8735  0.7156
   81SOPE   C27 7376   3.392   6.456   5.332  0.6229  0.8637 -0.0432
   81SOPE   H7R 7377   3.480   6.522   5.348  1.7355 -1.1689  2.4810
   81SOPE   H7S 7378   3.440   6.356   5.327 -1.2541 -0.1179  0.9315
   81SOPE   C28 7379   3.318   6.490   5.201  0.2279  0.2687  0.4887
   81SOPE   H8R 7380   3.219   6.440   5.198 -0.4679  1.5454  1.5351
   81SOPE   H8S 7381   3.290   6.597   5.197  0.0788  0.2045 -0.2499
   81SOPE   C29 7382   3.408   6.439   5.088  0.4622 -0.1758 -0.2998
   81SOPE   H91 7383   3.464   6.345   5.101  0.2320 -0.1268  1.1231
   81SOPE  C210 7384   3.428   6.511   4.982  0.6416 -0.2485  0.6812
   81SOPE  H101 7385   3.488   6.467   4.900  0.5355 -0.3840  0.6771
   81SOPE  C211 7386   3.373   6.649   4.948 -0.8265 -0.7076  0.0104
   81SOPE  H11R 7387   3.453   6.724   4.964 -1.2499 -0.3303  0.3864
   81SOPE  H11S 7388   3.275   6.678   4.993  0.1205  1.9738  0.4496
   81SOPE  C212 7389   3.365   6.662   4.794  0.4879  0.0254 -0.3544
   81SOPE  H12R 7390   3.460   6.655   4.737  0.6635  0.0909 -0.0709
   81SOPE  H12S 7391   3.329   6.764   4.771 -2.3349 -1.2027 -1.5131
   81SOPE  C213 7392   3.275   6.565   4.727 -0.2539 -0.3356 -0.0934
   81SOPE  H13R 7393   3.176   6.582   4.775  0.4179  0.8996  0.8743
   81SOPE  H13S 7394   3.289   6.457   4.749 -0.3434 -0.4204 -0.4357
   81SOPE  C214 7395   3.265   6.592   4.576 -0.6586 -0.0725 -0.2240
   81SOPE  H14R 7396   3.247   6.495   4.525  1.2102 -0.2506 -0.5794
   81SOPE  H14S 7397   3.360   6.639   4.541  0.7249 -1.6964  1.3126
   81SOPE  C215 7398   3.147   6.686   4.544  0.3416  0.1279  0.3081
   81SOPE  H15R 7399   3.158   6.779   4.604  1.5167  0.2480 -0.0737
   81SOPE  H15S 7400   3.047   6.642   4.565 -1.0482  2.3661 -1.2982
   81SOPE  C216 7401   3.145   6.730   4.397 -0.1536 -0.7305 -0.0403
   81SOPE  H16R 7402   3.068   6.809   4.383 -0.5846 -1.3011 -1.0297
   81SOPE  H16S 7403   3.125   6.643   4.330  1.9045 -0.6658 -0.7541
   81SOPE  C217 7404   3.273   6.790   4.337  0.6109 -0.3301  0.1180
   81SOPE  H17R 7405   3.359   6.721   4.339  0.0242 -1.1015 -0.9241
   81SOPE  H17S 7406   3.298   6.891   4.375 -0.7416  0.6693 -1.5823
   81SOPE  C218 7407   3.250   6.827   4.193  0.1057  0.0978  0.3955
   81SOPE  H18R 7408   3.328   6.902   4.169  0.0703  0.3016  0.9147
   81SOPE  H18S 7409   3.147   6.870   4.185 -0.2426 -0.8618 -0.4044
   81SOPE  H18T 7410   3.262   6.743   4.120 -0.0376 -0.2526  0.7731
   81SOPE   C33 7411   3.005   6.849   5.551 -0.4333  0.0883 -0.5063
   81SOPE   H3X 7412   2.932   6.933   5.543 -0.6629 -0.0658 -0.0522
   81SOPE   H3Y 7413   2.981   6.822   5.656  1.1827  1.3638  0.2137
   81SOPE   C34 7414   2.960   6.732   5.459 -0.9675  0.6101 -0.2699
   81SOPE   H4X 7415   2.854   6.704   5.478  0.0002 -3.5529 -0.6408
   81SOPE   H4Y 7416   3.024   6.647   5.490 -0.7720  0.8625  0.0281
   81SOPE   C35 7417   2.966   6.756   5.314 -0.1325 -0.1050 -0.5402
   81SOPE   H5X 7418   3.060   6.799   5.273 -0.5239  2.6260  1.3621
   81SOPE   H5Y 7419   2.891   6.830   5.279  0.5259 -0.0120 -1.7876
   81SOPE   C36 7420   2.941   6.629   5.229 -0.8226  0.1843  0.8930
   81SOPE   H6X 7421   2.842   6.588   5.257 -0.9542 -0.0760  0.0639
   81SOPE   H6Y 7422   3.016   6.551   5.251 -2.3344 -1.6543 -0.3124
   81SOPE   C37 7423   2.945   6.662   5.086 -0.3277 -0.0044 -0.2694
   81SOPE   H7X 7424   3.042   6.704   5.052 -1.2801  0.7953 -2.0896
   81SOPE   H7Y 7425   2.870   6.743   5.074 -0.6312  0.1633  2.4863
   81SOPE   C38 7426   2.916   6.538   5.006 -0.5313 -0.0075  0.0533
   81SOPE   H8X 7427   2.830   6.478   5.043 -0.6147 -0.2169 -0.4732
   81SOPE   H8Y 7428   2.996   6.461   5.009  0.0724  0.6595  2.5267
   81SOPE   C39 7429   2.881   6.561   4.862  0.5706  0.2973  0.0919
   81SOPE   H9X 7430   2.932   6.645   4.811 -0.1840  0.4802 -0.3656
   81SOPE   H9Y 7431   2.770   6.571   4.854  0.6384  1.1022  0.1541
   81SOPE  C310 7432   2.914   6.441   4.775  0.1845  0.0423  1.1409
   81SOPE  H10X 7433   3.023   6.423   4.772  0.1747  0.0323  0.7717
   81SOPE  H10Y 7434   2.885   6.461   4.670 -2.5342 -1.3928  1.5640
   81SOPE  C311 7435   2.833   6.314   4.802 -0.3131  0.1141 -0.0447
   81SOPE  H11X 7436   2.727   6.344   4.812  0.2451  2.5248 -0.7873
   81SOPE  H11Y 7437   2.880   6.254   4.882 -1.2175 -0.3995  0.1087
   81SOPE  C312 7438   2.835   6.231   4.671  0.1591 -0.2627 -1.0896
   81SOPE  H12X 7439   2.942   6.225   4.642  0.1306 -0.1065 -1.2240
   81SOPE  H12Y 7440   2.782   6.285   4.590 -0.8351  3.7741  2.0441
   81SOPE  C313 7441   2.782   6.084   4.685  0.2564 -0.4049  0.8046
   81SOPE  H13X 7442   2.680   6.068   4.724  0.1731 -1.7725  0.0608
   81SOPE  H13Y 7443   2.855   6.034   4.752  3.4822  2.1277 -0.6182
   81SOPE  C314 7444   2.785   6.011   4.549  0.2483 -0.6675  0.1984
   81SOPE  H14X 7445   2.703   6.050   4.485  0.8364  1.2745  0.6160
   81SOPE  H14Y 7446   2.771   5.906   4.584 -1.0534 -0.3882  0.5317
   81SOPE  C315 7447   2.927   6.008   4.485 -0.4777 -0.0273  0.4540
   81SOPE  H15X 7448   2.997   5.989   4.569  0.0517  1.1110  0.2736
   81SOPE  H15Y 7449   2.964   6.104   4.443  3.3800  0.0072  3.6076
   81SOPE  C316 7450   2.942   5.892   4.386  0.1216  0.3314 -0.0117
   81SOPE  H16X 7451   2.860   5.908   4.313 -0.6495 -2.7405  0.1149
   81SOPE  H16Y 7452   2.926   5.798   4.443 -1.1017  2.2119  2.9354
   81SOPE  C317 7453   3.084   5.894   4.320  0.1618 -0.2927 -0.5455
   81SOPE  H17X 7454   3.157   5.888   4.404 -0.6502 -1.5668  0.0846
   81SOPE  H17Y 7455   3.088   5.984   4.255 -0.6033 -0.0830 -0.3092
   81SOPE  C318 7456   3.091   5.781   4.216  0.2103  0.1667 -0.3675
   81SOPE  H18X 7457   3.079   5.680   4.260 -0.1230  0.1706 -0.4457
   81SOPE  H18Y 7458   3.192   5.789   4.171 -0.4460 -0.1510 -1.9288
   81SOPE  H18Z 7459   3.018   5.802   4.135 -3.9596 -0.2571  3.0827
   82SOPE     N 7460   7.032   1.309   6.270 -0.4762 -0.3987  0.1724
   82SOPE   HN1 7461   7.004   1.407   6.292 -0.6894 -0.1686 -1.0815
   82SOPE   HN2 7462   7.092   1.272   6.347  0.2930  2.1347  0.8443
   82SOPE   HN3 7463   7.091   1.321   6.185 -1.1638  0.2711 -0.2211
   82SOPE   C12 7464   6.908   1.234   6.243  0.6155 -0.9002 -0.0227
   82SOPE  H12A 7465   6.846   1.306   6.186  1.1601 -0.4465 -0.0371
   82SOPE  H12B 7466   6.857   1.211   6.339 -1.1641 -0.9632 -0.9696
   82SOPE   C11 7467   6.939   1.094   6.180  0.5679  0.5564 -0.2979
   82SOPE  H11A 7468   7.001   1.094   6.088  0.9688 -1.6851 -0.0462
   82SOPE  H11B 7469   6.844   1.062   6.130  2.9090 -3.3277 -2.4933
   82SOPE     P 7470   7.116   0.936   6.288 -0.2492  0.5075  0.0835
   82SOPE   O13 7471   7.124   0.840   6.400  0.4720  0.4071 -0.1444
   82SOPE   O14 7472   7.217   1.044   6.290 -0.1502  0.0783  0.1605
   82SOPE   O12 7473   6.977   0.992   6.278  0.3232 -0.0768 -0.2146
   82SOPE   O11 7474   7.133   0.862   6.149  0.2847 -0.3939 -0.0956
   82SOPE    C1 7475   7.033   0.777   6.096 -0.2467 -0.3361 -0.1761
   82SOPE    HA 7476   6.933   0.824   6.086  0.1152  0.3640 -0.5318
   82SOPE    HB 7477   7.018   0.698   6.172  4.3912  0.1570  1.3825
   82SOPE    C2 7478   7.087   0.709   5.966 -0.3240 -0.3155 -0.4287
   82SOPE    HS 7479   7.185   0.672   6.003 -1.0353 -0.1358  1.7260
   82SOPE   O21 7480   7.103   0.813   5.870 -0.2658  0.5006 -0.0287
   82SOPE   C21 7481   7.226   0.824   5.824  0.1129 -0.0986  0.1930
   82SOPE   O22 7482   7.313   0.737   5.822 -0.4381  0.0102  0.3004
   82SOPE   C22 7483   7.235   0.966   5.754 -0.1998 -0.2109 -0.4357
   82SOPE   H2R 7484   7.311   1.019   5.815 -1.3411  2.4384 -1.2487
   82SOPE   H2S 7485   7.137   1.019   5.756  1.1308  2.3192 -0.7849
   82SOPE    C3 7486   6.992   0.605   5.906  0.2596  0.4693 -1.1597
   82SOPE    HX 7487   6.901   0.665   5.886 -0.2675 -1.1440 -3.8071
   82SOPE    HY 7488   6.955   0.528   5.978  1.3626  2.1554  1.2925
   82SOPE   O31 7489   7.040   0.557   5.777 -0.2596  0.1203  0.2220
   82SOPE   C31 7490   7.118   0.448   5.776 -0.1792 -0.7282 -0.0467
   82SOPE   O32 7491   7.164   0.392   5.868  0.2846 -0.3343  0.2305
   82SOPE   C32 7492   7.095   0.374   5.638  0.1991 -0.0833 -0.2908
   82SOPE   H2X 7493   7.107   0.443   5.552  2.0317 -1.8099 -1.4626
   82SOPE   H2Y 7494   6.988   0.343   5.645  0.6643 -2.0435 -1.3150
   82SOPE   C23 7495   7.286   0.951   5.609  0.8081  0.0262 -0.6976
   82SOPE   H3R 7496   7.218   0.897   5.539 -0.7367  1.8406 -0.6388
   82SOPE   H3S 7497   7.370   0.880   5.624 -1.1777 -2.5712 -1.5277
   82SOPE   C24 7498   7.346   1.083   5.553  0.1279 -0.3776  0.4454
   82SOPE   H4R 7499   7.263   1.157   5.540  1.1504  0.9040  1.1164
   82SOPE   H4S 7500   7.425   1.110   5.626  0.0132  1.3136 -0.0240
   82SOPE   C25 7501   7.398   1.065   5.411 -0.1619 -0.1685  0.7783
   82SOPE   H5R 7502   7.329   1.000   5.352 -0.2956  0.3351  0.3813
   82SOPE   H5S 7503   7.399   1.159   5.352 -0.8947 -1.0936 -0.7432
   82SOPE   C26 7504   7.547   1.022   5.402  0.1132  0.1387  0.0696
   82SOPE   H6R 7505   7.609   1.072   5.480 -1.8570 -0.1744  1.8651
   82SOPE   H6S 7506   7.558   0.918   5.438 -0.5866  0.4923  1.3048
   82SOPE   C27 7507   7.611   1.032   5.263 -0.4690  0.5522 -0.3720
   82SOPE   H7R 7508   7.624   1.135   5.224  3.9180  1.7486  3.7669
   82SOPE   H7S 7509   7.715   0.995   5.272 -0.1898  1.5985  0.8117
   82SOPE   C28 7510   7.553   0.925   5.162  0.3006  0.2627  1.0142
   82SOPE   H8R 7511   7.573   0.821   5.195  1.8863  0.1349 -0.2905
   82SOPE   H8S 7512   7.442   0.928   5.161  0.2360 -1.6783 -0.2870
   82SOPE   C29 7513   7.610   0.947   5.020  0.4813  0.0145  0.2673
   82SOPE   H91 7514   7.708   0.901   5.000  1.2163  2.2632 -1.6051
   82SOPE  C210 7515   7.547   0.991   4.908 -0.1675 -0.1962 -0.0486
   82SOPE  H101 7516   7.604   0.974   4.815 -0.3161 -1.1144  0.0274
   82SOPE  C211 7517   7.406   1.044   4.881 -0.4851 -0.2920  0.2637
   82SOPE  H11R 7518   7.400   1.124   4.803  0.5630  0.2427  0.7229
   82SOPE  H11S 7519   7.375   1.090   4.977 -0.6114  0.1509  0.0167
   82SOPE  C212 7520   7.304   0.938   4.842 -0.3772  0.1512  0.5528
   82SOPE  H12R 7521   7.312   0.883   4.745 -2.4606 -1.5303  1.2815
   82SOPE  H12S 7522   7.210   0.996   4.838 -1.0684 -1.0217 -1.2562
   82SOPE  C213 7523   7.287   0.834   4.963 -0.6112 -0.7268  0.2162
   82SOPE  H13R 7524   7.277   0.905   5.049  2.1080  1.1004 -0.8819
   82SOPE  H13S 7525   7.384   0.787   4.989 -0.5420  0.7231  2.8285
   82SOPE  C214 7526   7.186   0.720   4.940  0.1789  0.0070 -0.5795
   82SOPE  H14R 7527   7.203   0.671   4.842 -0.9713 -1.0397 -0.2707
   82SOPE  H14S 7528   7.081   0.757   4.942 -0.6718 -2.3724  1.9703
   82SOPE  C215 7529   7.188   0.618   5.050  0.1609 -0.0876 -0.9631
   82SOPE  H15R 7530   7.290   0.577   5.039  0.2569 -0.1927  0.2226
   82SOPE  H15S 7531   7.121   0.535   5.018 -0.7917  0.9886 -1.8080
   82SOPE  C216 7532   7.138   0.659   5.191  0.3336  0.5569  0.0195
   82SOPE  H16R 7533   7.195   0.739   5.243  3.2075 -1.4546  0.1149
   82SOPE  H16S 7534   7.157   0.571   5.256 -0.7942  0.5235  0.3179
   82SOPE  C217 7535   6.984   0.689   5.207  0.5561 -0.2852  0.1548
   82SOPE  H17R 7536   6.929   0.600   5.171 -0.9455  0.4703  0.5675
   82SOPE  H17S 7537   6.962   0.777   5.143 -0.1455 -0.4801  0.1292
   82SOPE  C218 7538   6.936   0.723   5.351  0.0887  0.1715  0.2776
   82SOPE  H18R 7539   7.000   0.808   5.383  2.2183 -0.6608 -1.5935
   82SOPE  H18S 7540   6.940   0.633   5.417  0.2736 -0.5817 -0.7418
   82SOPE  H18T 7541   6.833   0.763   5.348  0.2385  0.4615 -1.2184
   82SOPE   C33 7542   7.202   0.261   5.624  0.3009 -0.2543 -0.0807
   82SOPE   H3X 7543   7.177   0.194   5.709  1.3767 -0.5631  0.0038
   82SOPE   H3Y 7544   7.307   0.297   5.629  0.2930  0.1574 -2.3821
   82SOPE   C34 7545   7.182   0.172   5.504  0.9517 -0.0459  0.6024
   82SOPE   H4X 7546   7.076   0.146   5.483  1.3227 -0.6937 -0.5135
   82SOPE   H4Y 7547   7.242   0.079   5.518  2.2265  0.6493 -0.1295
   82SOPE   C35 7548   7.223   0.240   5.384 -0.0142 -0.0659  0.3585
   82SOPE   H5X 7549   7.316   0.299   5.399 -1.2352  1.3380  2.6591
   82SOPE   H5Y 7550   7.143   0.313   5.359  0.8867  0.9777  0.4578
   82SOPE   C36 7551   7.246   0.151   5.261  0.5441  0.4073  1.0869
   82SOPE   H6X 7552   7.175   0.066   5.261  1.7715 -0.6285  1.5806
   82SOPE   H6Y 7553   7.346   0.102   5.258 -0.3806 -1.4728 -0.6025
   82SOPE   C37 7554   7.223   0.247   5.137  0.2588  0.2596 -0.0141
   82SOPE   H7X 7555   7.270   0.343   5.164  0.3761  0.1842  0.0489
   82SOPE   H7Y 7556   7.112   0.253   5.126  0.5318  0.6672 -2.9756
   82SOPE   C38 7557   7.297   0.197   5.014 -0.0773 -0.1721  0.1620
   82SOPE   H8X 7558   7.283   0.088   5.001 -2.3206  0.4439 -3.2639
   82SOPE   H8Y 7559   7.407   0.210   5.028  0.6623 -2.6702 -2.9117
   82SOPE   C39 7560   7.240   0.258   4.880  0.2724 -1.0600  0.2431
   82SOPE   H9X 7561   7.278   0.362   4.872  2.4953 -1.8690  0.1500
   82SOPE   H9Y 7562   7.130   0.254   4.896  0.1568  0.0044 -0.2317
   82SOPE  C310 7563   7.274   0.165   4.767 -0.5072 -0.0050  0.6416
   82SOPE  H10X 7564   7.221   0.071   4.792  1.3421 -0.9012  1.2394
   82SOPE  H10Y 7565   7.384   0.149   4.766 -0.0798  2.1606 -4.3515
   82SOPE  C311 7566   7.218   0.223   4.634  0.3376  0.6118 -0.6761
   82SOPE  H11X 7567   7.289   0.305   4.607 -0.5596  0.7216 -2.7848
   82SOPE  H11Y 7568   7.120   0.271   4.653  0.1236 -0.5410  1.2848
   82SOPE  C312 7569   7.229   0.125   4.515 -0.0083 -0.4423  0.8234
   82SOPE  H12X 7570   7.187   0.175   4.425  1.8622 -0.4834 -0.0988
   82SOPE  H12Y 7571   7.158   0.043   4.538  0.6872 -0.9224  1.2756
   82SOPE  C313 7572   7.372   0.079   4.499 -0.4464 -0.0486  0.6817
   82SOPE  H13X 7573   7.387   0.002   4.578  0.9214 -0.4951  0.0025
   82SOPE  H13Y 7574   7.447   0.161   4.515  1.3798 -1.5281 -0.1267
   82SOPE  C314 7575   7.405   0.018   4.364 -1.3701  0.2828  0.3980
   82SOPE  H14X 7576   7.508  -0.024   4.361 -2.1871 -1.6571 -2.4387
   82SOPE  H14Y 7577   7.408   0.092   4.281 -1.3676 -2.0734 -1.7769
   82SOPE  C315 7578   7.320  -0.102   4.316  0.2229  0.1553 -0.1232
   82SOPE  H15X 7579   7.221  -0.078   4.362 -0.3446 -0.1246 -1.1738
   82SOPE  H15Y 7580   7.355  -0.194   4.368  0.7410  0.4840  0.1058
   82SOPE  C316 7581   7.314  -0.111   4.163  0.8113 -0.2201 -0.0587
   82SOPE  H16X 7582   7.413  -0.132   4.118 -0.6404  1.2720 -4.1065
   82SOPE  H16Y 7583   7.275  -0.021   4.112  1.3638  1.5110  2.4473
   82SOPE  C317 7584   7.232  -0.232   4.126 -1.0537  0.0455 -0.2681
   82SOPE  H17X 7585   7.278  -0.328   4.160  2.2465  1.9576  0.9085
   82SOPE  H17Y 7586   7.236  -0.245   4.016  0.0637  1.0115 -0.3516
   82SOPE  C318 7587   7.083  -0.219   4.150 -0.8342  0.0563  0.1297
   82SOPE  H18X 7588   7.058  -0.197   4.256 -2.4612 -0.0066 -0.2299
   82SOPE  H18Y 7589   7.045  -0.320   4.122 -0.0494 -1.1903  3.3367
   82SOPE  H18Z 7590   7.039  -0.143   4.083 -1.6508  0.8986  1.5893
   83SOPE     N 7591   3.180   4.943   1.750 -0.4841  0.8623  0.3481
   83SOPE   HN1 7592   3.260   4.942   1.683 -0.1154  0.8734  0.7909
   83SOPE   HN2 7593   3.170   4.848   1.789  1.5970  1.2982  1.9696
   83SOPE   HN3 7594   3.094   4.970   1.696 -0.0675  1.4614 -0.0209
   83SOPE   C12 7595   3.202   5.046   1.856  0.1971  0.4991 -0.4261
   83SOPE  H12A 7596   3.109   5.053   1.916  0.2950 -1.2582 -0.0170
   83SOPE  H12B 7597   3.212   5.147   1.811 -0.9059 -0.0900 -2.0603
   83SOPE   C11 7598   3.324   4.998   1.941 -0.3800 -0.1023 -0.0500
   83SOPE  H11A 7599   3.301   4.901   1.989 -0.7179  1.2316  2.5349
   83SOPE  H11B 7600   3.333   5.076   2.019 -0.2091  0.4293 -0.5894
   83SOPE     P 7601   3.574   4.923   1.932 -0.2648 -0.0151  0.3938
   83SOPE   O13 7602   3.702   4.983   1.880  0.2157 -0.0050  0.1908
   83SOPE   O14 7603   3.557   4.773   1.934  0.1242  0.0776  0.5397
   83SOPE   O12 7604   3.447   4.985   1.864 -0.0163  1.0168 -0.0924
   83SOPE   O11 7605   3.545   4.972   2.081 -0.0513 -0.7162 -0.2484
   83SOPE    C1 7606   3.633   5.071   2.143  0.0741  0.1800 -0.1264
   83SOPE    HA 7607   3.568   5.130   2.211 -0.0819  1.4383 -1.3392
   83SOPE    HB 7608   3.682   5.138   2.069  2.7357 -1.1261  0.4028
   83SOPE    C2 7609   3.741   4.992   2.224  0.5081  0.1683  0.5714
   83SOPE    HS 7610   3.777   4.910   2.158  0.7732 -0.4138  1.4285
   83SOPE   O21 7611   3.691   4.958   2.353 -0.4749  0.1589  0.2885
   83SOPE   C21 7612   3.712   4.831   2.383 -0.4045  0.2054 -0.3245
   83SOPE   O22 7613   3.778   4.748   2.325 -0.6795 -0.2164 -0.4785
   83SOPE   C22 7614   3.664   4.821   2.531  0.5028 -0.3786  1.2119
   83SOPE   H2R 7615   3.554   4.823   2.516  0.2849  0.4497  2.8555
   83SOPE   H2S 7616   3.713   4.903   2.587  0.4072  0.8959 -0.5571
   83SOPE    C3 7617   3.865   5.077   2.256 -0.8728  0.2405 -0.1886
   83SOPE    HX 7618   3.837   5.162   2.323  0.9816  1.3461 -0.7777
   83SOPE    HY 7619   3.888   5.113   2.154  0.6224  0.3710  0.1793
   83SOPE   O31 7620   3.976   4.996   2.300  0.9869  0.4685 -1.1422
   83SOPE   C31 7621   4.091   5.058   2.339 -0.0343 -0.4844  0.9674
   83SOPE   O32 7622   4.113   5.177   2.323  0.0063 -0.4343 -0.5382
   83SOPE   C32 7623   4.178   4.959   2.411 -0.4373  0.6404 -0.9841
   83SOPE   H2X 7624   4.273   5.008   2.440 -0.3878 -0.3842  0.6668
   83SOPE   H2Y 7625   4.216   4.874   2.349 -1.2105 -0.9165  0.6472
   83SOPE   C23 7626   3.698   4.682   2.591  0.1789  0.9611  0.1922
   83SOPE   H3R 7627   3.659   4.602   2.525  1.3361  0.3377  0.2394
   83SOPE   H3S 7628   3.658   4.661   2.693  0.7624  0.8603  0.4033
   83SOPE   C24 7629   3.851   4.650   2.606  0.1332  0.7187 -0.1572
   83SOPE   H4R 7630   3.898   4.674   2.508  0.0370  1.5777  0.0031
   83SOPE   H4S 7631   3.894   4.721   2.680  2.1364 -0.5974 -0.0173
   83SOPE   C25 7632   3.888   4.515   2.666  0.0489  0.0442 -0.0307
   83SOPE   H5R 7633   3.863   4.432   2.597  0.5319 -1.3068  1.3813
   83SOPE   H5S 7634   3.999   4.521   2.665  0.1216 -1.0809  0.0529
   83SOPE   C26 7635   3.843   4.487   2.807  0.3916  0.1451  0.3653
   83SOPE   H6R 7636   3.733   4.470   2.814  0.7595 -2.8611 -0.3366
   83SOPE   H6S 7637   3.868   4.381   2.830 -0.9960  0.1596  2.1074
   83SOPE   C27 7638   3.892   4.578   2.919 -0.0927 -0.3022 -0.0631
   83SOPE   H7R 7639   4.003   4.568   2.921 -0.2383 -2.0766  1.3165
   83SOPE   H7S 7640   3.870   4.682   2.888 -0.6405 -0.1591  0.7795
   83SOPE   C28 7641   3.821   4.542   3.055  0.0658  0.0586  0.3483
   83SOPE   H8R 7642   3.828   4.632   3.120  0.7433 -1.0337  1.8450
   83SOPE   H8S 7643   3.711   4.540   3.041  0.2499  0.3275 -1.2088
   83SOPE   C29 7644   3.888   4.417   3.127  0.4345 -0.3531  0.0162
   83SOPE   H91 7645   3.906   4.333   3.059  0.2524 -0.3217 -0.0727
   83SOPE  C210 7646   3.914   4.403   3.256 -0.2828  0.4828 -0.2248
   83SOPE  H101 7647   3.951   4.305   3.288 -1.1592  0.3712  0.4729
   83SOPE  C211 7648   3.884   4.502   3.366 -0.2396  0.0903 -0.3368
   83SOPE  H11R 7649   3.800   4.474   3.434  0.3052  1.0018  0.7264
   83SOPE  H11S 7650   3.858   4.602   3.328 -3.3041 -0.7379 -0.5665
   83SOPE  C212 7651   3.994   4.533   3.467 -0.2219 -0.5635 -0.2668
   83SOPE  H12R 7652   4.073   4.604   3.432 -1.9362  0.4928 -2.1358
   83SOPE  H12S 7653   4.043   4.438   3.497  2.3803  1.6471  2.7664
   83SOPE  C213 7654   3.943   4.592   3.600  0.0589 -0.8645  0.4078
   83SOPE  H13R 7655   3.874   4.673   3.569  0.6716 -1.1905 -1.8796
   83SOPE  H13S 7656   4.035   4.630   3.650  0.7691 -0.9921 -0.7844
   83SOPE  C214 7657   3.897   4.490   3.704  0.1479 -0.2733 -0.3819
   83SOPE  H14R 7658   3.959   4.398   3.699 -0.5109 -0.7138 -0.4901
   83SOPE  H14S 7659   3.796   4.452   3.678  0.1324 -2.7188  3.0947
   83SOPE  C215 7660   3.874   4.543   3.841  0.0665  0.3895  0.0860
   83SOPE  H15R 7661   3.969   4.584   3.882 -0.0811  0.4007  0.4192
   83SOPE  H15S 7662   3.840   4.462   3.909 -1.8376 -0.1984 -1.5063
   83SOPE  C216 7663   3.775   4.658   3.860  0.1195 -0.1653 -0.2162
   83SOPE  H16R 7664   3.679   4.632   3.810  0.2195 -0.9092 -0.0248
   83SOPE  H16S 7665   3.814   4.748   3.807 -1.8185  0.3265 -0.8627
   83SOPE  C217 7666   3.749   4.697   4.009  0.1388  0.1142 -0.5799
   83SOPE  H17R 7667   3.846   4.721   4.058 -0.3637  2.4968 -0.7223
   83SOPE  H17S 7668   3.703   4.615   4.069  0.0574 -0.0001 -0.7976
   83SOPE  C218 7669   3.662   4.820   4.030 -0.3348 -0.0243 -0.2633
   83SOPE  H18R 7670   3.556   4.796   4.009 -0.4862  0.4035  0.0082
   83SOPE  H18S 7671   3.700   4.897   3.960  1.9089 -0.6198  0.2476
   83SOPE  H18T 7672   3.684   4.853   4.134 -0.5539 -2.9885  0.7768
   83SOPE   C33 7673   4.097   4.906   2.534  0.3371 -0.2472  0.2520
   83SOPE   H3X 7674   4.153   4.814   2.559  0.0862 -1.1399 -2.3147
   83SOPE   H3Y 7675   3.994   4.870   2.510  0.0494  0.6667  0.1011
   83SOPE   C34 7676   4.086   5.008   2.652  0.5558  0.1885  0.2619
   83SOPE   H4X 7677   4.019   5.094   2.629  1.9079  0.2997 -3.6237
   83SOPE   H4Y 7678   4.190   5.040   2.672  1.4231 -2.0890 -0.4998
   83SOPE   C35 7679   4.038   4.943   2.779  0.5351  0.0207 -0.0586
   83SOPE   H5X 7680   4.089   4.848   2.806  0.0411  0.2284  1.6662
   83SOPE   H5Y 7681   3.930   4.917   2.774  0.9427 -1.4222 -1.9035
   83SOPE   C36 7682   4.057   5.041   2.901  0.2515  0.7178  0.6718
   83SOPE   H6X 7683   4.019   5.142   2.872  2.7403  0.9680 -1.9247
   83SOPE   H6Y 7684   4.164   5.047   2.929  0.0734 -0.7409  1.6969
   83SOPE   C37 7685   3.978   5.003   3.028 -0.2634 -0.3890 -0.4277
   83SOPE   H7X 7686   3.986   4.896   3.056  2.0601 -0.3448 -0.8149
   83SOPE   H7Y 7687   3.869   5.021   3.021 -0.2158  0.7438  1.3946
   83SOPE   C38 7688   4.040   5.069   3.152  0.0278 -0.5465 -0.2471
   83SOPE   H8X 7689   4.026   5.179   3.146 -1.4309 -0.6229  1.2195
   83SOPE   H8Y 7690   4.145   5.037   3.162 -0.0440 -0.5835  0.4243
   83SOPE   C39 7691   3.971   5.005   3.276 -0.2235  0.5127  0.4920
   83SOPE   H9X 7692   3.979   4.894   3.282 -1.3914  0.4943  1.7823
   83SOPE   H9Y 7693   3.865   5.037   3.283  0.2814  1.9880  1.5838
   83SOPE  C310 7694   4.036   5.065   3.400 -0.6146  0.0057 -0.4836
   83SOPE  H10X 7695   4.018   5.174   3.390  1.9379  0.3485 -1.7625
   83SOPE  H10Y 7696   4.146   5.052   3.395 -0.5253 -1.0032  3.0872
   83SOPE  C311 7697   3.981   5.006   3.528  0.4242 -1.2141  0.4245
   83SOPE  H11X 7698   3.993   4.895   3.529  2.3642 -1.0262 -0.0325
   83SOPE  H11Y 7699   3.876   5.037   3.546  0.4611 -0.5854 -0.4591
   83SOPE  C312 7700   4.058   5.066   3.648 -0.4771 -0.6286 -0.0955
   83SOPE  H12X 7701   4.042   5.176   3.645  1.1587 -0.3737 -0.1184
   83SOPE  H12Y 7702   4.166   5.041   3.641 -0.1893  0.8259 -1.1760
   83SOPE  C313 7703   4.018   5.002   3.778  0.0687 -0.5419  0.1795
   83SOPE  H13X 7704   4.031   4.892   3.766 -0.0833 -0.2145 -3.6442
   83SOPE  H13Y 7705   3.909   5.021   3.785  0.4443  1.8789 -0.2026
   83SOPE  C314 7706   4.095   5.038   3.901 -0.4259 -0.2895 -0.6687
   83SOPE  H14X 7707   4.110   5.148   3.912  0.0351 -0.4021 -0.1651
   83SOPE  H14Y 7708   4.195   4.993   3.886  0.9292  1.8800  1.4551
   83SOPE  C315 7709   4.029   4.986   4.030  0.4133  0.1811  0.1998
   83SOPE  H15X 7710   4.052   4.877   4.040  1.6689  0.5378  1.2775
   83SOPE  H15Y 7711   3.919   4.997   4.022  0.0449 -2.8502  0.5218
   83SOPE  C316 7712   4.076   5.025   4.166 -0.0554 -0.6385  0.6762
   83SOPE  H16X 7713   4.020   4.975   4.248 -1.4997 -3.7963 -2.1250
   83SOPE  H16Y 7714   4.062   5.135   4.178 -1.8580 -0.8097  0.3580
   83SOPE  C317 7715   4.224   5.007   4.183  0.2397  0.0024 -0.8204
   83SOPE  H17X 7716   4.251   5.062   4.275  0.7486 -2.6440  0.6689
   83SOPE  H17Y 7717   4.271   5.062   4.100  0.0376  1.1677 -0.1746
   83SOPE  C318 7718   4.281   4.866   4.188  0.0739 -0.9232 -0.2877
   83SOPE  H18X 7719   4.246   4.813   4.097 -0.7237  0.1656 -0.6341
   83SOPE  H18Y 7720   4.234   4.822   4.278  0.8552  0.3452  0.7684
   83SOPE  H18Z 7721   4.392   4.866   4.196  0.0431  1.3318  0.4757
   84SOPE     N 7722   2.245   4.006   2.198 -0.0983  0.0564 -0.2045
   84SOPE   HN1 7723   2.277   3.912   2.168  1.7799  0.2288  1.1933
   84SOPE   HN2 7724   2.147   4.012   2.164 -0.4063  1.8706  0.9464
   84SOPE   HN3 7725   2.294   4.077   2.140  1.2775 -0.1045  0.7209
   84SOPE   C12 7726   2.281   4.059   2.331  0.0916  0.5245 -0.0414
   84SOPE  H12A 7727   2.375   4.005   2.358 -3.0705 -4.7939  0.9624
   84SOPE  H12B 7728   2.202   4.033   2.404 -0.5557  2.1964 -0.1194
   84SOPE   C11 7729   2.306   4.210   2.339  0.2456  0.5049  0.6040
   84SOPE  H11A 7730   2.342   4.243   2.438  0.4089  1.5075  0.2081
   84SOPE  H11B 7731   2.205   4.254   2.325  0.0624  1.0268  3.4450
   84SOPE     P 7732   2.420   4.394   2.185 -0.1760  0.3180 -0.1729
   84SOPE   O13 7733   2.293   4.451   2.138  0.3359 -0.1561  0.3599
   84SOPE   O14 7734   2.540   4.405   2.098 -0.9061  0.4975 -0.2628
   84SOPE   O12 7735   2.394   4.242   2.231  0.5133  0.0990  0.1473
   84SOPE   O11 7736   2.443   4.470   2.321 -0.0184 -0.1099 -0.2490
   84SOPE    C1 7737   2.581   4.476   2.381  0.3052 -0.1787 -0.0802
   84SOPE    HA 7738   2.578   4.563   2.450 -0.1344 -0.4922  0.2975
   84SOPE    HB 7739   2.663   4.505   2.312  0.3132  1.3184  0.5307
   84SOPE    C2 7740   2.610   4.362   2.478 -0.1532 -0.5834 -0.1368
   84SOPE    HS 7741   2.593   4.263   2.429 -2.8175 -0.0817 -0.3081
   84SOPE   O21 7742   2.509   4.361   2.585 -0.2805  0.2898 -0.5135
   84SOPE   C21 7743   2.509   4.257   2.656  0.0875 -0.0003 -0.4010
   84SOPE   O22 7744   2.555   4.147   2.625  0.3439  0.1547 -0.2486
   84SOPE   C22 7745   2.451   4.293   2.788 -0.1253 -0.1515  0.4578
   84SOPE   H2R 7746   2.405   4.200   2.828  2.9125 -1.3740  1.3446
   84SOPE   H2S 7747   2.382   4.379   2.787  1.8807  1.4971 -0.5682
   84SOPE    C3 7748   2.751   4.366   2.531 -0.3417  0.3867  0.0192
   84SOPE    HX 7749   2.829   4.363   2.453  1.1775 -0.8058  1.5379
   84SOPE    HY 7750   2.759   4.264   2.575 -0.2669  1.4516  2.5968
   84SOPE   O31 7751   2.780   4.482   2.617  0.2720  0.4306  0.3275
   84SOPE   C31 7752   2.896   4.487   2.672  0.0908 -0.2021 -0.1574
   84SOPE   O32 7753   2.986   4.405   2.665 -0.1298  0.0779  0.7447
   84SOPE   C32 7754   2.905   4.604   2.764  0.3315 -0.4755 -0.0296
   84SOPE   H2X 7755   2.825   4.676   2.734  0.1119 -0.7875 -0.1906
   84SOPE   H2Y 7756   3.004   4.654   2.758  1.3382 -2.5290 -0.9812
   84SOPE   C23 7757   2.560   4.333   2.888  0.3645  0.1443 -0.2549
   84SOPE   H3R 7758   2.625   4.403   2.833 -0.6394  0.6303 -0.8354
   84SOPE   H3S 7759   2.626   4.245   2.905  0.8228  0.5023 -0.1584
   84SOPE   C24 7760   2.507   4.374   3.022  0.3506 -1.1326 -0.0246
   84SOPE   H4R 7761   2.459   4.473   3.015  2.0828 -0.2754  0.0457
   84SOPE   H4S 7762   2.435   4.296   3.057  0.1914 -0.4066  1.2909
   84SOPE   C25 7763   2.606   4.375   3.134  0.4680 -0.3753 -0.4419
   84SOPE   H5R 7764   2.645   4.273   3.152 -0.5135 -0.4949  1.0920
   84SOPE   H5S 7765   2.691   4.441   3.106 -0.6650  0.1961 -2.6857
   84SOPE   C26 7766   2.555   4.426   3.265  0.2053 -0.1771  0.1365
   84SOPE   H6R 7767   2.477   4.505   3.254  1.1654  0.8802  0.7748
   84SOPE   H6S 7768   2.509   4.347   3.329  1.9345  0.8512  2.7380
   84SOPE   C27 7769   2.665   4.488   3.347  0.5218  0.0536 -0.2840
   84SOPE   H7R 7770   2.753   4.420   3.346 -1.3644 -2.6074  2.8443
   84SOPE   H7S 7771   2.685   4.585   3.297  0.8350  0.0001 -0.2634
   84SOPE   C28 7772   2.616   4.503   3.496 -0.1016  0.2138  0.9563
   84SOPE   H8R 7773   2.539   4.581   3.480  0.4329 -0.1989 -4.2922
   84SOPE   H8S 7774   2.562   4.409   3.522  1.3657 -1.4002 -1.6027
   84SOPE   C29 7775   2.707   4.536   3.607  0.2668  0.3468 -0.3748
   84SOPE   H91 7776   2.773   4.457   3.645 -0.4792  0.6230  1.5390
   84SOPE  C210 7777   2.734   4.663   3.644  0.2776  0.5647  0.0831
   84SOPE  H101 7778   2.788   4.676   3.738  0.2141  1.3196  0.0229
   84SOPE  C211 7779   2.674   4.792   3.583  0.3786 -0.6288  0.0519
   84SOPE  H11R 7780   2.651   4.791   3.474 -0.9554  0.9916  0.3019
   84SOPE  H11S 7781   2.751   4.873   3.579 -0.7961  0.5816  1.3254
   84SOPE  C212 7782   2.551   4.829   3.673 -0.0481  0.3594 -0.5475
   84SOPE  H12R 7783   2.483   4.741   3.671 -1.0128  1.0832  0.2326
   84SOPE  H12S 7784   2.504   4.918   3.627  0.2527  0.1751 -1.2102
   84SOPE  C213 7785   2.574   4.855   3.823 -1.0814 -0.0977 -0.8429
   84SOPE  H13R 7786   2.594   4.756   3.869 -2.7398  0.4198  1.0459
   84SOPE  H13S 7787   2.480   4.888   3.872 -0.5059 -1.0160  0.9274
   84SOPE  C214 7788   2.689   4.946   3.855  0.1127  0.1783  0.3802
   84SOPE  H14R 7789   2.759   4.942   3.769  0.5704 -1.9581  0.8011
   84SOPE  H14S 7790   2.758   4.931   3.942  2.0888  0.5130 -1.0971
   84SOPE  C215 7791   2.639   5.095   3.875 -0.0749 -0.0215 -0.2220
   84SOPE  H15R 7792   2.567   5.083   3.958 -0.0533 -0.0777 -0.2113
   84SOPE  H15S 7793   2.590   5.126   3.780  0.0376 -0.1520 -0.3241
   84SOPE  C216 7794   2.750   5.192   3.917  0.0489 -0.8845  0.0096
   84SOPE  H16R 7795   2.815   5.197   3.827  0.4956  0.1588  0.3889
   84SOPE  H16S 7796   2.802   5.145   4.003  0.7144  0.1881  0.1936
   84SOPE  C217 7797   2.699   5.337   3.962 -0.8961  0.4149 -0.3976
   84SOPE  H17R 7798   2.655   5.389   3.874  1.5509 -0.1542 -2.0269
   84SOPE  H17S 7799   2.791   5.391   3.993  0.0634 -0.2709 -1.9524
   84SOPE  C218 7800   2.602   5.323   4.078  0.0801 -0.2496 -0.0884
   84SOPE  H18R 7801   2.498   5.294   4.051 -0.4152 -0.5305  2.0427
   84SOPE  H18S 7802   2.607   5.412   4.144  2.2435  0.6609 -1.4262
   84SOPE  H18T 7803   2.628   5.239   4.147 -1.6371 -0.0347  0.8411
   84SOPE   C33 7804   2.883   4.566   2.912  0.2453 -0.1758 -0.7482
   84SOPE   H3X 7805   2.867   4.457   2.929 -4.6523  0.6543  0.9916
   84SOPE   H3Y 7806   2.788   4.617   2.941  0.9250  0.3308  0.6031
   84SOPE   C34 7807   2.995   4.636   3.001  0.0917 -0.2183  0.3264
   84SOPE   H4X 7808   2.992   4.743   2.970 -1.1605  0.0438  1.3256
   84SOPE   H4Y 7809   3.086   4.584   2.964 -1.1795 -1.6466 -0.9255
   84SOPE   C35 7810   2.965   4.632   3.153 -0.0734 -0.2287 -0.4932
   84SOPE   H5X 7811   2.977   4.526   3.183 -2.5548 -0.2882  0.4117
   84SOPE   H5Y 7812   2.856   4.647   3.169 -0.1670 -1.4986  0.1701
   84SOPE   C36 7813   3.064   4.717   3.228 -0.1557 -0.4223  0.6241
   84SOPE   H6X 7814   3.081   4.815   3.180  0.3290 -0.5582  0.5115
   84SOPE   H6Y 7815   3.168   4.677   3.228  0.9581  2.3753  0.2970
   84SOPE   C37 7816   3.035   4.744   3.376 -0.4233 -0.3114  0.1966
   84SOPE   H7X 7817   2.927   4.771   3.387 -0.2863 -0.0504  0.9480
   84SOPE   H7Y 7818   3.093   4.828   3.421 -1.1521  1.0972 -1.4443
   84SOPE   C38 7819   3.044   4.618   3.464 -0.5476  0.1747 -0.3308
   84SOPE   H8X 7820   2.959   4.549   3.441 -0.8767 -0.4539  2.5095
   84SOPE   H8Y 7821   3.036   4.650   3.570  0.4741  0.2390 -0.2761
   84SOPE   C39 7822   3.163   4.526   3.445  0.8750  0.6396  0.2378
   84SOPE   H9X 7823   3.243   4.597   3.475  0.0550  1.1547  1.2262
   84SOPE   H9Y 7824   3.184   4.492   3.341  2.5163  0.3662  0.6386
   84SOPE  C310 7825   3.149   4.398   3.524  0.6712 -0.8822  0.2687
   84SOPE  H10X 7826   3.062   4.333   3.502  0.2447 -0.0618 -0.5047
   84SOPE  H10Y 7827   3.126   4.414   3.631  0.6203  0.6107  0.0477
   84SOPE  C311 7828   3.258   4.291   3.507  0.2983  0.1123 -0.7045
   84SOPE  H11X 7829   3.361   4.330   3.521  0.1104  1.4937 -2.9656
   84SOPE  H11Y 7830   3.262   4.264   3.400  0.6787  1.1753 -0.9606
   84SOPE  C312 7831   3.220   4.161   3.586  0.0516  0.1075 -0.6073
   84SOPE  H12X 7832   3.283   4.089   3.528 -0.0811  1.4450 -2.4538
   84SOPE  H12Y 7833   3.118   4.122   3.567  0.8135 -1.4727 -1.6177
   84SOPE  C313 7834   3.261   4.164   3.727  0.4103 -0.6745 -0.4756
   84SOPE  H13X 7835   3.193   4.114   3.800  0.9390  0.0885  0.5457
   84SOPE  H13Y 7836   3.268   4.269   3.762  1.4798 -0.5578 -1.0142
   84SOPE  C314 7837   3.410   4.114   3.750 -0.0732 -0.3375  0.7630
   84SOPE  H14X 7838   3.466   4.155   3.664  1.0141 -2.9177  0.1886
   84SOPE  H14Y 7839   3.412   4.004   3.733  0.1302 -0.4619  1.5708
   84SOPE  C315 7840   3.477   4.156   3.881  0.7552 -0.6458  0.1769
   84SOPE  H15X 7841   3.410   4.141   3.968  2.2281  2.9941  2.0282
   84SOPE  H15Y 7842   3.505   4.263   3.886  0.4363 -0.3985 -2.5716
   84SOPE  C316 7843   3.609   4.085   3.901 -0.1640 -0.8419 -0.0563
   84SOPE  H16X 7844   3.672   4.093   3.810  1.4436 -3.7073  0.7224
   84SOPE  H16Y 7845   3.579   3.978   3.908 -0.5121 -0.7229  0.2892
   84SOPE  C317 7846   3.671   4.118   4.031 -0.2172  0.3946 -0.4369
   84SOPE  H17X 7847   3.744   4.042   4.065 -1.6939 -1.6997 -1.7460
   84SOPE  H17Y 7848   3.590   4.125   4.107 -1.0591 -0.1428 -1.2642
   84SOPE  C318 7849   3.751   4.243   4.025 -0.3641  0.3866 -0.4304
   84SOPE  H18X 7850   3.849   4.224   3.977 -0.1917  0.2689 -0.0349
   84SOPE  H18Y 7851   3.763   4.265   4.133 -1.0517 -1.1001 -0.0322
   84SOPE  H18Z 7852   3.704   4.325   3.967 -2.7144 -1.5555 -1.3706
   85SOPE     N 7853   5.733   4.777   2.257  0.0753  0.2629  0.3255
   85SOPE   HN1 7854   5.797   4.848   2.216 -0.3290 -1.0843 -2.7217
   85SOPE   HN2 7855   5.777   4.727   2.337  1.5462 -1.1541 -1.3426
   85SOPE   HN3 7856   5.711   4.706   2.185  1.6672  0.8600 -0.7715
   85SOPE   C12 7857   5.610   4.850   2.298 -0.0342  1.0524 -0.3768
   85SOPE  H12A 7858   5.628   4.928   2.375  1.8012  1.8876 -1.6381
   85SOPE  H12B 7859   5.547   4.764   2.328  2.4010 -1.1537 -1.4229
   85SOPE   C11 7860   5.532   4.910   2.186 -0.1089 -0.4997  0.2985
   85SOPE  H11A 7861   5.575   5.007   2.155  0.0704  0.0763  2.2879
   85SOPE  H11B 7862   5.428   4.935   2.215 -0.4677 -1.8809  0.2495
   85SOPE     P 7863   5.411   4.726   2.037 -0.1506 -0.1046 -0.0249
   85SOPE   O13 7864   5.455   4.604   1.971  0.2037 -0.1434  0.0194
   85SOPE   O14 7865   5.312   4.806   1.977  0.3489  0.2513 -0.5973
   85SOPE   O12 7866   5.533   4.824   2.071  0.3504  0.2796 -0.1687
   85SOPE   O11 7867   5.364   4.677   2.186 -0.1561 -0.0839 -0.0611
   85SOPE    C1 7868   5.232   4.641   2.231 -0.4078 -0.1142  0.1023
   85SOPE    HA 7869   5.241   4.574   2.320  0.0919  1.8235  1.5457
   85SOPE    HB 7870   5.182   4.582   2.151  1.8803 -0.6987 -0.9387
   85SOPE    C2 7871   5.140   4.765   2.260  0.0368 -0.4651 -0.0593
   85SOPE    HS 7872   5.168   4.831   2.175  2.2138 -3.3741 -1.7106
   85SOPE   O21 7873   5.184   4.824   2.376  0.0672  0.4297 -0.1342
   85SOPE   C21 7874   5.143   4.952   2.392  0.6278  0.3257 -0.2822
   85SOPE   O22 7875   5.080   5.012   2.308  0.8211  0.2795  0.1545
   85SOPE   C22 7876   5.202   5.016   2.520  0.2360  0.5576 -1.6501
   85SOPE   H2R 7877   5.143   4.972   2.603 -1.5324  1.9807 -2.1143
   85SOPE   H2S 7878   5.194   5.126   2.517 -3.0602  0.3809 -1.4622
   85SOPE    C3 7879   4.988   4.726   2.264 -0.2038  0.5466  0.2242
   85SOPE    HX 7880   4.963   4.692   2.162 -0.5967 -1.3666  0.9428
   85SOPE    HY 7881   4.925   4.815   2.286 -0.9319  0.1527 -0.2705
   85SOPE   O31 7882   4.968   4.622   2.361 -0.5712 -0.0199 -0.3963
   85SOPE   C31 7883   4.929   4.656   2.479  0.5323  0.2522 -0.2459
   85SOPE   O32 7884   4.894   4.768   2.516 -0.7046 -0.1876 -0.2710
   85SOPE   C32 7885   4.913   4.527   2.564  0.0802  0.5376 -0.6173
   85SOPE   H2X 7886   5.011   4.474   2.561 -0.3461 -0.1762 -2.8089
   85SOPE   H2Y 7887   4.834   4.476   2.506 -0.2997  0.8744 -0.3972
   85SOPE   C23 7888   5.351   4.977   2.542  0.5547 -0.2042  0.0084
   85SOPE   H3R 7889   5.409   5.035   2.467  1.1262 -1.8924 -0.9006
   85SOPE   H3S 7890   5.369   4.867   2.550 -1.3752 -0.5245  0.0556
   85SOPE   C24 7891   5.400   5.038   2.679 -0.4901  0.0964  0.0037
   85SOPE   H4R 7892   5.508   5.013   2.685 -0.8715 -1.3343  1.4370
   85SOPE   H4S 7893   5.388   5.148   2.676  2.1302  0.4072 -0.5797
   85SOPE   C25 7894   5.342   4.983   2.812  0.3331  0.2108  0.7530
   85SOPE   H5R 7895   5.232   4.985   2.820  0.4762  0.2856  3.1245
   85SOPE   H5S 7896   5.365   4.874   2.810  1.1381  0.3961 -1.8793
   85SOPE   C26 7897   5.406   5.024   2.946  1.0639  0.0727 -0.5294
   85SOPE   H6R 7898   5.373   4.947   3.019  1.1319  1.7849  1.3571
   85SOPE   H6S 7899   5.517   5.025   2.940  1.1043 -2.2515 -0.6819
   85SOPE   C27 7900   5.346   5.164   2.986 -0.2385 -0.3770  0.5932
   85SOPE   H7R 7901   5.357   5.226   2.895 -1.8721 -0.4751  0.3019
   85SOPE   H7S 7902   5.238   5.157   3.012 -0.2646  0.5515  0.7411
   85SOPE   C28 7903   5.408   5.236   3.106  0.2581  0.0299  0.0883
   85SOPE   H8R 7904   5.518   5.237   3.089  0.1847  1.9985 -0.4138
   85SOPE   H8S 7905   5.386   5.345   3.102  0.2115 -0.0459 -2.3319
   85SOPE   C29 7906   5.373   5.163   3.231  0.3975  0.1796 -0.4201
   85SOPE   H91 7907   5.414   5.064   3.255 -0.8824 -0.1066  0.5756
   85SOPE  C210 7908   5.285   5.211   3.323 -0.0923  0.2999  0.1933
   85SOPE  H101 7909   5.279   5.148   3.414 -2.1339 -0.3136 -0.3331
   85SOPE  C211 7910   5.202   5.335   3.323 -0.2291 -0.1096  0.1193
   85SOPE  H11R 7911   5.099   5.300   3.346  0.4116 -1.1571  1.4904
   85SOPE  H11S 7912   5.183   5.381   3.224  1.1113  0.1454 -0.0337
   85SOPE  C212 7913   5.232   5.442   3.428 -0.2195 -0.1630 -0.0111
   85SOPE  H12R 7914   5.342   5.460   3.425 -0.1497 -0.7244 -1.1108
   85SOPE  H12S 7915   5.209   5.396   3.526 -1.3296 -0.8258 -0.5651
   85SOPE  C213 7916   5.150   5.567   3.411  0.1251  0.1201  0.1490
   85SOPE  H13R 7917   5.048   5.525   3.428  1.7284 -3.8021  0.5335
   85SOPE  H13S 7918   5.163   5.613   3.311  0.4966  0.5717  0.4062
   85SOPE  C214 7919   5.163   5.669   3.519  0.6338 -0.7927  0.2339
   85SOPE  H14R 7920   5.095   5.756   3.503  1.2996  0.0252  1.7103
   85SOPE  H14S 7921   5.270   5.696   3.531  0.2108  0.1944  2.1027
   85SOPE  C215 7922   5.108   5.614   3.650  0.0334  0.2902 -0.0458
   85SOPE  H15R 7923   5.142   5.511   3.673 -1.0474 -0.3234 -1.1352
   85SOPE  H15S 7924   4.998   5.624   3.655 -0.1361 -1.0991 -0.8324
   85SOPE  C216 7925   5.167   5.695   3.769 -0.3784 -0.2131 -0.5779
   85SOPE  H16R 7926   5.130   5.656   3.866 -0.4130  1.7000  0.1916
   85SOPE  H16S 7927   5.129   5.798   3.759  2.1876  0.9874  1.4875
   85SOPE  C217 7928   5.321   5.689   3.794 -1.0055  0.3631  0.9620
   85SOPE  H17R 7929   5.381   5.734   3.712  0.7639 -2.2473  0.7486
   85SOPE  H17S 7930   5.350   5.582   3.796 -1.0296  0.2854 -1.4219
   85SOPE  C218 7931   5.367   5.760   3.924  0.0243 -0.2986 -0.3221
   85SOPE  H18R 7932   5.472   5.793   3.911  0.7124 -2.8174 -1.5079
   85SOPE  H18S 7933   5.380   5.680   4.000  0.2812  0.4001  0.3756
   85SOPE  H18T 7934   5.304   5.848   3.949 -2.9823 -2.6906  0.9163
   85SOPE   C33 7935   4.862   4.548   2.708 -0.6636 -0.2399  0.2403
   85SOPE   H3X 7936   4.788   4.466   2.722  1.8286 -2.2981  2.1222
   85SOPE   H3Y 7937   4.806   4.643   2.711 -0.5856 -0.2250  1.8095
   85SOPE   C34 7938   4.975   4.565   2.816 -0.8045 -0.3255 -0.7436
   85SOPE   H4X 7939   5.050   4.633   2.772 -0.5909  1.5564  2.4026
   85SOPE   H4Y 7940   5.024   4.466   2.826  1.2789  0.8262  0.8948
   85SOPE   C35 7941   4.916   4.607   2.954  0.2191  0.5541  0.5918
   85SOPE   H5X 7942   4.832   4.544   2.991  1.0422 -1.0489 -0.2117
   85SOPE   H5Y 7943   4.886   4.712   2.933  0.2446  0.2390 -1.0568
   85SOPE   C36 7944   5.013   4.626   3.071  0.1914  0.1101 -0.5393
   85SOPE   H6X 7945   5.105   4.679   3.038  0.6955 -1.0016 -0.9525
   85SOPE   H6Y 7946   5.049   4.529   3.111  1.8932  0.5884 -0.8746
   85SOPE   C37 7947   4.956   4.728   3.176  0.3521  0.5254  0.1336
   85SOPE   H7X 7948   4.883   4.680   3.244  0.5316  0.3967  0.2326
   85SOPE   H7Y 7949   4.915   4.823   3.135 -1.2135  0.3013  1.1403
   85SOPE   C38 7950   5.065   4.771   3.276  0.7399 -0.4692 -0.3823
   85SOPE   H8X 7951   5.143   4.827   3.220  0.5245  1.4658  1.1760
   85SOPE   H8Y 7952   5.093   4.673   3.319 -0.4681 -0.4079  0.5782
   85SOPE   C39 7953   5.016   4.862   3.391  0.1204 -0.0532 -0.2988
   85SOPE   H9X 7954   5.113   4.884   3.438 -0.7370  0.8193  1.0887
   85SOPE   H9Y 7955   4.957   4.805   3.466 -0.1833  1.8161  0.8902
   85SOPE  C310 7956   4.944   4.986   3.340  0.6306  0.4169 -0.1031
   85SOPE  H10X 7957   4.860   4.957   3.274  0.2826 -2.1256  1.3853
   85SOPE  H10Y 7958   5.015   5.057   3.294  1.0933  0.4522  0.6554
   85SOPE  C311 7959   4.876   5.061   3.451  0.0119 -0.0514 -0.0735
   85SOPE  H11X 7960   4.950   5.090   3.529  1.3786 -1.1248 -0.9699
   85SOPE  H11Y 7961   4.803   4.991   3.497  1.5286 -0.5292  1.6527
   85SOPE  C312 7962   4.808   5.190   3.408 -0.1211 -0.5071 -0.0765
   85SOPE  H12X 7963   4.714   5.160   3.356 -1.0742 -1.4537  2.1092
   85SOPE  H12Y 7964   4.867   5.229   3.323 -1.5956  0.0204 -0.8821
   85SOPE  C313 7965   4.764   5.296   3.503  0.5143 -0.0676 -0.6998
   85SOPE  H13X 7966   4.679   5.260   3.565  0.3214  1.8056  0.1503
   85SOPE  H13Y 7967   4.724   5.378   3.440  0.5525 -0.1078 -0.7758
   85SOPE  C314 7968   4.869   5.352   3.596 -0.1924  0.0751  0.3096
   85SOPE  H14X 7969   4.929   5.415   3.527  0.1517 -0.5984 -0.0044
   85SOPE  H14Y 7970   4.935   5.268   3.626 -1.4510 -0.9501  0.2250
   85SOPE  C315 7971   4.813   5.438   3.712  0.8901  0.3366 -0.2369
   85SOPE  H15X 7972   4.901   5.470   3.770  0.3952 -0.8968  1.2194
   85SOPE  H15Y 7973   4.748   5.364   3.763 -0.7517  0.7538 -1.6344
   85SOPE  C316 7974   4.731   5.556   3.662  0.1816  0.1475 -0.3713
   85SOPE  H16X 7975   4.642   5.506   3.615 -0.6690  0.2741  1.0870
   85SOPE  H16Y 7976   4.781   5.622   3.588 -1.9558  0.7388 -1.3373
   85SOPE  C317 7977   4.665   5.645   3.767 -0.5379 -0.4681 -0.0908
   85SOPE  H17X 7978   4.636   5.579   3.852  1.4724 -0.2984  0.7648
   85SOPE  H17Y 7979   4.577   5.696   3.723  0.2286  0.3650 -0.6752
   85SOPE  C318 7980   4.770   5.751   3.819 -0.2400 -0.5438  0.8737
   85SOPE  H18X 7981   4.745   5.811   3.910 -1.5204 -0.8706  0.7503
   85SOPE  H18Y 7982   4.787   5.830   3.743 -3.1981 -0.9723 -0.3121
   85SOPE  H18Z 7983   4.869   5.703   3.827 -1.2110 -2.6032  0.8173
   86SOPE     N 7984   6.191   1.241   2.169 -0.1178  0.3984 -0.2080
   86SOPE   HN1 7985   6.218   1.340   2.147 -1.6108  0.6384 -1.0258
   86SOPE   HN2 7986   6.114   1.247   2.239 -1.1588  1.4288 -1.4047
   86SOPE   HN3 7987   6.272   1.191   2.209  1.2467 -0.0127 -3.3099
   86SOPE   C12 7988   6.142   1.162   2.049  0.1747  0.4920  0.0490
   86SOPE  H12A 7989   6.227   1.138   1.982 -1.5348  0.5805 -2.2521
   86SOPE  H12B 7990   6.082   1.226   1.980 -0.1395  0.3582  0.1976
   86SOPE   C11 7991   6.062   1.040   2.079 -0.0697 -0.0619  0.0196
   86SOPE  H11A 7992   6.118   0.970   2.144 -0.3700  0.0961  0.4510
   86SOPE  H11B 7993   6.029   0.985   1.988  1.8421 -1.3370  0.0747
   86SOPE     P 7994   5.810   1.114   2.084  0.5784 -0.4228 -0.3927
   86SOPE   O13 7995   5.783   1.006   1.984 -0.0151  0.1278 -0.6598
   86SOPE   O14 7996   5.804   1.256   2.042 -0.3383  0.1726 -0.3035
   86SOPE   O12 7997   5.945   1.080   2.154  0.6667 -0.5778  0.5964
   86SOPE   O11 7998   5.722   1.102   2.216 -0.3049 -1.1661  0.2358
   86SOPE    C1 7999   5.702   1.202   2.316  0.5909  0.1346 -0.5797
   86SOPE    HA 8000   5.622   1.171   2.386  0.3245  0.2539 -0.8279
   86SOPE    HB 8001   5.661   1.294   2.269 -0.2841  1.1212  2.0660
   86SOPE    C2 8002   5.834   1.231   2.393  0.1786  0.2764  0.4514
   86SOPE    HS 8003   5.905   1.277   2.321 -0.2752  0.7942  0.3347
   86SOPE   O21 8004   5.883   1.115   2.467  0.0483  0.0149  0.6033
   86SOPE   C21 8005   6.013   1.113   2.461  0.0589  0.0368 -0.4360
   86SOPE   O22 8006   6.083   1.203   2.416  0.2802  0.0155 -0.1606
   86SOPE   C22 8007   6.066   0.985   2.525  1.1522 -0.6742  0.5607
   86SOPE   H2R 8008   6.086   1.010   2.632 -0.6512 -1.0741  1.0132
   86SOPE   H2S 8009   6.163   0.960   2.478 -0.4550 -3.2072 -1.5337
   86SOPE    C3 8010   5.806   1.354   2.489 -0.1850  0.1706  0.1009
   86SOPE    HX 8011   5.758   1.424   2.418  0.6415 -0.5786 -1.2225
   86SOPE    HY 8012   5.896   1.403   2.531  1.0820 -0.3350 -1.9348
   86SOPE   O31 8013   5.718   1.303   2.596  0.4315  0.2346 -0.0213
   86SOPE   C31 8014   5.650   1.403   2.657  0.0026 -0.4912  0.5801
   86SOPE   O32 8015   5.650   1.522   2.626  0.1241 -0.7432 -0.8913
   86SOPE   C32 8016   5.560   1.339   2.763  0.0565  0.5310 -0.1255
   86SOPE   H2X 8017   5.585   1.231   2.770  2.0745  1.0576  1.3346
   86SOPE   H2Y 8018   5.458   1.344   2.720  0.2960 -0.0044 -0.7562
   86SOPE   C23 8019   5.970   0.864   2.523  0.0607 -0.0845  0.2373
   86SOPE   H3R 8020   5.889   0.875   2.599 -1.2782 -0.7454 -1.0672
   86SOPE   H3S 8021   6.032   0.777   2.552 -0.5284 -0.4613  0.3883
   86SOPE   C24 8022   5.911   0.834   2.382  0.6831  0.0818 -0.3334
   86SOPE   H4R 8023   5.832   0.907   2.356  0.7800  0.8701  1.5268
   86SOPE   H4S 8024   5.986   0.846   2.300  1.1204 -1.1553 -0.1368
   86SOPE   C25 8025   5.859   0.690   2.368 -0.5655 -0.4194 -0.1078
   86SOPE   H5R 8026   5.807   0.698   2.270 -1.2796 -3.3454 -0.0177
   86SOPE   H5S 8027   5.945   0.620   2.371  1.2887  1.7226 -1.9788
   86SOPE   C26 8028   5.759   0.662   2.485  1.0960  0.0270  0.5036
   86SOPE   H6R 8029   5.802   0.618   2.577 -0.9474 -1.0301  0.9698
   86SOPE   H6S 8030   5.704   0.751   2.522  0.0311  0.2855 -1.6011
   86SOPE   C27 8031   5.645   0.565   2.436 -0.7719 -0.2475 -0.7707
   86SOPE   H7R 8032   5.587   0.593   2.346 -1.4618 -0.1682 -0.3044
   86SOPE   H7S 8033   5.691   0.474   2.391 -1.7923 -1.0993 -0.1023
   86SOPE   C28 8034   5.551   0.532   2.554 -0.5594 -0.0996 -0.0219
   86SOPE   H8R 8035   5.501   0.439   2.519 -1.5459 -0.2282  1.6432
   86SOPE   H8S 8036   5.620   0.506   2.637 -1.2931  0.1632  0.6821
   86SOPE   C29 8037   5.441   0.644   2.581 -0.0406  0.5298  0.8689
   86SOPE   H91 8038   5.361   0.649   2.506  1.8521 -0.9017 -1.3350
   86SOPE  C210 8039   5.436   0.717   2.690  0.2357  0.3565 -0.2322
   86SOPE  H101 8040   5.359   0.795   2.701  1.9821  2.4443 -2.3693
   86SOPE  C211 8041   5.531   0.713   2.809  0.4848  0.6959  0.2639
   86SOPE  H11R 8042   5.608   0.633   2.810 -0.0816  0.1576  0.8716
   86SOPE  H11S 8043   5.474   0.709   2.904 -1.0799 -0.5921 -0.7132
   86SOPE  C212 8044   5.614   0.847   2.818 -0.2678 -0.1935 -0.3561
   86SOPE  H12R 8045   5.545   0.931   2.794  1.8071  1.8377  0.6676
   86SOPE  H12S 8046   5.703   0.852   2.751  2.0133 -1.7934  2.4476
   86SOPE  C213 8047   5.688   0.861   2.952  0.4865  0.8923 -0.1775
   86SOPE  H13R 8048   5.772   0.789   2.957 -1.3553 -1.5810 -3.5171
   86SOPE  H13S 8049   5.619   0.859   3.039  0.2067 -1.4748 -0.4353
   86SOPE  C214 8050   5.752   1.004   2.956 -0.1790  0.0623  0.2157
   86SOPE  H14R 8051   5.741   1.044   3.059  2.2750  0.6926  0.2578
   86SOPE  H14S 8052   5.692   1.070   2.890 -1.0010 -0.0086  0.8947
   86SOPE  C215 8053   5.898   1.016   2.927  0.0852  0.1533  0.2195
   86SOPE  H15R 8054   5.919   1.005   2.818 -0.8278 -0.1644  0.0617
   86SOPE  H15S 8055   5.955   0.938   2.981 -0.9093 -0.6376  0.1519
   86SOPE  C216 8056   5.949   1.152   2.966 -0.3710  0.1109 -1.3877
   86SOPE  H16R 8057   6.056   1.152   2.995 -0.0727 -0.1122 -2.4602
   86SOPE  H16S 8058   5.896   1.182   3.059  2.1221 -0.5781  0.2954
   86SOPE  C217 8059   5.912   1.268   2.870  0.1961 -0.3281 -0.1453
   86SOPE  H17R 8060   5.801   1.265   2.870  0.1963 -0.3090  0.1482
   86SOPE  H17S 8061   5.943   1.245   2.766  1.0180  1.8089 -0.4045
   86SOPE  C218 8062   5.971   1.405   2.907 -0.5362  0.0258  0.2172
   86SOPE  H18R 8063   5.940   1.489   2.841  0.5708 -1.1615 -1.8312
   86SOPE  H18S 8064   6.081   1.396   2.899 -0.2582  3.6731 -1.0957
   86SOPE  H18T 8065   5.930   1.434   3.007  0.0189  1.4967  0.0376
   86SOPE   C33 8066   5.570   1.413   2.901 -0.5237 -0.0950 -0.3407
   86SOPE   H3X 8067   5.552   1.523   2.905  1.1277  0.1837 -0.1725
   86SOPE   H3Y 8068   5.673   1.402   2.940  0.1084  1.3524 -1.5569
   86SOPE   C34 8069   5.469   1.351   3.008  0.3101 -0.1861  0.0389
   86SOPE   H4X 8070   5.457   1.243   2.984 -0.0753 -0.3476  0.9462
   86SOPE   H4Y 8071   5.369   1.397   2.993  1.5358  2.4497 -0.2049
   86SOPE   C35 8072   5.498   1.375   3.161  0.0259 -0.1292 -0.5125
   86SOPE   H5X 8073   5.499   1.485   3.177  1.3137 -0.4195  1.5306
   86SOPE   H5Y 8074   5.598   1.334   3.182 -0.5839 -0.6614  1.4683
   86SOPE   C36 8075   5.394   1.319   3.260  0.1499 -0.6577 -0.8183
   86SOPE   H6X 8076   5.325   1.244   3.214 -4.3384  1.8832  1.4380
   86SOPE   H6Y 8077   5.326   1.404   3.283 -0.2551 -1.2983  0.3961
   86SOPE   C37 8078   5.453   1.281   3.397 -0.2675 -0.0501  0.0825
   86SOPE   H7X 8079   5.562   1.261   3.383 -0.8490 -3.3295 -0.2015
   86SOPE   H7Y 8080   5.399   1.195   3.443  0.2018 -0.5820 -0.3421
   86SOPE   C38 8081   5.446   1.396   3.493  0.4026 -0.0702 -0.4187
   86SOPE   H8X 8082   5.341   1.416   3.526  1.0595  1.2643  0.9781
   86SOPE   H8Y 8083   5.481   1.493   3.451 -2.4716  0.3910 -1.8991
   86SOPE   C39 8084   5.511   1.360   3.629  0.2825 -0.8202 -0.2625
   86SOPE   H9X 8085   5.618   1.337   3.614  0.5311  0.1728  0.0057
   86SOPE   H9Y 8086   5.457   1.266   3.658  0.4378 -0.8877 -0.1941
   86SOPE  C310 8087   5.508   1.478   3.730 -0.0825 -0.4573  0.5678
   86SOPE  H10X 8088   5.411   1.532   3.717  1.0931  1.3883 -0.7298
   86SOPE  H10Y 8089   5.593   1.545   3.706 -0.0365 -0.2396  1.3282
   86SOPE  C311 8090   5.529   1.416   3.863  0.3890 -0.5626 -0.7483
   86SOPE  H11X 8091   5.567   1.497   3.929 -0.1391 -0.8698 -0.0538
   86SOPE  H11Y 8092   5.619   1.351   3.865  2.6445  2.4776  1.1164
   86SOPE  C312 8093   5.406   1.362   3.936 -0.6124 -0.0136  0.4238
   86SOPE  H12X 8094   5.382   1.260   3.898  0.9393 -0.2812  0.1407
   86SOPE  H12Y 8095   5.314   1.424   3.930 -0.5468  0.0414 -0.0818
   86SOPE  C313 8096   5.424   1.357   4.087  0.1309  0.1671  0.0424
   86SOPE  H13X 8097   5.327   1.320   4.125  0.9668 -2.0607  0.0488
   86SOPE  H13Y 8098   5.439   1.462   4.120  2.0407  0.0461 -0.3731
   86SOPE  C314 8099   5.541   1.279   4.126 -0.0928 -1.1775  0.2839
   86SOPE  H14X 8100   5.614   1.354   4.163  0.9032 -2.0032  0.0095
   86SOPE  H14Y 8101   5.589   1.228   4.040  1.1383 -1.1666  0.9545
   86SOPE  C315 8102   5.499   1.185   4.237 -0.7203  0.5540 -0.1650
   86SOPE  H15X 8103   5.448   1.101   4.184  2.6717 -1.3741 -0.5099
   86SOPE  H15Y 8104   5.433   1.234   4.312 -1.2875  1.0865 -1.0045
   86SOPE  C316 8105   5.628   1.135   4.301 -0.0912 -0.1109 -0.6191
   86SOPE  H16X 8106   5.598   1.087   4.397  0.3996  0.2890 -0.2574
   86SOPE  H16Y 8107   5.703   1.213   4.325 -0.2180 -0.2317  0.1806
   86SOPE  C317 8108   5.699   1.027   4.216 -0.4545 -0.1909 -0.0367
   86SOPE  H17X 8109   5.732   1.070   4.119  0.3504 -0.5217  0.0896
   86SOPE  H17Y 8110   5.623   0.948   4.200 -2.8334  2.0595 -0.2966
   86SOPE  C318 8111   5.822   0.967   4.282 -0.3023  0.1628  0.2121
   86SOPE  H18X 8112   5.851   0.867   4.241 -0.4056  0.5413 -0.7883
   86SOPE  H18Y 8113   5.810   0.951   4.391 -3.0731 -0.1792 -0.1220
   86SOPE  H18Z 8114   5.913   1.027   4.260 -0.1519 -0.0543  0.2331
   87SOPE     N 8115   6.567   0.615   2.080 -0.0902  0.0564  0.0679
   87SOPE   HN1 8116   6.635   0.664   2.143 -0.5467  0.3328  0.3502
   87SOPE   HN2 8117   6.524   0.544   2.142  0.8130 -0.5618  0.0008
   87SOPE   HN3 8118   6.606   0.564   1.999 -2.2548 -0.3550 -0.7303
   87SOPE   C12 8119   6.462   0.709   2.032  0.2044 -0.7536 -0.1866
   87SOPE  H12A 8120   6.398   0.647   1.966  0.2348  0.9857 -1.8828
   87SOPE  H12B 8121   6.514   0.774   1.959  0.3842 -0.0507  0.5532
   87SOPE   C11 8122   6.392   0.780   2.150  0.5406  0.2889  0.3976
   87SOPE  H11A 8123   6.335   0.713   2.218 -1.7252 -0.3312 -2.0269
   87SOPE  H11B 8124   6.315   0.843   2.100  0.9633 -0.4799 -1.2538
   87SOPE     P 8125   6.517   1.004   2.209 -0.1335  0.5980 -0.3397
   87SOPE   O13 8126   6.391   1.078   2.216  0.3715  0.2101 -0.2194
   87SOPE   O14 8127   6.601   1.026   2.093 -0.4720 -0.0190 -0.3054
   87SOPE   O12 8128   6.487   0.852   2.228  0.4270  0.4185  0.2790
   87SOPE   O11 8129   6.602   1.030   2.339 -0.1509  0.1802 -0.5016
   87SOPE    C1 8130   6.719   0.971   2.393  0.0099  0.3574 -0.3015
   87SOPE    HA 8131   6.726   1.017   2.493  1.4985 -1.2048  0.3440
   87SOPE    HB 8132   6.807   1.001   2.331 -0.8681  1.6428 -0.9558
   87SOPE    C2 8133   6.715   0.818   2.426 -0.0309  0.7310 -0.4487
   87SOPE    HS 8134   6.718   0.760   2.331 -1.8397 -4.2612  2.3523
   87SOPE   O21 8135   6.595   0.788   2.496  0.0314  0.2777  0.3294
   87SOPE   C21 8136   6.523   0.679   2.460 -0.0540  0.6947 -1.1638
   87SOPE   O22 8137   6.558   0.598   2.379  0.0902  0.4477 -0.0233
   87SOPE   C22 8138   6.398   0.662   2.551 -0.7148 -0.9739  0.3812
   87SOPE   H2R 8139   6.429   0.563   2.592 -0.7320 -0.5476  1.4352
   87SOPE   H2S 8140   6.311   0.639   2.486 -1.9280 -3.5178  2.8439
   87SOPE    C3 8141   6.838   0.777   2.515 -0.1026  0.0642  0.2416
   87SOPE    HX 8142   6.925   0.816   2.458  0.0705  0.1024  0.5279
   87SOPE    HY 8143   6.848   0.666   2.515 -2.7839 -0.1964 -0.6192
   87SOPE   O31 8144   6.837   0.836   2.649  0.7144  0.2850 -0.5556
   87SOPE   C31 8145   6.798   0.753   2.738  0.2803  0.4432  0.0095
   87SOPE   O32 8146   6.756   0.638   2.727 -0.5019 -0.4202 -0.5280
   87SOPE   C32 8147   6.836   0.815   2.878  0.2596 -0.0222  0.0466
   87SOPE   H2X 8148   6.771   0.905   2.888  1.6258  0.8691  1.1631
   87SOPE   H2Y 8149   6.944   0.837   2.892  0.9518 -2.1402 -1.5803
   87SOPE   C23 8150   6.385   0.769   2.661  0.0949 -0.1138 -0.6932
   87SOPE   H3R 8151   6.366   0.868   2.614 -1.6240  0.2942  0.7865
   87SOPE   H3S 8152   6.480   0.788   2.714 -0.5626 -0.2084  0.5586
   87SOPE   C24 8153   6.278   0.747   2.770  0.0678 -0.5379  0.4985
   87SOPE   H4R 8154   6.287   0.841   2.827  1.7047  0.5133 -1.4366
   87SOPE   H4S 8155   6.172   0.741   2.735  0.3028  0.3978 -0.4037
   87SOPE   C25 8156   6.325   0.634   2.863 -0.5553 -0.0696 -0.9353
   87SOPE   H5R 8157   6.321   0.542   2.801  2.6058  0.1065 -1.4657
   87SOPE   H5S 8158   6.426   0.656   2.904 -0.6420 -1.7704  0.2289
   87SOPE   C26 8159   6.240   0.612   2.988  0.5853 -0.9549 -0.0487
   87SOPE   H6R 8160   6.230   0.704   3.050  2.7416  0.6613 -2.0159
   87SOPE   H6S 8161   6.135   0.586   2.959  0.3969  0.0607 -0.3198
   87SOPE   C27 8162   6.292   0.494   3.065 -0.2230  0.2777  0.4884
   87SOPE   H7R 8163   6.209   0.421   3.066  0.5792 -0.6375  0.2608
   87SOPE   H7S 8164   6.377   0.453   3.006  0.0641  0.1274  1.0076
   87SOPE   C28 8165   6.337   0.538   3.207 -0.4998 -0.1839 -0.1792
   87SOPE   H8R 8166   6.385   0.448   3.251 -0.0701  1.0683  1.9945
   87SOPE   H8S 8167   6.418   0.612   3.191  0.7347 -1.3057  0.8265
   87SOPE   C29 8168   6.228   0.604   3.293  0.2787  0.6652  0.1361
   87SOPE   H91 8169   6.154   0.659   3.233  0.7251 -2.4083 -3.4180
   87SOPE  C210 8170   6.230   0.612   3.430 -0.0901  0.6851  0.0828
   87SOPE  H101 8171   6.153   0.653   3.497  1.0664  1.2146  1.1109
   87SOPE  C211 8172   6.346   0.554   3.504  0.7642  0.3152  0.6528
   87SOPE  H11R 8173   6.437   0.609   3.470  1.2848 -0.3232  1.0157
   87SOPE  H11S 8174   6.352   0.446   3.479 -1.0384  0.8142 -2.0974
   87SOPE  C212 8175   6.338   0.554   3.652  0.5309 -0.1168  0.1481
   87SOPE  H12R 8176   6.269   0.473   3.686  0.9046  0.1900  1.6831
   87SOPE  H12S 8177   6.298   0.649   3.692  1.4271  1.0960 -1.7746
   87SOPE  C213 8178   6.474   0.526   3.723 -0.9752 -0.1377 -0.4308
   87SOPE  H13R 8179   6.537   0.609   3.685 -1.2042  0.5869  0.7593
   87SOPE  H13S 8180   6.525   0.441   3.673  0.7558  0.6555 -0.0550
   87SOPE  C214 8181   6.455   0.537   3.874 -0.0759  0.0364 -0.2772
   87SOPE  H14R 8182   6.359   0.492   3.908  0.1990 -0.4689 -0.1592
   87SOPE  H14S 8183   6.454   0.646   3.898  0.8271 -0.0333  0.0702
   87SOPE  C215 8184   6.578   0.479   3.950 -0.2351 -0.3735  0.2115
   87SOPE  H15R 8185   6.582   0.497   4.059  1.9959 -3.2145  0.6502
   87SOPE  H15S 8186   6.665   0.539   3.919 -0.2343  1.2464  3.1695
   87SOPE  C216 8187   6.613   0.330   3.916  0.2436 -0.1995 -0.5917
   87SOPE  H16R 8188   6.602   0.295   3.811 -0.7777  1.3518 -1.0286
   87SOPE  H16S 8189   6.535   0.277   3.975  1.0463 -2.1325 -1.2589
   87SOPE  C217 8190   6.753   0.278   3.955 -0.4465  0.1554  0.2837
   87SOPE  H17R 8191   6.774   0.306   4.060 -0.5083 -0.4610  0.4623
   87SOPE  H17S 8192   6.831   0.346   3.914 -0.7281 -0.1130 -0.7133
   87SOPE  C218 8193   6.780   0.130   3.935  0.0253  0.0345  0.3134
   87SOPE  H18R 8194   6.758   0.104   3.829 -0.3264  2.0474 -0.1266
   87SOPE  H18S 8195   6.717   0.067   4.001 -1.7199  1.7138  0.3139
   87SOPE  H18T 8196   6.887   0.109   3.955  0.2057  0.9048  0.2674
   87SOPE   C33 8197   6.792   0.718   2.983 -0.2533  0.3018  0.8718
   87SOPE   H3X 8198   6.857   0.628   2.982  0.2399  0.6579  0.7658
   87SOPE   H3Y 8199   6.685   0.688   2.979 -0.3234  0.8155 -1.2697
   87SOPE   C34 8200   6.807   0.773   3.128  0.4157  0.2953 -0.2859
   87SOPE   H4X 8201   6.724   0.843   3.155 -2.0759 -1.5438 -2.9222
   87SOPE   H4Y 8202   6.904   0.826   3.137  0.0758  0.5043  2.7507
   87SOPE   C35 8203   6.805   0.667   3.237 -0.0755 -0.0442  0.3119
   87SOPE   H5X 8204   6.904   0.622   3.215 -0.0143  0.5508 -0.6804
   87SOPE   H5Y 8205   6.734   0.584   3.214 -1.0297  1.2865 -1.7674
   87SOPE   C36 8206   6.797   0.707   3.385  0.1164 -0.3981  0.2396
   87SOPE   H6X 8207   6.690   0.711   3.414 -0.4174  2.4872 -1.9016
   87SOPE   H6Y 8208   6.842   0.809   3.390 -0.2354 -0.0309 -3.2276
   87SOPE   C37 8209   6.861   0.612   3.484  0.3437 -0.3909 -0.5868
   87SOPE   H7X 8210   6.953   0.584   3.430  1.3506 -0.8772  1.3211
   87SOPE   H7Y 8211   6.801   0.520   3.495  1.7906 -1.3129 -0.3008
   87SOPE   C38 8212   6.920   0.682   3.611 -0.0125 -0.5339 -0.9828
   87SOPE   H8X 8213   7.007   0.742   3.575  2.2893 -3.5716 -0.7097
   87SOPE   H8Y 8214   6.985   0.606   3.658 -1.1195 -1.7209 -1.3388
   87SOPE   C39 8215   6.823   0.769   3.694 -0.2402  0.0738 -0.2644
   87SOPE   H9X 8216   6.718   0.740   3.671 -0.9455  3.1850 -1.1812
   87SOPE   H9Y 8217   6.836   0.872   3.655  0.8845  0.4570  1.0586
   87SOPE  C310 8218   6.850   0.763   3.842 -0.1503 -0.2254  0.6122
   87SOPE  H10X 8219   6.953   0.800   3.864 -0.7944 -0.2076  3.8342
   87SOPE  H10Y 8220   6.845   0.655   3.868  0.7096 -0.3727  0.1888
   87SOPE  C311 8221   6.754   0.854   3.929 -0.5747 -0.8978  0.4607
   87SOPE  H11X 8222   6.650   0.829   3.899  0.4779 -2.0112 -2.4478
   87SOPE  H11Y 8223   6.752   0.965   3.919 -1.9186 -0.8747  0.8442
   87SOPE  C312 8224   6.775   0.838   4.079  0.1361  0.6962  0.3941
   87SOPE  H12X 8225   6.872   0.885   4.105  0.5650  1.1682 -1.9275
   87SOPE  H12Y 8226   6.783   0.730   4.105  1.0997  0.2810 -1.5471
   87SOPE  C313 8227   6.656   0.902   4.157 -0.6460  0.1565 -0.3468
   87SOPE  H13X 8228   6.567   0.862   4.104 -0.1704  0.7694 -1.6424
   87SOPE  H13Y 8229   6.647   1.013   4.151  0.1481  0.2027 -0.7359
   87SOPE  C314 8230   6.651   0.844   4.301  0.6473  0.8213 -0.0777
   87SOPE  H14X 8231   6.730   0.881   4.369  0.3560  0.4472  0.4636
   87SOPE  H14Y 8232   6.650   0.734   4.292  1.6030  0.8297 -0.4316
   87SOPE  C315 8233   6.516   0.877   4.356 -0.1916 -1.0695 -0.2472
   87SOPE  H15X 8234   6.436   0.813   4.314 -3.0213  1.3078  1.2857
   87SOPE  H15Y 8235   6.507   0.986   4.332 -2.2661 -1.0366  0.5250
   87SOPE  C316 8236   6.494   0.856   4.503  0.5942 -0.4757 -0.1927
   87SOPE  H16X 8237   6.548   0.932   4.563  0.2864  0.2264 -0.7983
   87SOPE  H16Y 8238   6.543   0.761   4.532  1.8986  0.3368  0.2966
   87SOPE  C317 8239   6.347   0.850   4.546 -0.0829 -0.1155 -0.6320
   87SOPE  H17X 8240   6.308   0.746   4.550  1.1727 -0.5441  1.0907
   87SOPE  H17Y 8241   6.278   0.905   4.478 -1.4352 -0.0472  0.7635
   87SOPE  C318 8242   6.337   0.920   4.685  0.7566 -0.4379 -0.6993
   87SOPE  H18X 8243   6.369   1.027   4.682 -0.3193 -0.0438  0.9652
   87SOPE  H18Y 8244   6.398   0.866   4.760 -1.5284 -0.6449  1.0700
   87SOPE  H18Z 8245   6.233   0.921   4.724  0.6268 -1.5310 -1.0117
   88SOPE     N 8246   0.334   1.017   1.898 -0.2129  0.5982 -0.2527
   88SOPE   HN1 8247   0.337   1.084   1.818  1.0412  1.2610  0.3293
   88SOPE   HN2 8248   0.305   0.928   1.853 -0.0606 -0.2336  1.2818
   88SOPE   HN3 8249   0.256   1.046   1.960  1.0265  0.9978  1.1533
   88SOPE   C12 8250   0.467   1.033   1.972  0.3066  0.1583 -0.2178
   88SOPE  H12A 8251   0.541   1.023   1.890 -0.1179  3.3057 -1.0427
   88SOPE  H12B 8252   0.475   0.948   2.044  0.4676  0.8781  0.6240
   88SOPE   C11 8253   0.472   1.167   2.054  0.6868 -1.0030  0.1062
   88SOPE  H11A 8254   0.486   1.248   1.979  1.7243 -1.0915  0.1849
   88SOPE  H11B 8255   0.562   1.159   2.119  0.5190  0.3416  0.5187
   88SOPE     P 8256   0.294   1.329   2.154  0.2420 -0.1327  0.2067
   88SOPE   O13 8257   0.145   1.326   2.161  0.5029 -0.5929 -0.7396
   88SOPE   O14 8258   0.359   1.445   2.078  0.5744 -0.3520 -0.6414
   88SOPE   O12 8259   0.350   1.183   2.126 -0.3283  0.1112  0.3891
   88SOPE   O11 8260   0.345   1.333   2.305  0.6422 -0.0461 -0.0349
   88SOPE    C1 8261   0.442   1.433   2.348  0.1506  0.4853  0.2413
   88SOPE    HA 8262   0.404   1.533   2.320 -1.8540  0.0319  1.2731
   88SOPE    HB 8263   0.544   1.415   2.307 -0.0484 -0.4906  0.1617
   88SOPE    C2 8264   0.459   1.432   2.500 -0.2999 -0.3826  0.0133
   88SOPE    HS 8265   0.496   1.332   2.533 -1.0255 -0.7762 -0.3338
   88SOPE   O21 8266   0.345   1.483   2.563 -0.0923 -0.4788  0.2085
   88SOPE   C21 8267   0.264   1.388   2.612 -0.2577  0.5029 -0.2117
   88SOPE   O22 8268   0.277   1.269   2.591  0.0528  0.6126 -0.3592
   88SOPE   C22 8269   0.157   1.458   2.692  0.0719  0.1374  0.1702
   88SOPE   H2R 8270   0.075   1.487   2.621  1.0773  0.0509 -1.0395
   88SOPE   H2S 8271   0.210   1.545   2.736 -0.8489  1.1345 -0.6250
   88SOPE    C3 8272   0.574   1.528   2.542 -0.3017 -0.2495  0.2297
   88SOPE    HX 8273   0.575   1.632   2.502 -0.4948  0.0018  0.8645
   88SOPE    HY 8274   0.659   1.482   2.487 -0.2991  0.6859 -0.5433
   88SOPE   O31 8275   0.606   1.527   2.676  0.3975  0.1977  0.8060
   88SOPE   C31 8276   0.578   1.635   2.751 -0.4718 -0.2850  0.1535
   88SOPE   O32 8277   0.543   1.739   2.704  1.1139 -0.1411 -0.6130
   88SOPE   C32 8278   0.592   1.594   2.898 -0.3969  0.2983 -0.2543
   88SOPE   H2X 8279   0.700   1.595   2.923 -0.4410  1.4768 -0.0804
   88SOPE   H2Y 8280   0.562   1.491   2.923  1.7296 -0.3364 -0.2400
   88SOPE   C23 8281   0.104   1.368   2.811  0.6602  0.0196 -0.5441
   88SOPE   H3R 8282   0.185   1.301   2.847  1.6893  0.1717 -2.5293
   88SOPE   H3S 8283   0.024   1.307   2.763  1.4458 -2.0584  0.7016
   88SOPE   C24 8284   0.049   1.442   2.939  0.6148 -0.2607 -0.1281
   88SOPE   H4R 8285   0.111   1.533   2.949 -0.2782  0.4088 -0.6201
   88SOPE   H4S 8286  -0.049   1.482   2.904  2.0009  2.4613 -1.0331
   88SOPE   C25 8287   0.048   1.364   3.072 -0.1469 -0.8186  0.7417
   88SOPE   H5R 8288  -0.012   1.271   3.059 -3.0218  1.0603 -0.0212
   88SOPE   H5S 8289   0.151   1.334   3.101 -1.1760 -2.3596  3.0219
   88SOPE   C26 8290  -0.014   1.439   3.190  0.0775 -0.1309 -0.6271
   88SOPE   H6R 8291   0.013   1.545   3.174 -1.8624  0.1780 -2.0157
   88SOPE   H6S 8292  -0.124   1.437   3.174 -0.1381  1.8245  0.4492
   88SOPE   C27 8293   0.015   1.380   3.330  0.2381 -0.4630 -0.7369
   88SOPE   H7R 8294   0.002   1.270   3.320 -2.0224 -0.2082 -0.8733
   88SOPE   H7S 8295   0.119   1.388   3.369 -0.0893 -2.0486  0.5060
   88SOPE   C28 8296  -0.084   1.433   3.433  0.6588 -0.1907 -0.1394
   88SOPE   H8R 8297  -0.187   1.430   3.391  0.9257 -0.9810 -0.7485
   88SOPE   H8S 8298  -0.087   1.360   3.517 -0.6356 -1.3958 -1.2070
   88SOPE   C29 8299  -0.031   1.573   3.478  0.3297  1.0308 -0.3578
   88SOPE   H91 8300  -0.025   1.645   3.394  1.6398 -0.1060 -1.2522
   88SOPE  C210 8301  -0.003   1.618   3.605 -0.0231  0.5350  0.3282
   88SOPE  H101 8302   0.037   1.720   3.616  2.2411 -0.4343  1.4982
   88SOPE  C211 8303  -0.024   1.544   3.732  0.0939 -0.3112  1.0185
   88SOPE  H11R 8304  -0.087   1.453   3.731  0.1629 -0.3564  0.7008
   88SOPE  H11S 8305  -0.068   1.616   3.804  0.9509  2.0855 -0.7679
   88SOPE  C212 8306   0.115   1.518   3.798 -0.2482  0.3066 -0.2798
   88SOPE  H12R 8307   0.144   1.611   3.852 -1.6375 -0.5926  2.0919
   88SOPE  H12S 8308   0.192   1.495   3.721  0.4036 -1.3139  0.8332
   88SOPE  C213 8309   0.110   1.406   3.901  0.0696  0.4001 -0.4478
   88SOPE  H13R 8310   0.083   1.316   3.841  1.1774  0.7571 -1.5094
   88SOPE  H13S 8311   0.026   1.418   3.972 -0.8328  2.5586 -1.8160
   88SOPE  C214 8312   0.245   1.384   3.979 -0.3721 -1.0614  0.2087
   88SOPE  H14R 8313   0.261   1.478   4.036  0.0004 -0.3443 -1.0404
   88SOPE  H14S 8314   0.328   1.379   3.905 -0.6068  5.1028 -0.7704
   88SOPE  C215 8315   0.237   1.274   4.082 -0.1353  0.6132  0.6055
   88SOPE  H15R 8316   0.213   1.182   4.023  1.0964  0.5551  0.1560
   88SOPE  H15S 8317   0.159   1.298   4.156 -0.5774 -1.6910  0.9398
   88SOPE  C216 8318   0.375   1.256   4.155  0.4448  0.4923 -0.3707
   88SOPE  H16R 8319   0.389   1.347   4.218 -2.1057  0.2937  0.5809
   88SOPE  H16S 8320   0.453   1.259   4.077  0.8813  0.9590  0.0751
   88SOPE  C217 8321   0.383   1.128   4.236 -0.6010 -0.0640 -0.6329
   88SOPE  H17R 8322   0.476   1.140   4.296  0.1884 -0.2762 -1.7917
   88SOPE  H17S 8323   0.404   1.053   4.156 -0.8327 -0.8807  0.0586
   88SOPE  C218 8324   0.260   1.098   4.321 -0.2905  0.4172 -0.2433
   88SOPE  H18R 8325   0.295   1.026   4.398  0.2502  0.8767 -0.0512
   88SOPE  H18S 8326   0.172   1.061   4.266  0.6087  1.3319 -2.3324
   88SOPE  H18T 8327   0.226   1.188   4.378 -1.3024  2.3690 -3.7991
   88SOPE   C33 8328   0.531   1.698   2.995 -0.8313  0.5446 -1.1760
   88SOPE   H3X 8329   0.545   1.806   2.974  1.5091  0.5166 -0.0028
   88SOPE   H3Y 8330   0.570   1.690   3.099 -2.0101  2.8559 -0.5306
   88SOPE   C34 8331   0.378   1.673   3.009 -0.0685 -0.1686 -1.0970
   88SOPE   H4X 8332   0.354   1.587   3.075 -0.5722 -0.0807 -1.1607
   88SOPE   H4Y 8333   0.345   1.639   2.909  0.3868  1.3793 -1.7830
   88SOPE   C35 8334   0.290   1.793   3.047  0.7152  0.3172  0.1216
   88SOPE   H5X 8335   0.184   1.760   3.049  0.8470 -0.0922  0.5159
   88SOPE   H5Y 8336   0.304   1.864   2.963 -3.6325  0.6395 -0.4308
   88SOPE   C36 8337   0.320   1.873   3.174 -0.4934  0.2801  0.1654
   88SOPE   H6X 8338   0.234   1.943   3.186 -0.0145  1.1807 -1.4590
   88SOPE   H6Y 8339   0.417   1.926   3.162  0.9371 -2.0235  1.1720
   88SOPE   C37 8340   0.335   1.782   3.304 -0.4602 -0.4014  0.4083
   88SOPE   H7X 8341   0.391   1.691   3.274 -0.5331 -0.0002 -1.0155
   88SOPE   H7Y 8342   0.233   1.754   3.339 -0.6863 -0.8222 -0.5660
   88SOPE   C38 8343   0.402   1.850   3.418  0.0622 -0.7076 -0.2996
   88SOPE   H8X 8344   0.344   1.942   3.441  2.7090  0.4956  1.9772
   88SOPE   H8Y 8345   0.507   1.874   3.392  0.1339 -2.6679 -1.9096
   88SOPE   C39 8346   0.389   1.760   3.535  0.2273 -0.0479 -0.3859
   88SOPE   H9X 8347   0.454   1.673   3.513 -0.8097 -1.0937  0.6610
   88SOPE   H9Y 8348   0.282   1.732   3.548 -0.2367  0.6963 -2.3476
   88SOPE  C310 8349   0.430   1.833   3.667  0.2791  0.5595 -0.8399
   88SOPE  H10X 8350   0.536   1.861   3.646  0.4935 -0.5711 -1.3235
   88SOPE  H10Y 8351   0.422   1.762   3.752 -1.9724  0.1699 -1.3451
   88SOPE  C311 8352   0.323   1.939   3.711  0.4239 -0.1571  0.4541
   88SOPE  H11X 8353   0.221   1.898   3.706 -0.5099  2.1669 -0.5408
   88SOPE  H11Y 8354   0.321   2.027   3.643 -0.5487 -1.2215 -0.9055
   88SOPE  C312 8355   0.360   1.996   3.848 -0.6748  0.1624  0.2142
   88SOPE  H12X 8356   0.457   2.046   3.829 -0.9101  0.4971 -0.1194
   88SOPE  H12Y 8357   0.385   1.922   3.927  3.2590  1.5575  0.3660
   88SOPE  C313 8358   0.260   2.092   3.914 -0.7342 -0.0526 -0.0815
   88SOPE  H13X 8359   0.178   2.023   3.943  0.4602 -1.8625 -0.9344
   88SOPE  H13Y 8360   0.218   2.171   3.847  0.4565 -0.3454 -1.1953
   88SOPE  C314 8361   0.321   2.171   4.032  0.1308 -0.2031 -0.2249
   88SOPE  H14X 8362   0.352   2.109   4.119 -0.1007  0.1247  0.0924
   88SOPE  H14Y 8363   0.244   2.238   4.075 -0.2525 -1.2366  0.7202
   88SOPE  C315 8364   0.441   2.261   3.993 -0.0724  0.1294  0.1613
   88SOPE  H15X 8365   0.408   2.332   3.914 -0.1655  1.0989  1.0441
   88SOPE  H15Y 8366   0.530   2.209   3.953 -1.0630 -1.2876 -0.2165
   88SOPE  C316 8367   0.488   2.335   4.130 -0.3129  0.0178 -0.2146
   88SOPE  H16X 8368   0.513   2.255   4.203  0.5116 -0.5517 -1.1096
   88SOPE  H16Y 8369   0.404   2.397   4.168 -1.2866 -0.5771 -1.3605
   88SOPE  C317 8370   0.604   2.432   4.110  0.1440  0.2651  0.1625
   88SOPE  H17X 8371   0.693   2.370   4.086 -0.5995 -1.2858  1.2672
   88SOPE  H17Y 8372   0.614   2.467   4.215  1.0639  1.6144 -0.3634
   88SOPE  C318 8373   0.589   2.557   4.025  0.3459 -0.0135 -0.4150
   88SOPE  H18X 8374   0.493   2.604   4.056  0.7263 -0.3752  1.3874
   88SOPE  H18Y 8375   0.584   2.541   3.915  2.2646  2.6017 -0.9305
   88SOPE  H18Z 8376   0.673   2.624   4.053  0.2793 -0.1897  0.2043
   89SAPC     N 8377   4.124   4.182   6.306 -0.0524 -0.3049  0.6877
   89SAPC   C12 8378   4.070   4.072   6.392  1.1227 -0.2036  0.2618
   89SAPC  H12A 8379   3.963   4.081   6.396  0.9588 -1.9605  0.2738
   89SAPC  H12B 8380   4.102   4.092   6.494 -2.1897 -0.5133  1.4185
   89SAPC   C13 8381   4.040   4.303   6.334  0.2597 -0.1623 -0.2153
   89SAPC  H13A 8382   3.936   4.285   6.353 -0.2200  0.7873 -1.8608
   89SAPC  H13B 8383   4.082   4.345   6.425 -2.4269  1.7719  0.1840
   89SAPC  H13C 8384   4.052   4.376   6.255  0.9992 -0.9799 -0.8619
   89SAPC   C14 8385   4.267   4.199   6.338 -0.2888 -0.5886 -0.2298
   89SAPC  H14A 8386   4.277   4.250   6.433 -1.5500 -1.7155  0.5178
   89SAPC  H14B 8387   4.301   4.097   6.337  0.5558 -0.3402  1.4089
   89SAPC  H14C 8388   4.325   4.250   6.263 -2.0536  0.7526 -0.7142
   89SAPC   C15 8389   4.113   4.153   6.162 -0.1365  0.4113 -0.5316
   89SAPC  H15A 8390   4.142   4.239   6.104  0.2743 -0.7675 -2.0843
   89SAPC  H15B 8391   4.185   4.075   6.141  0.6040 -0.7835  5.2969
   89SAPC  H15C 8392   4.014   4.132   6.126 -0.0100  1.1597 -1.3338
   89SAPC   C11 8393   4.102   3.926   6.345  0.0759  0.2064  0.0428
   89SAPC  H11A 8394   4.055   3.911   6.245 -1.0087 -1.2895  0.7718
   89SAPC  H11B 8395   4.063   3.858   6.423 -1.4640 -0.2690 -1.1294
   89SAPC     P 8396   4.323   3.827   6.238  0.1814  0.0009  0.1917
   89SAPC   O13 8397   4.435   3.753   6.299 -0.1635 -0.5550  0.3925
   89SAPC   O14 8398   4.220   3.753   6.164  0.3869  0.4923 -0.7559
   89SAPC   O12 8399   4.246   3.907   6.351  0.1993 -0.1723 -0.3752
   89SAPC   O11 8400   4.382   3.946   6.160  0.1985 -0.1304  0.1711
   89SAPC    C1 8401   4.390   3.939   6.012  0.4892  0.4998  0.3855
   89SAPC    HA 8402   4.309   3.874   5.972  0.5690 -2.1215  4.2694
   89SAPC    HB 8403   4.358   4.040   5.976  0.5449  0.3662 -0.0365
   89SAPC    C2 8404   4.535   3.904   5.961 -0.3826  0.2165  0.2093
   89SAPC    HS 8405   4.606   3.961   6.024 -2.3515  0.9304  1.8088
   89SAPC   O21 8406   4.558   3.953   5.831 -0.0559 -0.1939 -0.6336
   89SAPC   C21 8407   4.551   4.086   5.814  0.2816  0.5663 -0.5090
   89SAPC   O22 8408   4.555   4.168   5.903  0.1694 -0.0641 -0.2561
   89SAPC   C22 8409   4.550   4.113   5.664  0.3284  0.0624 -0.0341
   89SAPC   H2R 8410   4.659   4.124   5.642 -0.3077  2.1036 -2.3229
   89SAPC   H2S 8411   4.512   4.022   5.612  2.3564 -0.5836 -0.4670
   89SAPC    C3 8412   4.556   3.751   5.964  0.3669 -0.5786 -0.2025
   89SAPC    HX 8413   4.476   3.707   5.900 -1.2837  1.8929  0.0908
   89SAPC    HY 8414   4.542   3.701   6.063 -2.1146  1.5250  0.5669
   89SAPC   O31 8415   4.681   3.723   5.895  0.2788 -0.4436  0.2495
   89SAPC   C31 8416   4.788   3.722   5.965  0.6185 -0.2772  0.0437
   89SAPC   O32 8417   4.795   3.742   6.085 -0.1944  0.2860 -0.7424
   89SAPC   C32 8418   4.907   3.692   5.873 -1.1143  0.1228  0.6176
   89SAPC   H2X 8419   4.910   3.581   5.872  2.8717  0.1443 -1.7943
   89SAPC   H2Y 8420   5.003   3.725   5.918  0.7089 -2.8854 -0.9096
   89SAPC   C23 8421   4.460   4.233   5.615 -0.1104  0.2627 -0.0126
   89SAPC   H3R 8422   4.493   4.271   5.516  2.5427 -0.5823  0.5124
   89SAPC   H3S 8423   4.481   4.322   5.678  0.9508 -0.2210  0.3236
   89SAPC   C24 8424   4.308   4.198   5.595 -0.2947  0.1267 -0.2380
   89SAPC   H4R 8425   4.310   4.116   5.520  0.0773  1.0501 -1.2430
   89SAPC   H4S 8426   4.261   4.282   5.540 -0.4043 -0.2311 -0.6904
   89SAPC   C25 8427   4.230   4.164   5.716  0.1815  0.5055  0.1391
   89SAPC   H5R 8428   4.234   4.240   5.796 -0.6122  0.7677 -0.0643
   89SAPC   C26 8429   4.160   4.053   5.748  0.1919 -0.3153  0.1745
   89SAPC   H6R 8430   4.122   4.036   5.850 -0.1425  1.3611  0.3419
   89SAPC   C27 8431   4.149   3.930   5.655 -0.0234  0.0410 -0.1403
   89SAPC   H7R 8432   4.144   3.956   5.547  0.4756 -0.0881 -0.1976
   89SAPC   H7S 8433   4.051   3.885   5.683  0.2439 -0.3972  0.0931
   89SAPC   C28 8434   4.264   3.829   5.672  0.4367  0.1268  0.2394
   89SAPC   H8R 8435   4.291   3.802   5.775 -0.0306 -1.0073  0.0722
   89SAPC   C29 8436   4.318   3.760   5.571 -0.0545  0.0232 -0.8304
   89SAPC   H9R 8437   4.409   3.710   5.607 -0.5159  1.6570  2.7980
   89SAPC  C210 8438   4.287   3.749   5.424  0.3527  0.3651  0.8660
   89SAPC  H10R 8439   4.205   3.813   5.386 -2.4550 -3.8188 -0.4594
   89SAPC  H10S 8440   4.239   3.649   5.425 -0.1019  0.4970 -2.5611
   89SAPC  C211 8441   4.410   3.748   5.330  1.1780 -0.5109  0.0745
   89SAPC  H11R 8442   4.485   3.670   5.347  0.3256 -1.5025 -0.6757
   89SAPC  C212 8443   4.429   3.830   5.226 -0.1182  0.5216  0.0596
   89SAPC  H12R 8444   4.520   3.812   5.166  0.9363 -2.8141  2.4946
   89SAPC  C213 8445   4.350   3.953   5.176  0.4788 -0.0973  0.7973
   89SAPC  H13R 8446   4.319   4.019   5.260  1.6590 -1.0398  1.9904
   89SAPC  H13S 8447   4.254   3.912   5.139 -0.1806  2.5379 -0.5635
   89SAPC  C214 8448   4.420   4.030   5.068  0.1468  0.0522 -0.1057
   89SAPC  H14R 8449   4.513   4.073   5.108  1.6363 -1.7443 -1.5678
   89SAPC  C215 8450   4.379   4.073   4.947 -0.0116 -0.1329  0.3056
   89SAPC  H15R 8451   4.443   4.135   4.883  0.5288  1.0649  1.9621
   89SAPC  C216 8452   4.241   4.053   4.893 -0.1515 -0.7693  0.3020
   89SAPC  H16R 8453   4.198   4.151   4.863  0.3177 -0.6022  0.1752
   89SAPC  H16S 8454   4.175   4.015   4.974  0.2229  0.8240  1.3685
   89SAPC  C217 8455   4.237   3.949   4.777  0.2468  0.0611 -0.2271
   89SAPC  H17R 8456   4.136   3.907   4.757 -0.4845 -0.1980  3.5971
   89SAPC  H17S 8457   4.298   3.868   4.824  0.1852  1.3915  2.2291
   89SAPC  C218 8458   4.299   3.985   4.647  0.7812  0.4483  0.3109
   89SAPC  H18R 8459   4.404   4.004   4.675  0.3489  0.3929  1.9868
   89SAPC  H18S 8460   4.253   4.079   4.610  0.4552 -0.5559 -1.9872
   89SAPC  C219 8461   4.274   3.890   4.524  0.3924 -0.4449  1.0070
   89SAPC  H19R 8462   4.180   3.919   4.473  1.4717  0.8619 -0.2799
   89SAPC  H19S 8463   4.274   3.787   4.565 -0.9579 -0.0311  2.0979
   89SAPC  C220 8464   4.392   3.908   4.424 -0.9565  0.2381  0.2422
   89SAPC  H20R 8465   4.483   3.896   4.486 -1.2225  0.4703  0.6821
   89SAPC  H20S 8466   4.387   4.015   4.394  2.0577  0.3466 -0.0360
   89SAPC  H20T 8467   4.377   3.832   4.344 -0.0978  0.7496 -0.4077
   89SAPC   C33 8468   4.889   3.730   5.728 -0.1026 -0.0916 -0.0631
   89SAPC   H3X 8469   4.797   3.678   5.691  0.2194  0.9865 -2.4070
   89SAPC   H3Y 8470   4.971   3.692   5.665 -1.1261 -1.0661 -0.8305
   89SAPC   C34 8471   4.879   3.877   5.683 -0.0711  0.0828 -0.6785
   89SAPC   H4X 8472   4.968   3.931   5.722  0.0090  1.0143 -2.0969
   89SAPC   H4Y 8473   4.788   3.921   5.729  0.2586 -1.0522  1.0815
   89SAPC   C35 8474   4.871   3.866   5.528 -0.0542 -0.5071 -0.1541
   89SAPC   H5X 8475   4.792   3.794   5.498 -2.3125  3.0573 -3.3458
   89SAPC   H5Y 8476   4.969   3.835   5.486  0.0291  1.1564 -1.2396
   89SAPC   C36 8477   4.831   3.998   5.458  0.1506  0.3533  0.1962
   89SAPC   H6X 8478   4.864   4.085   5.518  1.2946 -1.0073  1.5794
   89SAPC   H6Y 8479   4.720   3.993   5.453  0.2475  0.4433 -3.9854
   89SAPC   C37 8480   4.908   4.022   5.326  0.1015  0.0467  0.1768
   89SAPC   H7X 8481   4.889   3.937   5.257 -0.4101  1.5561 -1.5784
   89SAPC   H7Y 8482   5.018   4.019   5.343 -0.0975  0.4732  1.6231
   89SAPC   C38 8483   4.876   4.152   5.247  0.2504 -0.1423 -0.5087
   89SAPC   H8X 8484   4.876   4.244   5.310 -0.6125  0.6066 -1.5807
   89SAPC   H8Y 8485   4.771   4.151   5.210 -0.0647  2.6298  0.1425
   89SAPC   C39 8486   4.979   4.186   5.146 -0.4818 -1.1614  0.1882
   89SAPC   H9X 8487   4.996   4.104   5.073  2.1954  0.3188 -0.9364
   89SAPC   H9Y 8488   5.076   4.202   5.198  0.6337 -1.0665 -1.8507
   89SAPC  C310 8489   4.936   4.309   5.059  0.2584  0.5750 -0.4097
   89SAPC  H10X 8490   4.919   4.394   5.130 -1.1831 -0.6687  0.7830
   89SAPC  H10Y 8491   4.833   4.287   5.025  0.0702  0.5264  0.1763
   89SAPC  C311 8492   5.033   4.346   4.941 -0.5799  0.4119 -0.2112
   89SAPC  H11X 8493   5.055   4.247   4.897  0.6454 -0.7440  2.8617
   89SAPC  H11Y 8494   5.127   4.372   4.995  1.1067 -1.8195 -1.9882
   89SAPC  C312 8495   4.985   4.444   4.838 -1.6923 -0.0659  0.4165
   89SAPC  H12X 8496   4.989   4.547   4.878 -1.7775  0.0735  0.0632
   89SAPC  H12Y 8497   4.880   4.420   4.812 -1.0017  0.0890 -2.7061
   89SAPC  C313 8498   5.078   4.443   4.702  0.0132  0.4221 -0.1326
   89SAPC  H13X 8499   5.176   4.414   4.745  0.6767 -0.8334 -2.4326
   89SAPC  H13Y 8500   5.074   4.545   4.658 -2.1179 -0.8982 -3.2196
   89SAPC  C314 8501   5.048   4.335   4.603 -0.0567  0.3723  0.3870
   89SAPC  H14X 8502   4.944   4.341   4.565  0.8808  2.5032 -1.9617
   89SAPC  H14Y 8503   5.055   4.234   4.649 -0.7517  0.0886 -0.1089
   89SAPC  C315 8504   5.130   4.343   4.474  0.1991  0.4551  0.1886
   89SAPC  H15X 8505   5.226   4.292   4.496  0.4828  1.1622  0.6339
   89SAPC  H15Y 8506   5.153   4.449   4.450 -0.4825  0.8135  1.0757
   89SAPC  C316 8507   5.073   4.262   4.356  0.2012  0.3226  0.3702
   89SAPC  H16X 8508   4.982   4.313   4.316 -0.0577 -1.2913 -1.1902
   89SAPC  H16Y 8509   5.067   4.156   4.390  0.2448  0.0686 -0.3937
   89SAPC  C317 8510   5.164   4.258   4.232 -0.7605 -0.1481 -0.5739
   89SAPC  H17X 8511   5.263   4.211   4.251 -1.4440 -1.0978  0.6939
   89SAPC  H17Y 8512   5.194   4.363   4.211 -0.9584  0.3710  1.6041
   89SAPC  C318 8513   5.086   4.188   4.122  0.2907  0.2331 -0.8297
   89SAPC  H18X 8514   5.146   4.151   4.036 -1.0202 -1.1519 -1.1736
   89SAPC  H18Y 8515   5.010   4.256   4.078  0.1292  1.2631  0.9839
   89SAPC  H18Z 8516   5.040   4.094   4.161 -0.4348  0.2111 -1.6914
   90SAPC     N 8517   0.714   0.929   6.415  0.5755  0.7054 -0.5474
   90SAPC   C12 8518   0.730   0.881   6.270 -0.4032  0.3711 -0.0255
   90SAPC  H12A 8519   0.652   0.811   6.243  0.0578  0.0427 -0.5304
   90SAPC  H12B 8520   0.828   0.834   6.270 -0.9361 -0.7643 -0.7835
   90SAPC   C13 8521   0.819   1.018   6.466 -0.6769 -1.2422 -0.4151
   90SAPC  H13A 8522   0.788   1.060   6.561 -1.6997  3.3599 -2.6189
   90SAPC  H13B 8523   0.919   0.977   6.471 -0.5978 -0.9434  0.4914
   90SAPC  H13C 8524   0.834   1.110   6.411 -0.5306 -0.0141  1.6013
   90SAPC   C14 8525   0.589   0.999   6.439  0.3574 -0.0397 -0.4479
   90SAPC  H14A 8526   0.506   0.956   6.386 -1.4209  1.0728  1.3472
   90SAPC  H14B 8527   0.563   1.009   6.544  1.3070  0.1782 -0.2243
   90SAPC  H14C 8528   0.599   1.098   6.396 -0.4482  0.4970  0.5755
   90SAPC   C15 8529   0.702   0.801   6.497 -0.5328  0.3782  0.4402
   90SAPC  H15A 8530   0.696   0.821   6.603 -0.4488 -0.2768  0.5670
   90SAPC  H15B 8531   0.621   0.741   6.459  0.3385 -1.2593  1.1400
   90SAPC  H15C 8532   0.792   0.742   6.497 -0.1492  0.9506  0.0444
   90SAPC   C11 8533   0.717   0.998   6.158 -0.1009  0.1684  1.1244
   90SAPC  H11A 8534   0.622   1.047   6.191 -1.1454 -0.7882 -0.4253
   90SAPC  H11B 8535   0.710   0.960   6.054 -0.4740 -0.4697  1.3838
   90SAPC     P 8536   0.961   1.083   6.133 -0.1134  0.3666  0.0299
   90SAPC   O13 8537   1.041   1.201   6.170 -0.1363 -0.2360 -0.2327
   90SAPC   O14 8538   1.009   0.957   6.199  0.4754  0.0333  0.1232
   90SAPC   O12 8539   0.812   1.098   6.173  0.2230  0.0248  0.3339
   90SAPC   O11 8540   0.967   1.065   5.975 -0.0368  0.8866 -0.2967
   90SAPC    C1 8541   0.906   1.155   5.885 -0.3844  0.4063  0.2804
   90SAPC    HA 8542   0.886   1.096   5.793  2.2576  0.7314 -0.5574
   90SAPC    HB 8543   0.815   1.203   5.926 -1.0630 -1.4138  0.9627
   90SAPC    C2 8544   0.998   1.267   5.853  0.2824 -1.0889 -0.1722
   90SAPC    HS 8545   1.037   1.308   5.948  1.0825 -1.7529 -0.2004
   90SAPC   O21 8546   0.922   1.380   5.796 -0.6385 -0.5577  0.7973
   90SAPC   C21 8547   0.982   1.496   5.813 -0.9236 -0.0991  0.0318
   90SAPC   O22 8548   1.081   1.515   5.885 -0.0391  0.1698  0.1432
   90SAPC   C22 8549   0.889   1.608   5.770  0.4609  0.2986  0.2708
   90SAPC   H2R 8550   0.787   1.576   5.800 -0.0383 -2.5296 -3.9464
   90SAPC   H2S 8551   0.929   1.703   5.811  0.4336  0.6561 -0.5292
   90SAPC    C3 8552   1.126   1.230   5.758  0.1847  0.1601  0.6532
   90SAPC    HX 8553   1.167   1.133   5.793 -2.4099 -0.3428  2.4888
   90SAPC    HY 8554   1.196   1.313   5.780  0.0641  0.6228 -0.6357
   90SAPC   O31 8555   1.094   1.228   5.622  0.1419  0.2730  0.0694
   90SAPC   C31 8556   1.196   1.246   5.540 -0.2652 -0.1110  0.2497
   90SAPC   O32 8557   1.310   1.275   5.567 -0.0735  0.6720  0.1857
   90SAPC   C32 8558   1.165   1.212   5.392  0.5279  0.3415  0.4784
   90SAPC   H2X 8559   1.068   1.158   5.381 -0.4199  1.9864  0.7078
   90SAPC   H2Y 8560   1.242   1.140   5.356 -0.8702  0.6578 -3.3815
   90SAPC   C23 8561   0.876   1.617   5.611 -0.6684 -0.0239 -0.9481
   90SAPC   H3R 8562   0.816   1.703   5.575 -1.4371  1.0321  2.6545
   90SAPC   H3S 8563   0.816   1.527   5.588  0.5343 -0.9589 -0.4602
   90SAPC   C24 8564   1.007   1.612   5.536  0.0272 -0.6202 -0.3799
   90SAPC   H4R 8565   0.986   1.637   5.429 -0.8500 -0.5513 -0.2003
   90SAPC   H4S 8566   1.044   1.507   5.527 -2.3255 -1.7342  2.1390
   90SAPC   C25 8567   1.107   1.716   5.586  0.7213  0.0000  0.5670
   90SAPC   H5R 8568   1.116   1.722   5.696  1.7245 -1.8850  0.6067
   90SAPC   C26 8569   1.186   1.782   5.501 -0.1489  0.3645 -0.1291
   90SAPC   H6R 8570   1.247   1.857   5.552 -0.6904  1.0460 -0.4791
   90SAPC   C27 8571   1.193   1.784   5.344 -0.3905  0.2521  0.5821
   90SAPC   H7R 8572   1.104   1.835   5.301 -0.3319  0.9428  1.2722
   90SAPC   H7S 8573   1.183   1.678   5.313 -2.9085  0.5161  0.3757
   90SAPC   C28 8574   1.318   1.844   5.285 -0.8555 -0.3701 -0.2846
   90SAPC   H8R 8575   1.315   1.954   5.284 -0.5039 -0.3635 -0.8540
   90SAPC   C29 8576   1.431   1.778   5.253 -0.5439  0.2410  0.2736
   90SAPC   H9R 8577   1.516   1.840   5.221  0.5062 -0.2381  2.0642
   90SAPC  C210 8578   1.460   1.627   5.264 -0.2459  0.7057 -0.2434
   90SAPC  H10R 8579   1.413   1.567   5.182  0.1930 -0.5238  0.3896
   90SAPC  H10S 8580   1.427   1.591   5.364  0.0496  3.4164  0.8532
   90SAPC  C211 8581   1.604   1.591   5.269  0.2926 -0.1423 -0.6057
   90SAPC  H11R 8582   1.660   1.677   5.309 -2.8010  1.3629  0.7327
   90SAPC  C212 8583   1.673   1.483   5.226  1.2621  1.0935  0.2391
   90SAPC  H12R 8584   1.783   1.478   5.219  1.2397 -1.5114  1.2455
   90SAPC  C213 8585   1.619   1.342   5.182  0.4649 -0.2520  0.5081
   90SAPC  H13R 8586   1.521   1.353   5.130  1.5429  1.8266 -1.1673
   90SAPC  H13S 8587   1.580   1.293   5.273 -2.4188 -1.7037 -1.4171
   90SAPC  C214 8588   1.707   1.251   5.101 -0.1463  0.5501  0.0441
   90SAPC  H14R 8589   1.749   1.167   5.158 -1.3003 -0.0015  0.0996
   90SAPC  C215 8590   1.722   1.245   4.968 -0.9027 -0.3536  0.1509
   90SAPC  H15R 8591   1.769   1.164   4.911 -0.7054  0.5169 -0.9473
   90SAPC  C216 8592   1.655   1.345   4.882 -0.2355 -0.1547  0.4615
   90SAPC  H16R 8593   1.593   1.412   4.944 -0.3542  0.7312 -0.6092
   90SAPC  H16S 8594   1.588   1.290   4.812  0.4164  1.1076 -1.1785
   90SAPC  C217 8595   1.767   1.424   4.806  0.2731  0.2174  0.1923
   90SAPC  H17R 8596   1.824   1.460   4.894 -1.4153 -0.1911  1.5015
   90SAPC  H17S 8597   1.726   1.511   4.749 -3.0851  0.1084  2.2790
   90SAPC  C218 8598   1.838   1.335   4.702  0.1721 -0.7326 -0.4363
   90SAPC  H18R 8599   1.761   1.298   4.632 -1.0496  0.8032  0.0519
   90SAPC  H18S 8600   1.892   1.251   4.750 -0.8033 -1.2671 -0.2496
   90SAPC  C219 8601   1.949   1.416   4.636 -0.2209 -0.3552  0.4739
   90SAPC  H19R 8602   2.019   1.441   4.719 -0.9763  2.2635  0.3788
   90SAPC  H19S 8603   1.899   1.511   4.608  0.2006 -0.4484 -0.6051
   90SAPC  C220 8604   2.023   1.342   4.526 -0.5421  0.1813  0.0466
   90SAPC  H20R 8605   2.088   1.415   4.473  1.3424  0.3735  2.5744
   90SAPC  H20S 8606   1.950   1.290   4.460 -1.9215 -0.3553  1.9870
   90SAPC  H20T 8607   2.085   1.264   4.575 -1.6045 -1.6689 -1.4654
   90SAPC   C33 8608   1.176   1.339   5.301  0.3903  0.2130 -0.2570
   90SAPC   H3X 8609   1.281   1.351   5.267  1.1450 -0.6744  1.7073
   90SAPC   H3Y 8610   1.141   1.435   5.344 -0.1946 -0.4920  0.8615
   90SAPC   C34 8611   1.086   1.317   5.179 -0.4703  1.0230  0.1765
   90SAPC   H4X 8612   1.097   1.404   5.111 -0.9094  1.8146  1.1122
   90SAPC   H4Y 8613   0.983   1.301   5.216 -0.8844  2.2327 -0.4519
   90SAPC   C35 8614   1.129   1.196   5.092 -0.6282 -0.4225 -0.0621
   90SAPC   H5X 8615   1.124   1.104   5.153 -1.9690 -0.8078 -0.7247
   90SAPC   H5Y 8616   1.229   1.222   5.050  0.2945 -1.6277  1.3421
   90SAPC   C36 8617   1.028   1.181   4.973  0.4462 -0.0387  0.0770
   90SAPC   H6X 8618   0.928   1.168   5.018  1.0107 -0.3277  1.2673
   90SAPC   H6Y 8619   1.062   1.095   4.912 -1.8288  0.4825 -2.0305
   90SAPC   C37 8620   1.026   1.303   4.877 -0.1209  0.0465 -0.7365
   90SAPC   H7X 8621   0.984   1.389   4.933  2.9373  0.9679  0.2193
   90SAPC   H7Y 8622   0.960   1.277   4.791 -2.6594  2.3531  0.4350
   90SAPC   C38 8623   1.163   1.350   4.829 -0.1114 -0.0616 -0.5956
   90SAPC   H8X 8624   1.200   1.253   4.790 -0.4216 -0.4187 -0.0237
   90SAPC   H8Y 8625   1.227   1.391   4.910  0.6854  0.1678 -1.3299
   90SAPC   C39 8626   1.147   1.440   4.705 -0.3073 -0.2064  0.3835
   90SAPC   H9X 8627   1.246   1.489   4.701  0.5762 -2.0118 -0.8348
   90SAPC   H9Y 8628   1.069   1.518   4.714 -0.0230  0.2600 -1.2088
   90SAPC  C310 8629   1.113   1.359   4.576 -0.1470  0.7710  0.3321
   90SAPC  H10X 8630   1.013   1.312   4.582 -0.1467  1.0252  2.4937
   90SAPC  H10Y 8631   1.201   1.290   4.567 -0.8522  0.0789 -1.5327
   90SAPC  C311 8632   1.104   1.439   4.447 -0.7536 -0.4614  0.5405
   90SAPC  H11X 8633   1.010   1.498   4.444  0.5537  1.5589 -2.5279
   90SAPC  H11Y 8634   1.103   1.368   4.362  3.2057  1.4486 -1.2497
   90SAPC  C312 8635   1.219   1.542   4.427  0.5577  0.0795 -0.3283
   90SAPC  H12X 8636   1.223   1.600   4.522  0.8178 -3.4175  1.8750
   90SAPC  H12Y 8637   1.190   1.620   4.353 -1.4892 -0.8919 -0.5967
   90SAPC  C313 8638   1.354   1.481   4.394 -0.8151 -0.0990  0.2924
   90SAPC  H13X 8639   1.344   1.427   4.297  2.1355 -0.9712  0.4394
   90SAPC  H13Y 8640   1.376   1.405   4.472  3.3148 -0.5887 -1.2327
   90SAPC  C314 8641   1.472   1.580   4.396 -0.0357 -0.0661  0.2719
   90SAPC  H14X 8642   1.484   1.633   4.493  0.3534 -3.1242  1.9438
   90SAPC  H14Y 8643   1.446   1.657   4.320 -0.1140 -1.2917 -0.9632
   90SAPC  C315 8644   1.599   1.493   4.368  0.5952  0.0538  0.7619
   90SAPC  H15X 8645   1.573   1.423   4.285  1.7658  0.9743 -0.3979
   90SAPC  H15Y 8646   1.622   1.438   4.461  0.4669  0.6582  1.1554
   90SAPC  C316 8647   1.722   1.572   4.332 -0.3789  0.2181  0.0581
   90SAPC  H16X 8648   1.794   1.492   4.304  0.8852  1.7651 -1.2102
   90SAPC  H16Y 8649   1.768   1.612   4.425  3.0645  0.8624 -1.8319
   90SAPC  C317 8650   1.697   1.677   4.221  0.0235 -0.0811 -0.1565
   90SAPC  H17X 8651   1.637   1.765   4.254  1.3212  0.1573  1.6703
   90SAPC  H17Y 8652   1.638   1.627   4.141  0.2706  0.3745 -0.6221
   90SAPC  C318 8653   1.824   1.737   4.161  0.2057  0.6040 -0.0338
   90SAPC  H18X 8654   1.882   1.664   4.101  1.1078  0.8158  0.5701
   90SAPC  H18Y 8655   1.898   1.776   4.234 -0.9552  1.1187  0.8867
   90SAPC  H18Z 8656   1.795   1.821   4.095  0.5277 -0.0985 -1.0802
   91SAPC     N 8657   4.896   6.822   6.448  0.4304 -0.0497  0.2234
   91SAPC   C12 8658   4.911   6.858   6.303 -0.1310  0.1106 -0.3960
   91SAPC  H12A 8659   4.954   6.957   6.306  0.7342 -0.3166  2.4383
   91SAPC  H12B 8660   4.812   6.870   6.262 -0.4773  0.0731  0.4202
   91SAPC   C13 8661   4.812   6.916   6.522  0.4101 -0.2924  0.1824
   91SAPC  H13A 8662   4.863   7.011   6.530  0.2546  0.0214 -2.2378
   91SAPC  H13B 8663   4.716   6.935   6.476  0.0432  2.6647  2.0049
   91SAPC  H13C 8664   4.800   6.887   6.626  0.0197 -1.3939 -0.1602
   91SAPC   C14 8665   4.842   6.685   6.451  0.4757 -0.3262 -0.0175
   91SAPC  H14A 8666   4.808   6.658   6.550  1.1229 -1.4587 -0.0961
   91SAPC  H14B 8667   4.770   6.656   6.376  1.1122 -0.7731 -0.4520
   91SAPC  H14C 8668   4.916   6.613   6.421  0.3486 -0.3102 -0.3700
   91SAPC   C15 8669   5.028   6.813   6.515 -0.3687 -0.5166  0.7824
   91SAPC  H15A 8670   5.032   6.762   6.611 -1.1830 -0.1475  1.0095
   91SAPC  H15B 8671   5.091   6.768   6.440 -1.3034  1.0400 -0.9509
   91SAPC  H15C 8672   5.059   6.915   6.528 -0.5277 -0.1032 -1.8418
   91SAPC   C11 8673   4.995   6.772   6.209 -0.3446 -0.7245 -0.1650
   91SAPC  H11A 8674   4.976   6.796   6.102  0.3255  0.4524 -0.0235
   91SAPC  H11B 8675   4.973   6.663   6.219 -1.5990 -0.5934 -1.3412
   91SAPC     P 8676   5.233   6.890   6.179  0.5014  0.3348 -0.1481
   91SAPC   O13 8677   5.202   7.022   6.243 -0.3627  0.8771  0.2847
   91SAPC   O14 8678   5.366   6.824   6.190  0.3358 -0.0640 -0.1814
   91SAPC   O12 8679   5.132   6.789   6.239 -0.0059  0.1410 -0.3903
   91SAPC   O11 8680   5.196   6.910   6.026 -0.1260 -0.3171  0.7950
   91SAPC    C1 8681   5.265   6.841   5.920 -0.2069 -0.2011 -0.1634
   91SAPC    HA 8682   5.288   6.735   5.944 -0.2868 -0.1690  0.0508
   91SAPC    HB 8683   5.207   6.850   5.825  2.2636  0.8176 -1.6099
   91SAPC    C2 8684   5.412   6.888   5.897 -0.2511  0.6045  0.3797
   91SAPC    HS 8685   5.453   6.921   5.995  0.3333 -0.7991  0.6112
   91SAPC   O21 8686   5.422   6.992   5.793  0.3786  0.0958 -0.6044
   91SAPC   C21 8687   5.364   7.109   5.811  0.2074 -0.8913 -0.1598
   91SAPC   O22 8688   5.306   7.154   5.908  0.7415 -0.3104 -0.4877
   91SAPC   C22 8689   5.389   7.201   5.692  0.3059 -0.8325 -0.1376
   91SAPC   H2R 8690   5.304   7.177   5.625 -0.1644 -0.2105  0.2357
   91SAPC   H2S 8691   5.393   7.306   5.728  0.8404 -0.8010 -0.2777
   91SAPC    C3 8692   5.511   6.777   5.841 -1.1832 -0.4235  0.3484
   91SAPC    HX 8693   5.516   6.696   5.918  1.1741 -1.0463 -0.4090
   91SAPC    HY 8694   5.614   6.817   5.837  0.2719 -4.1531 -2.5308
   91SAPC   O31 8695   5.460   6.716   5.717 -0.0921  0.1559 -0.1636
   91SAPC   C31 8696   5.517   6.772   5.609  0.6936  0.4563  0.1948
   91SAPC   O32 8697   5.608   6.851   5.603 -0.3982 -0.3162 -1.2653
   91SAPC   C32 8698   5.468   6.706   5.481  0.6906  0.0138 -0.0073
   91SAPC   H2X 8699   5.480   6.597   5.496  4.2788  0.0616 -1.9103
   91SAPC   H2Y 8700   5.537   6.735   5.398  0.4323 -0.6071 -0.4449
   91SAPC   C23 8701   5.512   7.166   5.610 -0.8403 -0.1359 -0.0508
   91SAPC   H3R 8702   5.500   7.060   5.577 -0.2452  0.1825 -1.3307
   91SAPC   H3S 8703   5.600   7.170   5.678 -0.1925  1.1662 -0.9444
   91SAPC   C24 8704   5.531   7.252   5.483  0.4543  0.1315 -1.1905
   91SAPC   H4R 8705   5.530   7.361   5.506  0.1395 -0.4675  1.8342
   91SAPC   H4S 8706   5.448   7.244   5.410 -0.5603 -0.0869 -0.0375
   91SAPC   C25 8707   5.659   7.202   5.420  0.3644  0.3807  0.1831
   91SAPC   H5R 8708   5.728   7.156   5.493 -2.0030  1.2854  3.0834
   91SAPC   C26 8709   5.700   7.216   5.290 -0.0062 -0.6321 -0.2034
   91SAPC   H6R 8710   5.800   7.184   5.259  0.6732  0.3018  0.9656
   91SAPC   C27 8711   5.615   7.280   5.182  0.4566 -0.0217 -0.1481
   91SAPC   H7R 8712   5.644   7.386   5.170 -1.1083  0.8504  3.0827
   91SAPC   H7S 8713   5.511   7.295   5.218  0.5016 -2.1103  0.9774
   91SAPC   C28 8714   5.615   7.210   5.046 -0.6027 -0.3980  0.7707
   91SAPC   H8R 8715   5.620   7.101   5.044 -1.7443 -0.4360 -1.3369
   91SAPC   C29 8716   5.617   7.266   4.919 -0.0345 -0.1428 -0.5954
   91SAPC   H9R 8717   5.592   7.203   4.832 -1.4212 -0.8951  0.3330
   91SAPC  C210 8718   5.612   7.419   4.894  0.4964 -0.1448  0.8673
   91SAPC  H10R 8719   5.533   7.464   4.958 -1.2069 -1.3257 -0.3290
   91SAPC  H10S 8720   5.571   7.438   4.792 -0.0997 -0.9302  0.9544
   91SAPC  C211 8721   5.745   7.485   4.885 -0.9347  0.0064  0.0398
   91SAPC  H11R 8722   5.773   7.527   4.983  0.6307  2.3977 -1.3829
   91SAPC  C212 8723   5.831   7.497   4.779 -0.7018 -0.4334  0.4423
   91SAPC  H12R 8724   5.925   7.552   4.794 -0.8953  0.4921 -1.5775
   91SAPC  C213 8725   5.802   7.453   4.640 -0.5232 -0.8739  1.0201
   91SAPC  H13R 8726   5.777   7.544   4.581 -0.8722 -1.2473  0.5857
   91SAPC  H13S 8727   5.708   7.395   4.632 -1.4382  0.5137  1.4957
   91SAPC  C214 8728   5.931   7.387   4.580  0.2999 -0.0090  0.3220
   91SAPC  H14R 8729   6.024   7.446   4.582  1.1929 -1.4373  0.8251
   91SAPC  C215 8730   5.947   7.264   4.529  0.6138 -0.0253  0.5771
   91SAPC  H15R 8731   6.043   7.224   4.493  1.0331 -0.5533  2.2728
   91SAPC  C216 8732   5.835   7.167   4.513 -0.0218  0.2072  0.0380
   91SAPC  H16R 8733   5.746   7.216   4.470  0.8277  0.4220 -1.5086
   91SAPC  H16S 8734   5.805   7.128   4.612 -3.0843 -2.3668 -1.8171
   91SAPC  C217 8735   5.879   7.042   4.440 -0.1777  0.6680  0.3423
   91SAPC  H17R 8736   5.978   7.003   4.475 -2.0994 -4.2499  0.6796
   91SAPC  H17S 8737   5.896   7.064   4.332 -1.4320  0.9523  0.1942
   91SAPC  C218 8738   5.778   6.934   4.441  0.1747 -0.2869  0.2263
   91SAPC  H18R 8739   5.678   6.962   4.401 -0.8953 -0.5359  2.6288
   91SAPC  H18S 8740   5.764   6.896   4.545  1.5394  0.1980  0.5984
   91SAPC  C219 8741   5.833   6.809   4.354  0.5373  0.1371  0.5009
   91SAPC  H19R 8742   5.936   6.786   4.390 -0.2188 -2.7161  0.9584
   91SAPC  H19S 8743   5.841   6.841   4.248  2.4662  3.8328  1.6895
   91SAPC  C220 8744   5.749   6.682   4.369  0.4216  0.0903  0.7856
   91SAPC  H20R 8745   5.761   6.659   4.477 -2.3108  2.6214  1.6772
   91SAPC  H20S 8746   5.786   6.590   4.317  1.9805  0.9164  0.3911
   91SAPC  H20T 8747   5.642   6.700   4.346  0.4528 -1.1675 -0.4633
   91SAPC   C33 8748   5.328   6.734   5.440 -0.0599 -0.1475 -0.1909
   91SAPC   H3X 8749   5.252   6.709   5.517 -1.5073 -0.2811 -1.6210
   91SAPC   H3Y 8750   5.308   6.662   5.358  2.4776  0.0857 -1.0691
   91SAPC   C34 8751   5.314   6.882   5.392 -0.4783 -0.1598  0.0156
   91SAPC   H4X 8752   5.330   6.946   5.481 -0.1603  0.0149 -0.1681
   91SAPC   H4Y 8753   5.209   6.903   5.361  0.4991  0.4984 -3.0616
   91SAPC   C35 8754   5.395   6.923   5.267 -0.1012  0.5297  0.5599
   91SAPC   H5X 8755   5.504   6.927   5.286  0.1850 -0.2468 -0.8543
   91SAPC   H5Y 8756   5.372   7.030   5.248  0.2544  0.4153 -0.5177
   91SAPC   C36 8757   5.352   6.840   5.139 -0.1520  0.1195  0.2740
   91SAPC   H6X 8758   5.244   6.863   5.130  0.0741  0.8639 -0.6803
   91SAPC   H6Y 8759   5.366   6.730   5.142 -2.3003 -0.2397 -1.3141
   91SAPC   C37 8760   5.416   6.888   5.008 -0.1060 -0.3938 -0.1642
   91SAPC   H7X 8761   5.518   6.845   5.000  0.1024  0.0967 -0.1724
   91SAPC   H7Y 8762   5.432   6.998   5.012 -1.2117 -0.2807  1.5518
   91SAPC   C38 8763   5.342   6.850   4.876  0.0544 -0.3418  0.0588
   91SAPC   H8X 8764   5.247   6.903   4.853 -0.3502 -1.3986 -0.6804
   91SAPC   H8Y 8765   5.312   6.744   4.887  0.7702 -0.3677  2.0456
   91SAPC   C39 8766   5.437   6.865   4.761 -0.6825  0.4073  0.6761
   91SAPC   H9X 8767   5.525   6.801   4.784  1.1423  2.8830  0.7913
   91SAPC   H9Y 8768   5.474   6.970   4.752  1.5958 -0.5979 -2.3010
   91SAPC  C310 8769   5.381   6.815   4.627  0.1978 -0.1921 -0.5690
   91SAPC  H10X 8770   5.361   6.706   4.627  2.9834 -0.7363  0.7993
   91SAPC  H10Y 8771   5.455   6.850   4.552  0.9093  0.0106  0.2276
   91SAPC  C311 8772   5.261   6.890   4.571 -0.1594  0.7450 -0.1784
   91SAPC  H11X 8773   5.268   7.000   4.591 -0.9084  0.9573 -1.0797
   91SAPC  H11Y 8774   5.171   6.856   4.625 -0.1384  2.3665  0.9317
   91SAPC  C312 8775   5.263   6.874   4.420  0.4911 -0.3774 -0.4044
   91SAPC  H12X 8776   5.248   6.767   4.396 -0.0129 -0.2920 -0.4757
   91SAPC  H12Y 8777   5.365   6.900   4.385  1.2969 -0.4410  1.7773
   91SAPC  C313 8778   5.146   6.950   4.352  0.3196  0.2879  0.5517
   91SAPC  H13X 8779   5.173   7.058   4.356  2.6479 -0.3129  2.6264
   91SAPC  H13Y 8780   5.051   6.932   4.406 -0.3786 -0.0651 -0.7864
   91SAPC  C314 8781   5.133   6.930   4.199 -0.0007 -0.0235 -0.3463
   91SAPC  H14X 8782   5.052   6.997   4.165 -0.3558 -0.3165 -0.0806
   91SAPC  H14Y 8783   5.119   6.820   4.188  3.3592 -0.6815  1.2462
   91SAPC  C315 8784   5.265   6.970   4.118 -0.0618  0.2196 -0.3896
   91SAPC  H15X 8785   5.352   6.925   4.170  0.3470  3.5440  1.9757
   91SAPC  H15Y 8786   5.285   7.080   4.117 -3.1184  0.8970  2.7936
   91SAPC  C316 8787   5.250   6.912   3.975  0.2014 -0.2714  0.5534
   91SAPC  H16X 8788   5.166   6.966   3.925 -0.4704  0.0870  2.0254
   91SAPC  H16Y 8789   5.219   6.806   3.979 -1.8820  0.3499  1.4966
   91SAPC  C317 8790   5.372   6.934   3.879  0.3834  0.4653 -0.8257
   91SAPC  H17X 8791   5.462   6.891   3.928 -0.4049  0.7616  0.9614
   91SAPC  H17Y 8792   5.391   7.043   3.871 -0.8781  0.8564  0.9772
   91SAPC  C318 8793   5.342   6.876   3.744  0.2161 -0.5243 -0.3707
   91SAPC  H18X 8794   5.426   6.878   3.672  2.9310  0.3474  2.6847
   91SAPC  H18Y 8795   5.253   6.935   3.711 -0.8065 -1.0013  1.4647
   91SAPC  H18Z 8796   5.305   6.773   3.763 -0.7227  0.6077  4.8461
   92SAPC     N 8797   6.640   5.736   6.518  0.0850  0.4160 -0.0282
   92SAPC   C12 8798   6.623   5.654   6.395  0.0740 -0.0948 -0.4228
   92SAPC  H12A 8799   6.521   5.620   6.402 -0.0178  0.4813  1.2269
   92SAPC  H12B 8800   6.698   5.576   6.400  0.9753  0.7800 -0.0331
   92SAPC   C13 8801   6.539   5.853   6.515 -0.1101  0.5333  0.6277
   92SAPC  H13A 8802   6.571   5.914   6.432  4.6391 -2.3873  0.0983
   92SAPC  H13B 8803   6.443   5.809   6.494  1.0250 -1.0767 -1.4973
   92SAPC  H13C 8804   6.532   5.904   6.610 -0.3654 -2.2119  2.1438
   92SAPC   C14 8805   6.599   5.644   6.626  0.3466 -0.5198  0.0087
   92SAPC  H14A 8806   6.630   5.689   6.719 -0.3040 -1.6902  0.7977
   92SAPC  H14B 8807   6.492   5.627   6.630  0.2563  0.0799  0.2907
   92SAPC  H14C 8808   6.654   5.552   6.616 -0.5313 -0.9416 -1.2033
   92SAPC   C15 8809   6.781   5.792   6.548 -0.1501 -0.1283  0.3207
   92SAPC  H15A 8810   6.848   5.711   6.572 -0.3346  0.1811  1.8958
   92SAPC  H15B 8811   6.828   5.848   6.468 -0.7862  1.5678  1.1116
   92SAPC  H15C 8812   6.781   5.857   6.633 -2.2132 -0.1996  0.3924
   92SAPC   C11 8813   6.642   5.727   6.257  0.2368 -0.0521  0.6887
   92SAPC  H11A 8814   6.553   5.792   6.247 -0.8994 -1.5909  0.6212
   92SAPC  H11B 8815   6.633   5.651   6.176  1.7754  1.4361 -0.9313
   92SAPC     P 8816   6.896   5.710   6.217  0.1296  0.7696 -0.4816
   92SAPC   O13 8817   7.014   5.789   6.248 -0.2079  0.2405 -0.0833
   92SAPC   O14 8818   6.887   5.588   6.295 -0.0737  0.2693 -0.0806
   92SAPC   O12 8819   6.767   5.793   6.233  0.0259  0.1501 -0.2447
   92SAPC   O11 8820   6.901   5.673   6.059 -0.2351 -0.5505  0.3418
   92SAPC    C1 8821   7.018   5.673   5.975 -0.0751  0.0849  0.3240
   92SAPC    HA 8822   7.111   5.646   6.030 -0.1270  0.8968  0.8347
   92SAPC    HB 8823   6.992   5.597   5.898  0.4045  0.2926 -0.0404
   92SAPC    C2 8824   7.046   5.813   5.910 -0.1943  0.1594  0.5954
   92SAPC    HS 8825   7.046   5.896   5.984 -2.4981  0.1403  0.6685
   92SAPC   O21 8826   6.952   5.837   5.803  0.1230  0.4027 -0.1386
   92SAPC   C21 8827   6.853   5.918   5.835  0.7457 -0.3066  0.5726
   92SAPC   O22 8828   6.837   5.971   5.943  0.1402 -0.2333 -0.1942
   92SAPC   C22 8829   6.776   5.947   5.705  0.3085  0.1653  0.7203
   92SAPC   H2R 8830   6.734   5.850   5.670 -0.9929  1.5710 -1.8013
   92SAPC   H2S 8831   6.689   6.012   5.728 -0.3155 -1.0509  1.8917
   92SAPC    C3 8832   7.191   5.812   5.848 -0.0469  0.8133  0.1473
   92SAPC    HX 8833   7.260   5.808   5.935  0.7576  3.8128 -0.2760
   92SAPC    HY 8834   7.203   5.910   5.797  2.7265 -0.8487 -2.5752
   92SAPC   O31 8835   7.205   5.696   5.757  0.4719 -0.1982  0.3838
   92SAPC   C31 8836   7.297   5.703   5.664 -0.5884  0.3547 -1.4552
   92SAPC   O32 8837   7.389   5.785   5.664  0.2352  0.5221 -0.4943
   92SAPC   C32 8838   7.301   5.582   5.578  0.2817  0.2981 -0.5454
   92SAPC   H2X 8839   7.202   5.531   5.586  0.2653  0.7288  2.4756
   92SAPC   H2Y 8840   7.369   5.502   5.612 -0.9179  0.8147  3.3687
   92SAPC   C23 8841   6.872   5.992   5.589  0.0719 -0.2099 -0.0615
   92SAPC   H3R 8842   6.961   5.927   5.580 -0.1371 -0.2606 -1.9128
   92SAPC   H3S 8843   6.912   6.090   5.624 -2.4530  0.2875  1.6044
   92SAPC   C24 8844   6.794   6.007   5.456  0.5406  0.2043 -0.5564
   92SAPC   H4R 8845   6.859   6.031   5.370  0.8674  1.8550  0.1346
   92SAPC   H4S 8846   6.731   6.098   5.464 -1.5949 -1.3203  0.4543
   92SAPC   C25 8847   6.711   5.890   5.408  0.0815 -0.8059  0.1757
   92SAPC   H5R 8848   6.623   5.863   5.469 -0.4864 -0.2388 -0.3704
   92SAPC   C26 8849   6.724   5.817   5.287  0.6643  0.4344 -0.2930
   92SAPC   H6R 8850   6.657   5.732   5.266  0.4760  0.2205  1.0895
   92SAPC   C27 8851   6.835   5.841   5.181 -0.0573  0.2664 -1.1264
   92SAPC   H7R 8852   6.889   5.745   5.164  0.1585 -0.0254  1.0059
   92SAPC   H7S 8853   6.918   5.898   5.228 -2.2630  1.0461  1.9642
   92SAPC   C28 8854   6.805   5.905   5.048  0.2120 -0.1121 -0.0797
   92SAPC   H8R 8855   6.765   6.007   5.060  1.1536  0.1611  0.7560
   92SAPC   C29 8856   6.833   5.855   4.924 -0.7164 -0.0056 -0.6859
   92SAPC   H9R 8857   6.827   5.924   4.839 -1.4158 -0.0107 -0.6475
   92SAPC  C210 8858   6.901   5.724   4.902  1.2647 -0.1779  0.1316
   92SAPC  H10R 8859   6.867   5.638   4.964  0.8754  0.8669  1.4000
   92SAPC  H10S 8860   7.010   5.744   4.910  0.9789  1.0196  1.2056
   92SAPC  C211 8861   6.862   5.679   4.766  0.3668  0.2073 -0.1175
   92SAPC  H11R 8862   6.762   5.634   4.761 -0.5649  2.0171  1.5730
   92SAPC  C212 8863   6.920   5.700   4.646  0.0542  0.0424  0.3709
   92SAPC  H12R 8864   6.888   5.642   4.558 -1.1306  0.2539  0.6570
   92SAPC  C213 8865   7.044   5.782   4.617  0.1989  0.0691 -0.7721
   92SAPC  H13R 8866   7.044   5.880   4.670 -1.2077 -0.0625 -0.5250
   92SAPC  H13S 8867   7.058   5.817   4.512 -1.3454  2.2384 -0.2816
   92SAPC  C214 8868   7.169   5.708   4.647 -0.4050  0.1748  0.4083
   92SAPC  H14R 8869   7.206   5.709   4.751 -1.1255 -2.1262  0.7068
   92SAPC  C215 8870   7.233   5.615   4.566 -0.2575 -0.1069 -0.1272
   92SAPC  H15R 8871   7.315   5.550   4.600  0.6187  0.7836 -0.4988
   92SAPC  C216 8872   7.182   5.581   4.431 -0.4015  0.7721  0.3985
   92SAPC  H16R 8873   7.116   5.660   4.390  0.0337  0.0078 -1.8364
   92SAPC  H16S 8874   7.122   5.489   4.448  1.6405 -0.7378 -0.4121
   92SAPC  C217 8875   7.298   5.564   4.328 -0.5394 -0.1783  0.6698
   92SAPC  H17R 8876   7.369   5.484   4.357 -0.4878 -0.0086  1.0130
   92SAPC  H17S 8877   7.364   5.653   4.328 -1.8749  0.8677  4.1611
   92SAPC  C218 8878   7.238   5.544   4.184 -0.2751  1.0348 -0.1110
   92SAPC  H18R 8879   7.152   5.609   4.160 -0.8112  0.6843  0.8394
   92SAPC  H18S 8880   7.215   5.437   4.165 -2.2186  1.1821  1.3215
   92SAPC  C219 8881   7.336   5.571   4.076 -1.0135 -0.4380  0.3362
   92SAPC  H19R 8882   7.394   5.664   4.089 -0.9804  0.0046 -2.7299
   92SAPC  H19S 8883   7.270   5.581   3.988 -0.3920 -0.2218 -0.1059
   92SAPC  C220 8884   7.438   5.474   4.051  0.0907 -0.0919  0.5093
   92SAPC  H20R 8885   7.398   5.371   4.049 -1.3086  0.4544 -0.5812
   92SAPC  H20S 8886   7.500   5.468   4.143 -0.1292  0.4404  0.6933
   92SAPC  H20T 8887   7.498   5.491   3.958 -0.9500  1.8186  0.1602
   92SAPC   C33 8888   7.316   5.605   5.421  0.0339 -0.2624 -0.2312
   92SAPC   H3X 8889   7.358   5.514   5.371  0.0713  0.2925 -1.2271
   92SAPC   H3Y 8890   7.386   5.689   5.403 -0.4724  0.2556  0.1955
   92SAPC   C34 8891   7.185   5.639   5.346  0.2696  0.2351 -0.1885
   92SAPC   H4X 8892   7.135   5.719   5.405 -1.3574 -1.2775  0.5167
   92SAPC   H4Y 8893   7.113   5.556   5.359  1.6039 -0.9542 -0.3176
   92SAPC   C35 8894   7.189   5.665   5.197  0.2658  0.3240 -0.0687
   92SAPC   H5X 8895   7.085   5.673   5.159 -1.0977 -1.5520  3.0457
   92SAPC   H5Y 8896   7.237   5.580   5.144  2.7266  2.7520 -1.8884
   92SAPC   C36 8897   7.255   5.802   5.161  0.3489 -0.8133  0.5579
   92SAPC   H6X 8898   7.351   5.823   5.214  0.6587 -2.1618  0.5411
   92SAPC   H6Y 8899   7.177   5.878   5.185  1.7125  0.7354  0.1775
   92SAPC   C37 8900   7.271   5.808   5.007  0.4647  0.7517  0.8520
   92SAPC   H7X 8901   7.169   5.830   4.967 -0.3512  0.6397  2.7796
   92SAPC   H7Y 8902   7.312   5.712   4.970  1.6999  1.7980 -0.5538
   92SAPC   C38 8903   7.358   5.932   4.964 -0.6773  0.4855  1.3379
   92SAPC   H8X 8904   7.464   5.920   4.994  0.0456 -0.3391 -1.4793
   92SAPC   H8Y 8905   7.320   6.014   5.029 -0.7695  0.7836  0.9084
   92SAPC   C39 8906   7.337   5.979   4.819  0.6192 -0.4282 -0.2460
   92SAPC   H9X 8907   7.229   5.995   4.795  0.2469  1.1400  2.3422
   92SAPC   H9Y 8908   7.368   5.891   4.758 -1.3477 -1.3964  0.0823
   92SAPC  C310 8909   7.405   6.109   4.785  0.5261  0.3089 -1.2077
   92SAPC  H10X 8910   7.360   6.178   4.859  3.9036  0.3731  0.8642
   92SAPC  H10Y 8911   7.376   6.139   4.681  0.2058  0.0817 -1.1863
   92SAPC  C311 8912   7.559   6.112   4.795  0.4082 -0.7095  0.2015
   92SAPC  H11X 8913   7.603   6.020   4.753 -0.0959 -1.9066  2.2192
   92SAPC  H11Y 8914   7.585   6.105   4.903 -1.4137 -1.7944  0.5886
   92SAPC  C312 8915   7.605   6.244   4.731  0.5638  0.7840  0.3065
   92SAPC  H12X 8916   7.559   6.317   4.800 -1.3671  0.9086 -1.0618
   92SAPC  H12Y 8917   7.565   6.230   4.628 -1.9515 -2.1927  1.5972
   92SAPC  C313 8918   7.761   6.253   4.717 -0.2623  0.1607  0.1164
   92SAPC  H13X 8919   7.792   6.160   4.664 -0.6559  0.7574 -1.1974
   92SAPC  H13Y 8920   7.802   6.255   4.820  0.7910 -1.8247 -0.2422
   92SAPC  C314 8921   7.802   6.380   4.633  0.4534  1.2592  0.3393
   92SAPC  H14X 8922   7.741   6.395   4.541 -1.3307 -0.7580  1.1627
   92SAPC  H14Y 8923   7.907   6.361   4.604  0.5506 -0.1621  1.6052
   92SAPC  C315 8924   7.796   6.509   4.718 -0.4035  0.3587  0.2452
   92SAPC  H15X 8925   7.855   6.498   4.811  0.9758  1.4312 -0.4854
   92SAPC  H15Y 8926   7.690   6.521   4.749 -0.8874  0.4431 -1.3850
   92SAPC  C316 8927   7.860   6.638   4.649 -0.2590  0.4264 -0.0142
   92SAPC  H16X 8928   7.811   6.674   4.556  0.6959 -2.5342 -1.7268
   92SAPC  H16Y 8929   7.969   6.630   4.629  0.1485  0.9379  1.9009
   92SAPC  C317 8930   7.840   6.768   4.734  0.1334 -0.2757 -0.6686
   92SAPC  H17X 8931   7.733   6.796   4.726  0.3511  1.2884  1.4562
   92SAPC  H17Y 8932   7.882   6.861   4.691  0.6246 -0.1245  0.1331
   92SAPC  C318 8933   7.856   6.756   4.882  0.4147  0.1858 -0.4463
   92SAPC  H18X 8934   7.796   6.672   4.923  1.6790  0.7977  2.8502
   92SAPC  H18Y 8935   7.827   6.845   4.942  0.8281 -0.4214  0.6862
   92SAPC  H18Z 8936   7.960   6.726   4.908  0.2419 -1.7911 -1.9405
   93SAPC     N 8937   6.843   0.156   6.557  0.0271  0.3576  0.1321
   93SAPC   C12 8938   6.698   0.107   6.567 -0.3113  0.3853  0.9757
   93SAPC  H12A 8939   6.688   0.089   6.673  0.4906  1.2756  1.2123
   93SAPC  H12B 8940   6.678   0.014   6.516 -2.8271  1.7133 -0.5471
   93SAPC   C13 8941   6.850   0.293   6.607  0.7931 -0.9053  0.2719
   93SAPC  H13A 8942   6.774   0.350   6.556 -0.0380 -2.8367 -0.7306
   93SAPC  H13B 8943   6.835   0.303   6.713 -2.2541 -0.5371 -0.1648
   93SAPC  H13C 8944   6.950   0.334   6.594  1.2968 -1.6315  1.7698
   93SAPC   C14 8945   6.940   0.080   6.647 -0.3179  0.3699  0.5471
   93SAPC  H14A 8946   7.036   0.130   6.656  0.4734 -1.3451  1.7243
   93SAPC  H14B 8947   6.901   0.075   6.747  1.5775 -0.8618  1.2536
   93SAPC  H14C 8948   6.954  -0.017   6.602 -0.5912  0.6624 -0.1850
   93SAPC   C15 8949   6.883   0.163   6.414  0.2951 -0.3325  0.5783
   93SAPC  H15A 8950   6.980   0.205   6.393  0.5912 -2.4858 -2.6520
   93SAPC  H15B 8951   6.874   0.069   6.361  3.1405 -0.6243  0.5220
   93SAPC  H15C 8952   6.823   0.237   6.365  0.5144 -0.1684  0.5571
   93SAPC   C11 8953   6.580   0.202   6.526  0.8035  0.2339  0.6604
   93SAPC  H11A 8954   6.606   0.259   6.434  0.5921  0.9342  1.0245
   93SAPC  H11B 8955   6.577   0.273   6.612 -0.9508 -1.1280  1.7531
   93SAPC     P 8956   6.424   0.057   6.369  0.4157 -0.7766 -0.0611
   93SAPC   O13 8957   6.292  -0.008   6.392  0.7676  0.1747 -0.3192
   93SAPC   O14 8958   6.429   0.146   6.251  0.0196 -1.1060 -0.4802
   93SAPC   O12 8959   6.454   0.138   6.512 -0.2695 -0.0620 -0.2673
   93SAPC   O11 8960   6.542  -0.044   6.367 -0.6361  0.2331 -0.0754
   93SAPC    C1 8961   6.540  -0.186   6.410 -0.6860  0.9345  0.8825
   93SAPC    HA 8962   6.570  -0.191   6.517  1.6778  2.1781  0.3293
   93SAPC    HB 8963   6.434  -0.216   6.400 -0.2926 -0.4093  0.7483
   93SAPC    C2 8964   6.616  -0.275   6.312 -0.2228  0.3915 -0.6174
   93SAPC    HS 8965   6.575  -0.373   6.344 -0.5657  0.8012  0.2121
   93SAPC   O21 8966   6.758  -0.272   6.342 -0.4051  0.4382 -0.0027
   93SAPC   C21 8967   6.814  -0.391   6.313 -0.2297 -0.2944  0.4171
   93SAPC   O22 8968   6.747  -0.494   6.296  0.1679  0.2764  0.3926
   93SAPC   C22 8969   6.966  -0.394   6.300 -0.2713  0.5754  0.2908
   93SAPC   H2R 8970   7.007  -0.422   6.400 -1.3757  1.5951  1.0552
   93SAPC   H2S 8971   7.004  -0.474   6.233 -1.6106  0.4921 -0.3724
   93SAPC    C3 8972   6.588  -0.259   6.161  0.6607 -0.1964  0.6544
   93SAPC    HX 8973   6.478  -0.244   6.159  0.8166  0.9976  0.5669
   93SAPC    HY 8974   6.608  -0.352   6.104  0.7979 -0.3643  0.9729
   93SAPC   O31 8975   6.656  -0.149   6.091  0.3589  0.8289  0.0543
   93SAPC   C31 8976   6.604  -0.117   5.978  0.4036  0.0896  0.3073
   93SAPC   O32 8977   6.507  -0.172   5.922 -0.0963 -0.7867 -0.1641
   93SAPC   C32 8978   6.686  -0.008   5.915  0.4359 -0.5261  0.2386
   93SAPC   H2X 8979   6.784  -0.056   5.892  0.4029 -0.9524  0.9734
   93SAPC   H2Y 8980   6.714   0.066   5.992 -2.9698  1.0641  0.0478
   93SAPC   C23 8981   7.029  -0.255   6.256 -0.0405  0.3032  0.0636
   93SAPC   H3R 8982   7.140  -0.256   6.262 -0.0347 -0.8930 -0.0494
   93SAPC   H3S 8983   6.979  -0.174   6.314  1.5566  1.7205 -0.5157
   93SAPC   C24 8984   6.988  -0.241   6.106  0.4726 -0.2362  0.3299
   93SAPC   H4R 8985   6.878  -0.241   6.093  0.3030 -1.5271  1.6112
   93SAPC   H4S 8986   7.029  -0.332   6.057  0.0497 -0.2324 -0.0275
   93SAPC   C25 8987   7.055  -0.118   6.046  0.5628 -0.2603  0.3276
   93SAPC   H5R 8988   7.045  -0.028   6.109 -1.7224 -1.3700  1.6303
   93SAPC   C26 8989   7.109  -0.102   5.920 -0.1788  0.2432  0.2694
   93SAPC   H6R 8990   7.154  -0.004   5.899 -0.6388  0.4764  0.3744
   93SAPC   C27 8991   7.118  -0.211   5.811 -0.0787 -0.1390 -0.9311
   93SAPC   H7R 8992   7.086  -0.310   5.852  0.4514 -0.2723 -0.8334
   93SAPC   H7S 8993   7.228  -0.214   5.794  0.0596  1.8438 -0.4460
   93SAPC   C28 8994   7.049  -0.186   5.673  0.0452  0.6488  0.1195
   93SAPC   H8R 8995   6.953  -0.133   5.685 -0.1602  0.3723 -0.2982
   93SAPC   C29 8996   7.100  -0.204   5.552 -0.1445 -0.3031  0.1480
   93SAPC   H9R 8997   7.040  -0.175   5.465  0.5102  3.2746  0.8395
   93SAPC  C210 8998   7.237  -0.254   5.524 -1.0311 -0.5530  0.0364
   93SAPC  H10R 8999   7.237  -0.358   5.564 -1.8937  0.4470  2.7257
   93SAPC  H10S 9000   7.313  -0.192   5.576 -0.2830 -1.6938  0.3112
   93SAPC  C211 9001   7.257  -0.263   5.371  0.6891  0.2909 -0.5028
   93SAPC  H11R 9002   7.302  -0.177   5.319  3.3961 -1.1149 -0.5737
   93SAPC  C212 9003   7.233  -0.369   5.289 -0.1810  0.7920 -0.1893
   93SAPC  H12R 9004   7.244  -0.344   5.183 -1.1880  2.2525  0.0369
   93SAPC  C213 9005   7.178  -0.506   5.327 -0.1089  0.4410 -0.4648
   93SAPC  H13R 9006   7.155  -0.515   5.436  1.7315  0.2700 -0.0797
   93SAPC  H13S 9007   7.257  -0.582   5.317 -0.3213 -0.1869  2.1530
   93SAPC  C214 9008   7.053  -0.539   5.245 -0.4750  0.4897 -0.9864
   93SAPC  H14R 9009   7.078  -0.524   5.139  0.2252 -1.1238 -1.0718
   93SAPC  C215 9010   6.922  -0.562   5.280 -0.4058  0.3805 -0.2516
   93SAPC  H15R 9011   6.847  -0.586   5.203  0.2870  0.6298 -1.0210
   93SAPC  C216 9012   6.877  -0.570   5.425 -0.2290  0.6278  0.0242
   93SAPC  H16R 9013   6.960  -0.560   5.498 -0.3287  0.1004  0.2116
   93SAPC  H16S 9014   6.837  -0.667   5.461  2.4172  0.4509  2.6967
   93SAPC  C217 9015   6.777  -0.460   5.453  0.0624 -0.2773 -0.1072
   93SAPC  H17R 9016   6.678  -0.484   5.408  0.0268 -0.0274 -0.1639
   93SAPC  H17S 9017   6.804  -0.363   5.406 -2.1610  0.1483 -0.5678
   93SAPC  C218 9018   6.757  -0.429   5.605  0.6161  0.5061  0.5258
   93SAPC  H18R 9019   6.686  -0.345   5.620 -0.9787 -0.8875  0.9414
   93SAPC  H18S 9020   6.852  -0.384   5.642  2.6511 -0.1935 -3.4728
   93SAPC  C219 9021   6.710  -0.554   5.687 -0.5723  0.3679  0.4234
   93SAPC  H19R 9022   6.715  -0.520   5.793  2.5876 -1.0773  0.7956
   93SAPC  H19S 9023   6.781  -0.639   5.682 -1.3344 -0.1704 -1.5813
   93SAPC  C220 9024   6.572  -0.619   5.652 -0.0039  0.5963  0.0070
   93SAPC  H20R 9025   6.491  -0.542   5.654  0.5273  1.2066 -1.4303
   93SAPC  H20S 9026   6.553  -0.711   5.711 -1.3755 -0.0360 -1.3955
   93SAPC  H20T 9027   6.571  -0.663   5.550 -1.0622  0.2750  0.1470
   93SAPC   C33 9028   6.633   0.072   5.791  0.1880 -0.3849 -0.5128
   93SAPC   H3X 9029   6.690   0.167   5.781 -0.6068  0.0168 -1.3220
   93SAPC   H3Y 9030   6.531   0.105   5.822  2.1855  2.5533  3.5033
   93SAPC   C34 9031   6.639  -0.019   5.662 -0.1267  0.4630  0.5997
   93SAPC   H4X 9032   6.572  -0.104   5.687 -2.6218  1.5143 -2.1781
   93SAPC   H4Y 9033   6.736  -0.071   5.672  0.4355  1.1919 -0.9668
   93SAPC   C35 9034   6.609   0.043   5.526 -0.6896 -0.8296  0.9227
   93SAPC   H5X 9035   6.521   0.109   5.539  0.2487 -0.0724  3.8405
   93SAPC   H5Y 9036   6.587  -0.047   5.465  0.2720 -1.9423  2.1823
   93SAPC   C36 9037   6.730   0.116   5.462  0.2715  0.4261 -0.1135
   93SAPC   H6X 9038   6.807   0.037   5.475  0.0831  0.0243 -1.4273
   93SAPC   H6Y 9039   6.750   0.204   5.526 -0.9703  2.0775 -1.9353
   93SAPC   C37 9040   6.699   0.153   5.317 -0.0266 -0.7200  0.0329
   93SAPC   H7X 9041   6.610   0.219   5.313  0.7855  0.4451  0.9171
   93SAPC   H7Y 9042   6.670   0.063   5.258  1.2287 -0.9475 -0.2696
   93SAPC   C38 9043   6.820   0.226   5.250 -0.0225 -0.2117  0.0809
   93SAPC   H8X 9044   6.891   0.152   5.208 -0.0794  0.3710 -1.0699
   93SAPC   H8Y 9045   6.869   0.300   5.317 -2.0805  0.1648  1.2101
   93SAPC   C39 9046   6.777   0.317   5.133  0.6032 -0.1319  0.3741
   93SAPC   H9X 9047   6.867   0.369   5.094  0.2925 -0.6061 -1.0271
   93SAPC   H9Y 9048   6.712   0.401   5.167  1.0677  0.7428 -0.8707
   93SAPC  C310 9049   6.715   0.237   5.019  0.0975  0.2233 -0.3027
   93SAPC  H10X 9050   6.661   0.310   4.954 -0.1182  0.6823  0.3779
   93SAPC  H10Y 9051   6.641   0.163   5.056 -0.4827 -0.2039 -2.2730
   93SAPC  C311 9052   6.825   0.155   4.937 -0.4598 -1.0115  0.0178
   93SAPC  H11X 9053   6.873   0.081   5.005 -0.8146 -2.9099 -1.7787
   93SAPC  H11Y 9054   6.898   0.236   4.916 -1.3595  0.6620  3.0778
   93SAPC  C312 9055   6.777   0.092   4.803 -1.2809  0.2357 -0.0590
   93SAPC  H12X 9056   6.705   0.157   4.749 -0.7693  0.0065 -1.0330
   93SAPC  H12Y 9057   6.713   0.007   4.836 -0.5411  0.1438  1.1601
   93SAPC  C313 9058   6.906   0.041   4.732  0.7125  0.1020 -0.0283
   93SAPC  H13X 9059   6.958  -0.018   4.810 -0.6891  0.0530  0.8896
   93SAPC  H13Y 9060   6.977   0.119   4.698  1.7726 -1.3868 -1.2775
   93SAPC  C314 9061   6.881  -0.046   4.610 -0.3692 -0.5962  0.3643
   93SAPC  H14X 9062   6.817  -0.130   4.645  0.5336 -2.5175 -2.4270
   93SAPC  H14Y 9063   6.972  -0.097   4.570 -1.4483 -1.2484 -1.3390
   93SAPC  C315 9064   6.813   0.025   4.495  0.4616  0.6852 -0.2868
   93SAPC  H15X 9065   6.725   0.080   4.535 -0.9156 -0.4462 -1.6733
   93SAPC  H15Y 9066   6.788  -0.064   4.433 -0.9593  0.6962  0.2471
   93SAPC  C316 9067   6.904   0.125   4.413  0.4953 -0.1951 -0.2059
   93SAPC  H16X 9068   6.991   0.074   4.367 -0.5016 -0.4791 -1.7986
   93SAPC  H16Y 9069   6.937   0.189   4.498 -2.5502 -0.8722  1.5616
   93SAPC  C317 9070   6.835   0.217   4.313 -0.0384 -0.3931  0.8070
   93SAPC  H17X 9071   6.755   0.166   4.254 -1.3816  1.0690  1.3197
   93SAPC  H17Y 9072   6.910   0.255   4.241 -0.8779  1.2490  0.7838
   93SAPC  C318 9073   6.761   0.338   4.366 -0.0972  0.5417 -0.5830
   93SAPC  H18X 9074   6.724   0.408   4.288  0.3353  0.3534 -0.9553
   93SAPC  H18Y 9075   6.829   0.407   4.420  0.2242  1.1340 -1.7301
   93SAPC  H18Z 9076   6.683   0.299   4.435 -2.3376  2.4609 -1.9544
   94SAPC     N 9077   0.069   7.085   6.546  0.4615  0.0898  0.3831
   94SAPC   C12 9078  -0.036   7.172   6.496  0.1682 -0.4000  0.2503
   94SAPC  H12A 9079  -0.085   7.236   6.567 -0.6173  0.0983 -0.7172
   94SAPC  H12B 9080  -0.117   7.112   6.457 -1.2665  1.5673  0.0662
   94SAPC   C13 9081   0.024   7.016   6.674  0.5301  0.1882 -0.1035
   94SAPC  H13A 9082  -0.062   6.952   6.662 -1.5726  2.4788  2.1916
   94SAPC  H13B 9083   0.101   6.949   6.710 -3.3356 -2.7411  3.1783
   94SAPC  H13C 9084  -0.001   7.084   6.754  4.0138  0.8483  0.4777
   94SAPC   C14 9085   0.090   6.978   6.442  0.4806 -0.7467 -0.4797
   94SAPC  H14A 9086   0.015   6.900   6.441 -0.2127 -0.0931  0.2272
   94SAPC  H14B 9087   0.073   7.032   6.350  2.6627  1.8040  0.5494
   94SAPC  H14C 9088   0.189   6.936   6.451  0.7445  0.0368  0.2391
   94SAPC   C15 9089   0.192   7.170   6.577  0.5455  0.0244 -0.1346
   94SAPC  H15A 9090   0.249   7.173   6.485 -1.0087  0.1572 -1.1099
   94SAPC  H15B 9091   0.155   7.269   6.599  4.6311  2.1986 -2.3963
   94SAPC  H15C 9092   0.260   7.127   6.648  2.0189 -1.5271 -2.4050
   94SAPC   C11 9093   0.010   7.255   6.373  0.7165  0.1741 -0.8053
   94SAPC  H11A 9094   0.078   7.334   6.411 -0.3063  1.1767 -1.0527
   94SAPC  H11B 9095  -0.081   7.310   6.342  1.3358  1.5663 -0.1738
   94SAPC     P 9096   0.157   7.259   6.154  0.2677  0.4223 -0.1128
   94SAPC   O13 9097   0.078   7.327   6.052  0.0230 -0.4077  0.1397
   94SAPC   O14 9098   0.256   7.338   6.226  0.0403  0.4339  0.2451
   94SAPC   O12 9099   0.055   7.181   6.254 -0.3913 -0.7227  0.0846
   94SAPC   O11 9100   0.228   7.138   6.085 -0.1040  0.6394  0.0382
   94SAPC    C1 9101   0.164   7.015   6.060  0.0672  0.0157 -0.1781
   94SAPC    HA 9102   0.107   6.976   6.148  0.6061  0.4485  0.3609
   94SAPC    HB 9103   0.079   7.029   5.989 -0.7233 -2.1981  0.2634
   94SAPC    C2 9104   0.253   6.907   6.003  0.0475 -0.5687  0.1631
   94SAPC    HS 9105   0.336   6.900   6.077 -0.9211  2.0704  1.5483
   94SAPC   O21 9106   0.293   6.954   5.870  0.4250 -0.1390 -0.7920
   94SAPC   C21 9107   0.406   7.025   5.851  0.3121 -0.4319  0.2483
   94SAPC   O22 9108   0.483   7.058   5.936 -0.4548 -0.1993 -0.0822
   94SAPC   C22 9109   0.408   7.052   5.699  0.4312 -0.6578  0.9002
   94SAPC   H2R 9110   0.479   6.975   5.663  1.8033  1.0440 -0.1143
   94SAPC   H2S 9111   0.313   7.046   5.641  1.7110  3.5917 -1.8578
   94SAPC    C3 9112   0.176   6.771   5.982 -0.1730 -0.0698  0.6797
   94SAPC    HX 9113   0.168   6.713   6.076  1.2642 -0.5874  0.4928
   94SAPC    HY 9114   0.250   6.713   5.921 -0.2446  0.5580 -0.0164
   94SAPC   O31 9115   0.046   6.788   5.911 -0.2977  0.1349  0.1631
   94SAPC   C31 9116  -0.012   6.674   5.880 -0.1832  1.3044  0.2209
   94SAPC   O32 9117   0.035   6.566   5.911  0.1855  0.4542  0.0935
   94SAPC   C32 9118  -0.146   6.696   5.811 -1.4653 -0.0654 -0.0914
   94SAPC   H2X 9119  -0.132   6.769   5.729  0.3549 -1.8603 -1.4501
   94SAPC   H2Y 9120  -0.221   6.736   5.882 -0.6275 -0.6014  1.1260
   94SAPC   C23 9121   0.460   7.192   5.680  0.1196 -0.1480  0.6312
   94SAPC   H3R 9122   0.565   7.200   5.716 -0.2225 -3.1853  2.5151
   94SAPC   H3S 9123   0.404   7.268   5.739  1.9664  1.6550  0.0884
   94SAPC   C24 9124   0.481   7.223   5.533  0.1585 -1.1620  0.9856
   94SAPC   H4R 9125   0.487   7.130   5.472 -2.0053 -0.8557  0.2624
   94SAPC   H4S 9126   0.570   7.286   5.512  0.0479 -1.2569  0.2124
   94SAPC   C25 9127   0.364   7.294   5.475  0.5172 -0.2665 -0.5103
   94SAPC   H5R 9128   0.295   7.336   5.549 -2.1462  0.5769 -3.3520
   94SAPC   C26 9129   0.335   7.322   5.342 -0.0408  0.5645 -0.9279
   94SAPC   H6R 9130   0.253   7.392   5.320 -1.3666 -1.0562 -1.2552
   94SAPC   C27 9131   0.402   7.264   5.224  0.4524 -0.0423  0.3736
   94SAPC   H7R 9132   0.509   7.267   5.251  0.7423  1.7616 -0.8929
   94SAPC   H7S 9133   0.387   7.335   5.140 -0.9893  2.3986  2.6036
   94SAPC   C28 9134   0.380   7.119   5.191  0.7696 -0.3102 -0.0762
   94SAPC   H8R 9135   0.409   7.066   5.282 -1.6535 -0.1533  0.8154
   94SAPC   C29 9136   0.364   7.065   5.065  0.2636 -0.6189  0.5828
   94SAPC   H9R 9137   0.342   6.960   5.042  0.0799 -0.2903 -0.7439
   94SAPC  C210 9138   0.363   7.142   4.933  0.7055 -0.0390  0.2581
   94SAPC  H10R 9139   0.464   7.177   4.903  0.6188 -0.6107 -0.7168
   94SAPC  H10S 9140   0.301   7.233   4.951 -0.5174 -1.2629  2.5414
   94SAPC  C211 9141   0.317   7.055   4.817 -0.4006 -0.6594 -0.6002
   94SAPC  H11R 9142   0.402   6.997   4.776  1.4359  2.3302 -1.1896
   94SAPC  C212 9143   0.192   7.031   4.772 -0.1343  0.1525 -0.1228
   94SAPC  H12R 9144   0.179   7.004   4.667  2.4495 -0.0132 -0.4289
   94SAPC  C213 9145   0.065   7.092   4.834 -0.6253  0.2969  0.5935
   94SAPC  H13R 9146   0.087   7.198   4.861  0.9508 -0.1681  1.2175
   94SAPC  H13S 9147   0.037   7.040   4.928 -1.6150  1.0609  0.7190
   94SAPC  C214 9148  -0.050   7.081   4.738  0.8819 -0.2337 -0.2620
   94SAPC  H14R 9149  -0.070   7.164   4.669 -2.6080  0.2950  1.2409
   94SAPC  C215 9150  -0.157   6.995   4.746  0.2348  0.7061 -0.5043
   94SAPC  H15R 9151  -0.246   7.026   4.690  0.3221  0.4456 -0.7856
   94SAPC  C216 9152  -0.184   6.891   4.848 -0.4680 -0.3400  0.5027
   94SAPC  H16R 9153  -0.114   6.896   4.934  0.1778 -0.1702 -0.0381
   94SAPC  H16S 9154  -0.172   6.791   4.800 -0.9447  0.2315 -0.8144
   94SAPC  C217 9155  -0.327   6.905   4.901  0.1504 -0.5762  0.5475
   94SAPC  H17R 9156  -0.335   6.825   4.978 -1.6288 -0.6794  0.2882
   94SAPC  H17S 9157  -0.400   6.887   4.819  0.1483 -0.3545  0.4992
   94SAPC  C218 9158  -0.356   7.033   4.977  0.0122 -0.6538  0.1623
   94SAPC  H18R 9159  -0.357   7.107   4.894  0.1335 -1.0040 -0.1504
   94SAPC  H18S 9160  -0.273   7.057   5.047  0.5698  1.5147 -1.1799
   94SAPC  C219 9161  -0.495   7.030   5.042  0.3145 -0.1715  0.4172
   94SAPC  H19R 9162  -0.508   6.932   5.093  0.7836  0.0598  0.9844
   94SAPC  H19S 9163  -0.581   7.046   4.974  0.2677  0.0149  0.5194
   94SAPC  C220 9164  -0.509   7.131   5.162 -0.0667 -0.1308  0.4744
   94SAPC  H20R 9165  -0.440   7.106   5.245 -0.1857 -1.8201  0.0762
   94SAPC  H20S 9166  -0.616   7.120   5.190  0.2770 -1.2727  1.3771
   94SAPC  H20T 9167  -0.490   7.237   5.133  2.0736 -0.3546  1.0239
   94SAPC   C33 9168  -0.188   6.565   5.748  0.6558 -1.1172  0.7659
   94SAPC   H3X 9169  -0.298   6.562   5.733  0.5179  0.8660  1.3022
   94SAPC   H3Y 9170  -0.164   6.478   5.813  0.1192 -2.2625 -0.5422
   94SAPC   C34 9171  -0.131   6.539   5.611  0.3392  0.2682 -0.4702
   94SAPC   H4X 9172  -0.029   6.584   5.605 -1.8330  5.7697  0.5793
   94SAPC   H4Y 9173  -0.178   6.609   5.539 -1.2993  0.5419  0.8474
   94SAPC   C35 9174  -0.152   6.393   5.583  0.0864  0.1731  0.2530
   94SAPC   H5X 9175  -0.260   6.376   5.602  0.3692 -0.5171  1.2941
   94SAPC   H5Y 9176  -0.100   6.334   5.662  2.6613  1.9777 -0.0353
   94SAPC   C36 9177  -0.104   6.334   5.447 -1.2606  0.2117 -0.5426
   94SAPC   H6X 9178  -0.139   6.229   5.450 -4.0170  1.1241  0.8120
   94SAPC   H6Y 9179   0.007   6.337   5.445 -1.2858  1.3231 -3.6539
   94SAPC   C37 9180  -0.167   6.403   5.323 -0.1510 -0.7809  0.1548
   94SAPC   H7X 9181  -0.146   6.512   5.320 -1.3003 -0.5477  0.1704
   94SAPC   H7Y 9182  -0.278   6.398   5.330 -0.0919 -0.2946  1.7133
   94SAPC   C38 9183  -0.116   6.338   5.189 -0.0554 -0.2711  0.3350
   94SAPC   H8X 9184  -0.006   6.318   5.189  0.6806  3.3532  0.5100
   94SAPC   H8Y 9185  -0.136   6.416   5.112 -2.3208 -0.6240  0.5503
   94SAPC   C39 9186  -0.187   6.208   5.145 -0.4095  0.1500  0.8850
   94SAPC   H9X 9187  -0.167   6.129   5.221  0.6761  0.2068  0.6674
   94SAPC   H9Y 9188  -0.143   6.170   5.051 -0.8822  2.1566 -0.1692
   94SAPC  C310 9189  -0.338   6.238   5.109  0.9417  0.2329  0.0441
   94SAPC  H10X 9190  -0.393   6.283   5.194  1.4727  1.7417 -0.3805
   94SAPC  H10Y 9191  -0.387   6.144   5.077  1.5048  0.1830 -0.6960
   94SAPC  C311 9192  -0.360   6.337   4.993  0.4244 -0.2088 -0.2199
   94SAPC  H11X 9193  -0.304   6.433   5.004 -0.2072  0.1280  0.0985
   94SAPC  H11Y 9194  -0.465   6.364   4.971  0.0272 -0.4607  1.3217
   94SAPC  C312 9195  -0.293   6.287   4.855 -0.3239  0.1719 -0.0237
   94SAPC  H12X 9196  -0.274   6.178   4.862  3.2589  0.7306 -0.1128
   94SAPC  H12Y 9197  -0.193   6.335   4.854 -0.0553 -0.4053 -1.4288
   94SAPC  C313 9198  -0.383   6.321   4.735  0.1898  0.0610  0.3471
   94SAPC  H13X 9199  -0.474   6.259   4.753  1.1435 -0.9538  1.7528
   94SAPC  H13Y 9200  -0.334   6.285   4.642 -1.4990  1.4019 -1.0879
   94SAPC  C314 9201  -0.419   6.468   4.708 -0.7548  0.2856  0.3996
   94SAPC  H14X 9202  -0.331   6.530   4.738 -0.5225  0.4053 -0.5018
   94SAPC  H14Y 9203  -0.501   6.493   4.778 -0.2111  2.2226  0.3905
   94SAPC  C315 9204  -0.466   6.494   4.568 -0.4393 -0.2579  0.0947
   94SAPC  H15X 9205  -0.576   6.486   4.553 -0.0775 -0.3865 -2.9210
   94SAPC  H15Y 9206  -0.421   6.413   4.506  0.0690  1.1298 -1.3777
   94SAPC  C316 9207  -0.420   6.623   4.497  0.7457  0.1251  0.0260
   94SAPC  H16X 9208  -0.450   6.604   4.391 -1.8121 -0.0957  0.7664
   94SAPC  H16Y 9209  -0.309   6.623   4.495  0.7586 -1.6754  0.3773
   94SAPC  C317 9210  -0.488   6.753   4.542 -0.3918 -0.5053  0.6867
   94SAPC  H17X 9211  -0.446   6.790   4.637  0.9947  0.7159 -0.3736
   94SAPC  H17Y 9212  -0.595   6.724   4.549 -0.6302  0.1284 -0.2027
   94SAPC  C318 9213  -0.487   6.859   4.433 -0.3879 -0.3641 -0.3401
   94SAPC  H18X 9214  -0.384   6.893   4.409 -1.5676  0.7415 -4.1564
   94SAPC  H18Y 9215  -0.539   6.951   4.465  2.4673 -0.1673  4.1116
   94SAPC  H18Z 9216  -0.531   6.822   4.338 -0.1657  0.3331 -0.7162
   95SAPC     N 9217   4.854   2.580   2.398 -0.5802 -0.1510 -0.4175
   95SAPC   C12 9218   4.985   2.579   2.317  0.3391  0.3808 -0.6020
   95SAPC  H12A 9219   4.992   2.494   2.251  1.2891 -1.4525  1.7734
   95SAPC  H12B 9220   5.060   2.565   2.393 -1.1815 -1.1290  0.6724
   95SAPC   C13 9221   4.856   2.687   2.498  0.4611  0.5400 -0.4044
   95SAPC  H13A 9222   4.876   2.781   2.450 -0.7914  1.1742  0.2819
   95SAPC  H13B 9223   4.762   2.693   2.551 -0.3956  1.0788 -1.9612
   95SAPC  H13C 9224   4.934   2.670   2.570  0.9658 -0.3802 -1.1658
   95SAPC   C14 9225   4.724   2.595   2.321 -0.5421 -0.1468  0.9014
   95SAPC  H14A 9226   4.639   2.578   2.384 -1.0220 -0.2249  0.2436
   95SAPC  H14B 9227   4.713   2.694   2.279  1.5325 -0.2951 -0.0917
   95SAPC  H14C 9228   4.723   2.522   2.242  0.0951  1.8033 -0.9705
   95SAPC   C15 9229   4.846   2.446   2.470 -0.0517 -0.0790  0.1531
   95SAPC  H15A 9230   4.934   2.418   2.526 -1.2762 -0.9039  1.7090
   95SAPC  H15B 9231   4.775   2.435   2.550  2.0789 -1.5873  1.9128
   95SAPC  H15C 9232   4.843   2.364   2.401 -2.3457  0.4157 -0.3671
   95SAPC   C11 9233   5.019   2.713   2.237 -0.4455  0.2416  0.3390
   95SAPC  H11A 9234   4.933   2.741   2.172  1.3723  1.5268 -1.5335
   95SAPC  H11B 9235   5.101   2.689   2.167  1.3265  0.8952  2.1535
   95SAPC     P 9236   5.051   2.960   2.294 -0.0900 -0.0086  0.2840
   95SAPC   O13 9237   5.127   2.984   2.170  0.4521 -0.1335 -0.0551
   95SAPC   O14 9238   4.914   3.018   2.297 -0.6077 -0.3386 -0.8810
   95SAPC   O12 9239   5.035   2.813   2.330 -0.1509  0.3080 -0.1257
   95SAPC   O11 9240   5.147   3.016   2.402  0.7920 -0.0562  0.2929
   95SAPC    C1 9241   5.157   2.957   2.534  0.0546  0.2035  1.2445
   95SAPC    HA 9242   5.195   3.032   2.606 -0.2146  0.9536  0.6169
   95SAPC    HB 9243   5.065   2.915   2.579 -0.0296  0.4121  1.2692
   95SAPC    C2 9244   5.256   2.836   2.529 -0.6482 -0.0097  0.0387
   95SAPC    HS 9245   5.233   2.756   2.455  1.2214  0.7006 -1.3558
   95SAPC   O21 9246   5.270   2.778   2.660 -0.2507 -0.4768  1.0453
   95SAPC   C21 9247   5.192   2.671   2.688 -0.1625  0.9342  0.3554
   95SAPC   O22 9248   5.117   2.613   2.609  0.1454 -0.1256 -0.6888
   95SAPC   C22 9249   5.224   2.633   2.830 -0.0625  0.8659  0.1345
   95SAPC   H2R 9250   5.325   2.587   2.830 -0.8847 -1.0123 -0.6401
   95SAPC   H2S 9251   5.212   2.721   2.897 -0.7445  0.1081  1.0169
   95SAPC    C3 9252   5.397   2.879   2.489  0.1915 -0.6708  0.4451
   95SAPC    HX 9253   5.413   2.907   2.383 -0.0052 -0.5302  0.4523
   95SAPC    HY 9254   5.446   2.780   2.497 -0.4459 -0.8995  1.6510
   95SAPC   O31 9255   5.461   2.961   2.587 -0.0623 -0.6422 -0.2001
   95SAPC   C31 9256   5.456   3.094   2.555 -0.3116  0.1731 -0.4291
   95SAPC   O32 9257   5.433   3.135   2.445 -0.2408 -0.0605  0.7785
   95SAPC   C32 9258   5.499   3.176   2.671  0.0902  0.7687 -0.3363
   95SAPC   H2X 9259   5.455   3.278   2.667 -2.3001 -0.1988  0.1355
   95SAPC   H2Y 9260   5.609   3.190   2.672 -0.2802  3.9288  0.6260
   95SAPC   C23 9261   5.124   2.528   2.886  0.1290 -0.3776 -0.2168
   95SAPC   H3R 9262   5.104   2.453   2.806  1.4251  0.3897 -1.2941
   95SAPC   H3S 9263   5.032   2.580   2.922 -0.2941  0.2232 -2.0547
   95SAPC   C24 9264   5.183   2.453   3.004  0.0566  0.3666 -0.1637
   95SAPC   H4R 9265   5.286   2.431   2.970 -0.0038 -2.1404  1.1587
   95SAPC   H4S 9266   5.125   2.363   3.033  1.9587 -0.9220 -0.2820
   95SAPC   C25 9267   5.204   2.544   3.126 -0.2660 -0.0661 -0.4394
   95SAPC   H5R 9268   5.246   2.644   3.108  0.0987 -0.3216 -1.0220
   95SAPC   C26 9269   5.185   2.515   3.263 -0.2999  0.1341  0.5520
   95SAPC   H6R 9270   5.204   2.599   3.332 -1.9559  0.6083  0.4351
   95SAPC   C27 9271   5.122   2.390   3.328 -0.2882 -0.1372 -0.7498
   95SAPC   H7R 9272   5.194   2.357   3.407 -0.7388  1.3111  0.2931
   95SAPC   H7S 9273   5.111   2.304   3.259  0.9748 -1.0408  0.1520
   95SAPC   C28 9274   4.983   2.416   3.380 -0.4563  0.4619 -0.7538
   95SAPC   H8R 9275   4.922   2.494   3.332 -4.5361 -1.0574  1.6545
   95SAPC   C29 9276   4.916   2.349   3.475  0.0644 -0.5249 -0.3792
   95SAPC   H9R 9277   4.813   2.381   3.495  0.3934  1.1880 -1.3241
   95SAPC  C210 9278   4.975   2.231   3.557  0.1709  0.3202 -0.6878
   95SAPC  H10R 9279   5.075   2.201   3.520  0.0867 -1.1335  0.2152
   95SAPC  H10S 9280   4.906   2.144   3.556  0.5518  0.0108 -0.1297
   95SAPC  C211 9281   5.010   2.295   3.695  0.2577 -0.4760 -0.0883
   95SAPC  H11R 9282   5.045   2.399   3.691 -1.6056  0.1046 -1.8300
   95SAPC  C212 9283   4.985   2.239   3.818  0.8952 -0.3600  0.2830
   95SAPC  H12R 9284   5.025   2.286   3.909  0.1238 -0.1752  0.5333
   95SAPC  C213 9285   4.909   2.112   3.845  0.2783 -0.3763 -0.3030
   95SAPC  H13R 9286   4.937   2.023   3.783 -1.5328 -1.2398  0.0910
   95SAPC  H13S 9287   4.803   2.117   3.812  0.5499 -2.0924 -1.5287
   95SAPC  C214 9288   4.926   2.067   3.991  0.5242 -0.5939  0.2206
   95SAPC  H14R 9289   5.030   2.057   4.025  0.4281 -0.7638  0.4673
   95SAPC  C215 9290   4.836   2.047   4.084 -0.5021 -0.4633  0.5018
   95SAPC  H15R 9291   4.863   2.027   4.189  0.4098 -0.5949  0.2527
   95SAPC  C216 9292   4.688   2.057   4.075  0.1895 -0.0796 -0.5125
   95SAPC  H16R 9293   4.657   2.111   3.983  0.6650  1.3976  0.1706
   95SAPC  H16S 9294   4.645   2.112   4.162  2.5244 -1.9156  1.8701
   95SAPC  C217 9295   4.608   1.920   4.058 -0.0688  0.4206  0.0703
   95SAPC  H17R 9296   4.636   1.878   3.959  0.9351  0.6029  0.2688
   95SAPC  H17S 9297   4.498   1.937   4.054 -0.1245  0.2511  0.8778
   95SAPC  C218 9298   4.631   1.808   4.172 -0.1819 -0.1119 -0.1758
   95SAPC  H18R 9299   4.584   1.849   4.264 -0.0173 -1.9916  0.7506
   95SAPC  H18S 9300   4.737   1.775   4.182 -0.1208  0.2935  0.5737
   95SAPC  C219 9301   4.543   1.685   4.136  1.1115  0.2635  0.1328
   95SAPC  H19R 9302   4.456   1.727   4.081 -0.5529 -0.4746  2.1074
   95SAPC  H19S 9303   4.513   1.630   4.228  2.0379 -1.6486 -0.6764
   95SAPC  C220 9304   4.627   1.580   4.050  0.0076 -0.0243 -0.0842
   95SAPC  H20R 9305   4.730   1.582   4.090  0.4882  3.4241 -1.2627
   95SAPC  H20S 9306   4.625   1.605   3.942 -2.5502  0.7668  0.0935
   95SAPC  H20T 9307   4.593   1.478   4.079 -0.5563 -0.4956 -2.2824
   95SAPC   C33 9308   5.458   3.122   2.813  0.3069  0.2563  0.7437
   95SAPC   H3X 9309   5.354   3.081   2.808  1.6353 -3.6461  2.9006
   95SAPC   H3Y 9310   5.465   3.215   2.873 -0.3635  0.5357  0.3983
   95SAPC   C34 9311   5.550   3.008   2.866  0.1922  0.3130  0.3909
   95SAPC   H4X 9312   5.654   3.043   2.852  0.1122  0.9813  1.4163
   95SAPC   H4Y 9313   5.530   2.912   2.812 -0.2036  1.1932 -1.0543
   95SAPC   C35 9314   5.536   2.991   3.017  0.0641  0.4543  0.2012
   95SAPC   H5X 9315   5.524   3.089   3.068  1.0366 -0.3067  1.9347
   95SAPC   H5Y 9316   5.613   2.939   3.077 -0.0969 -1.1417 -0.9536
   95SAPC   C36 9317   5.405   2.909   3.036 -0.1407 -0.0994 -0.5787
   95SAPC   H6X 9318   5.432   2.807   3.001 -0.0709 -0.6086  0.9473
   95SAPC   H6Y 9319   5.330   2.955   2.968 -0.5614  0.3054  0.1493
   95SAPC   C37 9320   5.352   2.913   3.181  0.0153  0.6099  0.1791
   95SAPC   H7X 9321   5.254   2.860   3.189 -0.2138  1.1003  0.6309
   95SAPC   H7Y 9322   5.338   3.018   3.216 -0.0886  1.0668 -1.1914
   95SAPC   C38 9323   5.443   2.854   3.288 -0.5466  0.5134  0.4805
   95SAPC   H8X 9324   5.544   2.899   3.285  0.0615 -0.6659  2.3273
   95SAPC   H8Y 9325   5.461   2.751   3.251 -0.9258  0.3596  0.7239
   95SAPC   C39 9326   5.374   2.842   3.421 -0.9920  0.3369  0.5717
   95SAPC   H9X 9327   5.400   2.746   3.471 -1.1572  0.4745  0.9229
   95SAPC   H9Y 9328   5.264   2.825   3.412 -1.0848  1.4018 -0.3684
   95SAPC  C310 9329   5.426   2.948   3.514 -0.1772  0.0524 -0.2126
   95SAPC  H10X 9330   5.424   3.051   3.472 -2.1914  0.4222  0.7398
   95SAPC  H10Y 9331   5.531   2.927   3.545 -0.4599 -0.5407  0.3657
   95SAPC  C311 9332   5.331   2.951   3.638  0.3696  0.0835 -0.2800
   95SAPC  H11X 9333   5.229   2.986   3.612 -0.6790  0.3405  3.7314
   95SAPC  H11Y 9334   5.373   3.027   3.707  0.5282 -1.5247  1.4453
   95SAPC  C312 9335   5.322   2.827   3.729 -0.2655 -0.9115  0.4236
   95SAPC  H12X 9336   5.275   2.744   3.673 -0.1948 -0.4956 -0.2514
   95SAPC  H12Y 9337   5.243   2.853   3.803 -0.5006  0.0769 -0.1628
   95SAPC  C313 9338   5.447   2.798   3.805 -0.5717 -0.0132  0.3334
   95SAPC  H13X 9339   5.451   2.876   3.884 -0.3654  1.6980 -1.3276
   95SAPC  H13Y 9340   5.541   2.813   3.747 -0.5492  2.6692  0.9825
   95SAPC  C314 9341   5.445   2.669   3.886  1.1749 -0.4013 -0.1052
   95SAPC  H14X 9342   5.341   2.678   3.925  0.6549 -2.1577 -1.0621
   95SAPC  H14Y 9343   5.498   2.683   3.983 -0.6287  0.3481  0.8087
   95SAPC  C315 9344   5.484   2.541   3.816  0.0062 -0.3487  0.2545
   95SAPC  H15X 9345   5.592   2.560   3.797 -0.4246  0.8737 -1.1179
   95SAPC  H15Y 9346   5.434   2.520   3.719 -2.8462  1.6792  1.2294
   95SAPC  C316 9347   5.455   2.420   3.906 -0.1898  0.2102  0.8087
   95SAPC  H16X 9348   5.514   2.428   4.000 -0.3334 -2.0966  1.1205
   95SAPC  H16Y 9349   5.487   2.333   3.844 -0.1209 -0.1426  1.3351
   95SAPC  C317 9350   5.310   2.408   3.955  0.3047  0.0256 -0.1136
   95SAPC  H17X 9351   5.251   2.360   3.874 -1.3753 -1.8447  2.1054
   95SAPC  H17Y 9352   5.268   2.505   3.989  0.6554 -0.7882  2.8348
   95SAPC  C318 9353   5.288   2.308   4.071 -0.4766 -0.1277  0.5973
   95SAPC  H18X 9354   5.332   2.209   4.047 -1.3222 -0.4865  0.5271
   95SAPC  H18Y 9355   5.181   2.303   4.100 -0.7808 -1.7065 -0.6970
   95SAPC  H18Z 9356   5.339   2.340   4.165 -0.9082 -0.6695  1.0173
   96SAPC     N 9357   4.283   2.022   2.114  0.0077  0.4221  0.8877
   96SAPC   C12 9358   4.398   2.121   2.087 -0.1304  0.2649 -0.5208
   96SAPC  H12A 9359   4.395   2.148   1.983  0.8570  1.6663 -0.1892
   96SAPC  H12B 9360   4.495   2.076   2.104 -0.7735 -1.2085 -0.5827
   96SAPC   C13 9361   4.145   2.083   2.094  0.8112  0.4351  0.1382
   96SAPC  H13A 9362   4.060   2.016   2.101  2.1198 -1.1166  1.3836
   96SAPC  H13B 9363   4.140   2.164   2.166  0.5914  1.7142 -1.2818
   96SAPC  H13C 9364   4.146   2.121   1.993  3.2648  1.3675  0.4915
   96SAPC   C14 9365   4.296   1.911   2.013 -0.2543  0.8859  0.6831
   96SAPC  H14A 9366   4.226   1.830   2.028 -0.3955  0.8228 -0.2560
   96SAPC  H14B 9367   4.269   1.940   1.912  1.3304  0.9940  0.2767
   96SAPC  H14C 9368   4.392   1.862   2.021 -0.7688 -0.2131  0.2328
   96SAPC   C15 9369   4.282   1.963   2.250  0.4112 -0.5204  0.5140
   96SAPC  H15A 9370   4.293   2.040   2.325 -2.7574  1.5835 -1.0909
   96SAPC  H15B 9371   4.194   1.903   2.270  0.1879 -0.1333  0.6837
   96SAPC  H15C 9372   4.362   1.893   2.269  0.6326 -0.6550 -0.8363
   96SAPC   C11 9373   4.402   2.242   2.185  0.0001  0.5998 -0.0457
   96SAPC  H11A 9374   4.435   2.215   2.288  1.8869  2.6631 -0.0779
   96SAPC  H11B 9375   4.299   2.280   2.199 -0.9343 -2.4654  2.1114
   96SAPC     P 9376   4.452   2.456   2.035  0.2076 -0.4271  0.0417
   96SAPC   O13 9377   4.555   2.559   2.044 -0.3340  0.5111  0.8513
   96SAPC   O14 9378   4.420   2.403   1.901 -0.6340  0.4462 -0.1175
   96SAPC   O12 9379   4.497   2.339   2.130  0.1307 -0.1494  0.0075
   96SAPC   O11 9380   4.325   2.516   2.102 -0.4377  0.7458  0.2583
   96SAPC    C1 9381   4.338   2.562   2.241  0.2863  0.4653 -0.1943
   96SAPC    HA 9382   4.348   2.470   2.302  1.8310  1.0441  0.4380
   96SAPC    HB 9383   4.427   2.623   2.268 -0.0444  0.3917  1.1022
   96SAPC    C2 9384   4.206   2.631   2.291  0.0912 -0.5446 -0.8016
   96SAPC    HS 9385   4.167   2.705   2.218 -1.4575 -1.3038 -0.7698
   96SAPC   O21 9386   4.231   2.686   2.418 -0.6879 -0.5271  0.7841
   96SAPC   C21 9387   4.278   2.815   2.419 -0.4625  0.1241  0.1493
   96SAPC   O22 9388   4.306   2.873   2.318 -0.5326 -0.7943  0.2888
   96SAPC   C22 9389   4.294   2.868   2.558  0.0500 -0.3803  0.0019
   96SAPC   H2R 9390   4.327   2.972   2.537  2.0767 -1.0473 -0.2439
   96SAPC   H2S 9391   4.193   2.860   2.605 -0.5641 -0.4347 -1.3152
   96SAPC    C3 9392   4.090   2.530   2.294  0.3115 -0.5220  0.5777
   96SAPC    HX 9393   4.082   2.501   2.187 -1.2788  1.9871 -0.0310
   96SAPC    HY 9394   3.997   2.587   2.314  0.1041 -0.2332 -1.0930
   96SAPC   O31 9395   4.124   2.411   2.372 -0.4293 -0.4485 -0.0335
   96SAPC   C31 9396   4.034   2.369   2.461 -0.2096  0.5801 -0.3919
   96SAPC   O32 9397   3.921   2.407   2.472  0.4931 -0.1003 -0.1330
   96SAPC   C32 9398   4.104   2.260   2.543 -0.4995 -0.1067 -0.5367
   96SAPC   H2X 9399   4.110   2.168   2.482 -2.1147  1.2177 -2.7570
   96SAPC   H2Y 9400   4.030   2.240   2.624  1.1541  1.6265  1.4771
   96SAPC   C23 9401   4.390   2.785   2.647  0.4600  0.2077  0.1593
   96SAPC   H3R 9402   4.358   2.678   2.644 -1.2616  0.6958  0.9048
   96SAPC   H3S 9403   4.379   2.814   2.753  0.7796  0.0278  0.2423
   96SAPC   C24 9404   4.539   2.790   2.621  0.0456 -0.8344  0.2785
   96SAPC   H4R 9405   4.568   2.749   2.521 -3.9323 -1.8085 -0.5541
   96SAPC   H4S 9406   4.591   2.720   2.690  0.2653  0.0082  0.9842
   96SAPC   C25 9407   4.612   2.918   2.645 -1.2510  0.1653 -0.0767
   96SAPC   H5R 9408   4.588   2.995   2.570 -0.8027 -0.5311 -0.9417
   96SAPC   C26 9409   4.708   2.946   2.742  0.8484  0.3192  0.2529
   96SAPC   H6R 9410   4.737   3.051   2.751  0.5601  0.2695  2.1021
   96SAPC   C27 9411   4.764   2.860   2.855  0.0123  0.3339  0.0558
   96SAPC   H7R 9412   4.779   2.754   2.826  0.1122 -0.0213  1.3772
   96SAPC   H7S 9413   4.692   2.861   2.939  1.7388  0.5068  1.5444
   96SAPC   C28 9414   4.903   2.910   2.888 -0.3314  1.2029  0.1785
   96SAPC   H8R 9415   4.969   2.947   2.809  0.3362  0.5170  0.4092
   96SAPC   C29 9416   4.955   2.891   3.011  0.1291  0.1352 -0.6659
   96SAPC   H9R 9417   5.047   2.944   3.040 -0.4979  0.8039  0.1189
   96SAPC  C210 9418   4.888   2.814   3.119 -0.1650  0.3700 -0.0590
   96SAPC  H10R 9419   4.968   2.746   3.156 -0.9777 -0.4893  0.1610
   96SAPC  H10S 9420   4.813   2.744   3.075  0.9116  1.6347 -4.0972
   96SAPC  C211 9421   4.821   2.907   3.217 -0.9190 -0.7716 -0.2324
   96SAPC  H11R 9422   4.740   2.968   3.176 -0.0079 -0.6565 -1.8857
   96SAPC  C212 9423   4.838   2.911   3.352 -1.2653  0.3610 -0.0857
   96SAPC  H12R 9424   4.794   2.995   3.408  0.5196 -0.3664  2.4694
   96SAPC  C213 9425   4.932   2.822   3.430  0.1185  0.2593 -0.1558
   96SAPC  H13R 9426   5.006   2.896   3.466  0.3372  0.5198 -1.1236
   96SAPC  H13S 9427   4.990   2.754   3.363 -3.2487 -1.1768 -1.7160
   96SAPC  C214 9428   4.883   2.749   3.548 -0.1868 -1.0280 -1.2735
   96SAPC  H14R 9429   4.946   2.764   3.636 -2.1584 -0.7613  0.1263
   96SAPC  C215 9430   4.773   2.675   3.563 -0.3432 -0.0412  0.1870
   96SAPC  H15R 9431   4.754   2.625   3.659 -0.1637 -0.5131 -0.0232
   96SAPC  C216 9432   4.676   2.642   3.456  0.1027  0.4825  0.1990
   96SAPC  H16R 9433   4.719   2.606   3.360 -3.9961 -3.0773 -0.4666
   96SAPC  H16S 9434   4.627   2.734   3.416  2.7762  0.9189 -2.2210
   96SAPC  C217 9435   4.561   2.542   3.501 -0.9251  0.4238  0.4808
   96SAPC  H17R 9436   4.528   2.567   3.604  2.6600  1.0125  1.5655
   96SAPC  H17S 9437   4.608   2.442   3.517 -2.3178 -0.4439 -0.6764
   96SAPC  C218 9438   4.447   2.528   3.400 -0.7282  0.6105 -0.3281
   96SAPC  H18R 9439   4.424   2.631   3.366 -1.4041  0.2566 -0.9533
   96SAPC  H18S 9440   4.356   2.483   3.445  0.4203 -1.6938 -0.2477
   96SAPC  C219 9441   4.485   2.450   3.278 -0.6400  0.7317 -0.0001
   96SAPC  H19R 9442   4.487   2.346   3.318  0.7732  0.2971 -1.1558
   96SAPC  H19S 9443   4.580   2.480   3.228 -0.9266 -0.7695 -1.4902
   96SAPC  C220 9444   4.375   2.446   3.175  0.1372  0.2614  0.2827
   96SAPC  H20R 9445   4.372   2.351   3.117  0.7896  0.9601 -0.9094
   96SAPC  H20S 9446   4.392   2.521   3.095  0.3264  2.4564  2.3376
   96SAPC  H20T 9447   4.273   2.455   3.218  0.1002 -0.1341  0.2763
   96SAPC   C33 9448   4.241   2.308   2.609  0.3361 -0.9638 -0.9449
   96SAPC   H3X 9449   4.215   2.388   2.680  0.2244 -2.7433  1.0743
   96SAPC   H3Y 9450   4.306   2.340   2.525 -0.4222  1.0854 -0.7655
   96SAPC   C34 9451   4.295   2.193   2.684 -0.2793 -0.0544 -0.1621
   96SAPC   H4X 9452   4.304   2.109   2.612 -0.1889 -0.5879  0.4637
   96SAPC   H4Y 9453   4.228   2.167   2.769  3.2163 -1.1165  2.4011
   96SAPC   C35 9454   4.437   2.234   2.731 -0.2206  0.3156 -0.1162
   96SAPC   H5X 9455   4.512   2.271   2.658 -0.3532 -0.9364 -0.8961
   96SAPC   H5Y 9456   4.479   2.137   2.766 -0.3954  0.8048  1.5109
   96SAPC   C36 9457   4.420   2.331   2.850 -0.5183  0.0921  0.8222
   96SAPC   H6X 9458   4.357   2.287   2.931 -1.5852 -0.1147 -0.1048
   96SAPC   H6Y 9459   4.377   2.428   2.818 -1.1428 -1.0311 -1.9398
   96SAPC   C37 9460   4.559   2.377   2.899 -0.1280  0.2050  0.3179
   96SAPC   H7X 9461   4.541   2.476   2.946 -3.2926  0.9080 -2.2190
   96SAPC   H7Y 9462   4.628   2.398   2.814 -0.1381 -1.6685 -0.1682
   96SAPC   C38 9463   4.621   2.281   2.998 -0.6466  1.0033 -0.7256
   96SAPC   H8X 9464   4.627   2.185   2.943  0.4650  1.4644 -1.4451
   96SAPC   H8Y 9465   4.555   2.268   3.086 -1.0955 -0.3296 -1.2447
   96SAPC   C39 9466   4.777   2.319   3.031  0.2636  0.6276 -0.5341
   96SAPC   H9X 9467   4.764   2.419   3.076 -1.1371  0.7809 -1.2383
   96SAPC   H9Y 9468   4.838   2.322   2.938  0.2966 -0.3115 -0.5471
   96SAPC  C310 9469   4.850   2.213   3.128 -0.2199  0.0398  0.4783
   96SAPC  H10X 9470   4.807   2.229   3.229  3.0897  0.4229  1.8888
   96SAPC  H10Y 9471   4.957   2.237   3.143 -0.1164  1.0687 -1.7698
   96SAPC  C311 9472   4.825   2.067   3.104 -0.3980 -0.3179  0.3128
   96SAPC  H11X 9473   4.863   2.050   3.001 -1.3140  2.4047 -0.5218
   96SAPC  H11Y 9474   4.716   2.044   3.104 -0.4419 -0.1738 -1.2437
   96SAPC  C312 9475   4.888   1.967   3.205 -0.0392  0.0791 -0.5988
   96SAPC  H12X 9476   4.983   2.019   3.230 -0.7273  1.5650 -1.0266
   96SAPC  H12Y 9477   4.920   1.874   3.154  0.6840 -0.2737  0.4794
   96SAPC  C313 9478   4.794   1.947   3.321 -0.3893  0.4366  0.0249
   96SAPC  H13X 9479   4.691   1.908   3.308 -1.2295  2.1634  1.2924
   96SAPC  H13Y 9480   4.774   2.050   3.357  0.4435 -0.0119  1.8703
   96SAPC  C314 9481   4.843   1.856   3.436  0.1756  0.6202  0.8229
   96SAPC  H14X 9482   4.925   1.902   3.494  0.9788 -1.0371  1.0282
   96SAPC  H14Y 9483   4.890   1.774   3.378 -0.3703  0.4444  0.6265
   96SAPC  C315 9484   4.731   1.788   3.514 -0.5094 -0.2643 -0.0629
   96SAPC  H15X 9485   4.775   1.693   3.551  2.0964  1.0118  0.2546
   96SAPC  H15Y 9486   4.632   1.772   3.466 -1.7417  0.7566  2.0836
   96SAPC  C316 9487   4.700   1.875   3.633 -1.1885  0.2777 -0.1641
   96SAPC  H16X 9488   4.785   1.942   3.660 -1.7806  0.3420  1.5952
   96SAPC  H16Y 9489   4.688   1.811   3.723 -0.8288  2.6764  1.6453
   96SAPC  C317 9490   4.565   1.959   3.616 -1.0107  0.6717  0.2688
   96SAPC  H17X 9491   4.477   1.895   3.638 -1.2556  0.3870 -1.4927
   96SAPC  H17Y 9492   4.558   1.986   3.509  2.8520  1.7777  0.2201
   96SAPC  C318 9493   4.558   2.084   3.699  0.5960  0.1894  0.4597
   96SAPC  H18X 9494   4.546   2.073   3.809  0.9446 -1.1188  0.3794
   96SAPC  H18Y 9495   4.470   2.146   3.674  0.0234 -0.5430  0.6468
   96SAPC  H18Z 9496   4.645   2.148   3.673 -0.8366  1.8792 -0.3053
   97SAPC     N 9497   2.428   2.120   2.435 -0.2225  0.3853  0.6225
   97SAPC   C12 9498   2.293   2.064   2.459  0.6586  1.3466 -1.3196
   97SAPC  H12A 9499   2.227   2.066   2.373 -0.4604  0.1077 -0.5265
   97SAPC  H12B 9500   2.231   2.121   2.527  0.2849  0.7198 -1.1245
   97SAPC   C13 9501   2.423   2.266   2.391 -0.0280  0.0363 -0.6200
   97SAPC  H13A 9502   2.396   2.330   2.473  0.4907 -0.4308 -0.0832
   97SAPC  H13B 9503   2.525   2.288   2.362  0.5817 -1.1556  0.5571
   97SAPC  H13C 9504   2.358   2.281   2.306  0.5959 -1.1334 -1.3137
   97SAPC   C14 9505   2.514   2.099   2.560  0.2278 -1.0322  0.3833
   97SAPC  H14A 9506   2.612   2.143   2.544 -0.7874  0.6437 -1.4113
   97SAPC  H14B 9507   2.472   2.144   2.649  1.8378  1.7432 -0.1814
   97SAPC  H14C 9508   2.517   1.994   2.583 -0.9930 -0.5603  2.7774
   97SAPC   C15 9509   2.492   2.043   2.324  0.0135 -0.0696 -0.2313
   97SAPC  H15A 9510   2.476   1.937   2.339 -0.0776  0.2206  1.8763
   97SAPC  H15B 9511   2.453   2.070   2.227 -1.9573 -0.0178  0.5492
   97SAPC  H15C 9512   2.597   2.067   2.321  0.4129 -1.1685  2.9083
   97SAPC   C11 9513   2.285   1.911   2.513 -0.2165  0.4270 -0.1742
   97SAPC  H11A 9514   2.199   1.879   2.576  1.5967 -1.4754  1.4305
   97SAPC  H11B 9515   2.363   1.899   2.592  2.2679  1.2883 -2.3918
   97SAPC     P 9516   2.177   1.784   2.318  0.0336  0.2858  0.2875
   97SAPC   O13 9517   2.108   1.914   2.311 -0.4460  0.4164  0.4475
   97SAPC   O14 9518   2.208   1.703   2.196 -0.6753 -0.3906  0.7033
   97SAPC   O12 9519   2.313   1.823   2.395 -0.0882 -0.3603 -0.2443
   97SAPC   O11 9520   2.089   1.698   2.418  0.4044 -0.0141  0.4317
   97SAPC    C1 9521   2.123   1.569   2.464  0.3466  0.3359 -0.3356
   97SAPC    HA 9522   2.107   1.497   2.381 -1.6911  1.4936 -0.9978
   97SAPC    HB 9523   2.231   1.580   2.489  0.8870 -0.9971 -1.9905
   97SAPC    C2 9524   2.037   1.525   2.589  0.2202 -0.4514 -0.4141
   97SAPC    HS 9525   1.932   1.540   2.558  0.0334 -1.2240 -0.1661
   97SAPC   O21 9526   2.072   1.602   2.700  0.1276 -0.0765  0.2951
   97SAPC   C21 9527   1.981   1.622   2.793 -0.8638  0.1299  0.2288
   97SAPC   O22 9528   1.867   1.583   2.785  0.1621  0.0074 -0.0394
   97SAPC   C22 9529   2.034   1.711   2.900  0.5584 -0.3705 -0.1345
   97SAPC   H2R 9530   2.106   1.661   2.968 -0.6594 -0.8626  0.8094
   97SAPC   H2S 9531   2.075   1.805   2.857  2.7320 -0.8411  0.8457
   97SAPC    C3 9532   2.060   1.374   2.626  0.0892 -0.1008 -0.1730
   97SAPC    HX 9533   2.025   1.309   2.542  0.9074 -0.4210 -0.2700
   97SAPC    HY 9534   1.993   1.357   2.712  1.2284  0.8156  0.9026
   97SAPC   O31 9535   2.205   1.353   2.659 -0.3213 -0.0449 -0.5318
   97SAPC   C31 9536   2.285   1.283   2.567  0.0363 -0.1471  0.2231
   97SAPC   O32 9537   2.240   1.242   2.460 -0.4059  0.1657 -0.2231
   97SAPC   C32 9538   2.418   1.254   2.629 -0.1094  0.3667 -0.2001
   97SAPC   H2X 9539   2.462   1.354   2.651 -0.5271  0.4243  0.3912
   97SAPC   H2Y 9540   2.477   1.202   2.550 -1.0884 -0.8094 -0.1740
   97SAPC   C23 9541   1.926   1.751   3.011  0.7002 -0.6624 -1.1180
   97SAPC   H3R 9542   1.885   1.654   3.046 -1.2675  0.8907  1.0606
   97SAPC   H3S 9543   1.845   1.803   2.954  0.5990 -0.6595 -0.9701
   97SAPC   C24 9544   1.984   1.831   3.132 -0.2925  0.7941  0.1261
   97SAPC   H4R 9545   2.054   1.767   3.189 -0.1097 -0.4941 -1.4966
   97SAPC   H4S 9546   1.892   1.847   3.191  0.1291  0.4916  0.8731
   97SAPC   C25 9547   2.034   1.972   3.087 -0.3289 -0.4660 -0.4321
   97SAPC   H5R 9548   1.950   2.043   3.073  0.1430  0.9844  3.4272
   97SAPC   C26 9549   2.160   2.010   3.058  0.3833  0.2520 -0.2619
   97SAPC   H6R 9550   2.173   2.112   3.020  1.3766  0.1577 -0.1880
   97SAPC   C27 9551   2.284   1.924   3.069 -0.1846 -0.4302 -0.0004
   97SAPC   H7R 9552   2.275   1.823   3.023  1.6793 -0.9458  0.7255
   97SAPC   H7S 9553   2.305   1.898   3.175 -0.9234 -0.2831  0.1874
   97SAPC   C28 9554   2.401   2.006   3.010 -0.3925  0.3255 -0.1551
   97SAPC   H8R 9555   2.407   2.001   2.900 -1.9488 -0.1496 -0.2220
   97SAPC   C29 9556   2.504   2.069   3.078  0.1390 -0.4380 -0.2344
   97SAPC   H9R 9557   2.580   2.125   3.022  0.0210  0.7634  0.7800
   97SAPC  C210 9558   2.516   2.073   3.229 -0.4813  0.0176  0.5505
   97SAPC  H10R 9559   2.622   2.101   3.249 -0.3390  0.0809 -0.2726
   97SAPC  H10S 9560   2.514   1.970   3.271  1.2878  0.2098  1.1497
   97SAPC  C211 9561   2.409   2.162   3.293 -0.0792  0.6151 -0.3965
   97SAPC  H11R 9562   2.303   2.142   3.273  0.0615 -1.9990  1.2257
   97SAPC  C212 9563   2.433   2.261   3.382 -0.2203  0.5785  0.0040
   97SAPC  H12R 9564   2.344   2.315   3.418 -1.3160  0.0841 -1.9053
   97SAPC  C213 9565   2.562   2.309   3.443  0.5779  0.3567  0.2495
   97SAPC  H13R 9566   2.570   2.417   3.417  1.8408  0.7988  2.4074
   97SAPC  H13S 9567   2.650   2.259   3.396 -0.6821 -1.3142 -0.4024
   97SAPC  C214 9568   2.557   2.288   3.595 -0.1991  0.2378 -0.4750
   97SAPC  H14R 9569   2.467   2.243   3.640 -0.1357 -0.4621 -1.0289
   97SAPC  C215 9570   2.655   2.326   3.681  0.0396 -0.1658 -0.1943
   97SAPC  H15R 9571   2.641   2.315   3.790  2.2002 -1.7605 -0.0407
   97SAPC  C216 9572   2.778   2.398   3.634  0.1266 -0.5855  0.4859
   97SAPC  H16R 9573   2.751   2.505   3.622  3.2309  0.2861  0.9007
   97SAPC  H16S 9574   2.811   2.359   3.536 -2.5050 -0.3282 -0.5445
   97SAPC  C217 9575   2.884   2.377   3.743 -0.3793 -0.5501  0.3711
   97SAPC  H17R 9576   2.982   2.391   3.694 -1.0681  2.8933 -0.1326
   97SAPC  H17S 9577   2.885   2.275   3.788  3.4541 -0.3767  0.8576
   97SAPC  C218 9578   2.876   2.483   3.856  0.4527  0.8770 -0.4320
   97SAPC  H18R 9579   2.791   2.461   3.924  2.3243  1.2925  2.1426
   97SAPC  H18S 9580   2.851   2.589   3.833 -0.9711  0.4134 -1.0443
   97SAPC  C219 9581   3.007   2.490   3.941 -0.2080  0.4701 -0.2153
   97SAPC  H19R 9582   3.077   2.548   3.877  0.3074  0.5712  0.4327
   97SAPC  H19S 9583   3.040   2.385   3.945  0.3899  0.7283  2.1441
   97SAPC  C220 9584   3.006   2.556   4.079  0.7338  0.7828 -0.2848
   97SAPC  H20R 9585   2.930   2.509   4.144  0.7927 -0.2173 -0.9298
   97SAPC  H20S 9586   2.984   2.663   4.057 -0.4474  0.2558 -1.7227
   97SAPC  H20T 9587   3.107   2.542   4.123  1.2841  0.5770 -1.5785
   97SAPC   C33 9588   2.400   1.167   2.756 -0.7798  0.8534 -0.1186
   97SAPC   H3X 9589   2.349   1.075   2.721 -0.8480  1.2005 -0.9259
   97SAPC   H3Y 9590   2.344   1.227   2.831 -0.7299 -0.8179  1.2825
   97SAPC   C34 9591   2.542   1.136   2.812 -0.2512 -0.5150  0.4258
   97SAPC   H4X 9592   2.588   1.232   2.841 -1.8673  0.2344  0.5198
   97SAPC   H4Y 9593   2.598   1.101   2.722 -1.2969  1.0150 -0.8504
   97SAPC   C35 9594   2.547   1.029   2.922 -0.2161 -0.3784 -0.0842
   97SAPC   H5X 9595   2.652   0.996   2.935 -0.1786  0.5686  2.4111
   97SAPC   H5Y 9596   2.491   0.939   2.890 -1.2307 -0.2661  1.2941
   97SAPC   C36 9597   2.481   1.090   3.045 -0.0089 -0.5064 -0.6304
   97SAPC   H6X 9598   2.370   1.087   3.045 -0.0070 -3.0711  1.6490
   97SAPC   H6Y 9599   2.517   1.194   3.060 -1.2575 -0.2510  0.6284
   97SAPC   C37 9600   2.503   1.000   3.170  0.5841  0.5113  0.0377
   97SAPC   H7X 9601   2.430   0.916   3.169 -0.4489  1.4170 -1.6394
   97SAPC   H7Y 9602   2.470   1.065   3.253 -0.3978 -0.4655  0.4265
   97SAPC   C38 9603   2.642   0.942   3.195  0.6499  0.3237 -0.4149
   97SAPC   H8X 9604   2.670   0.864   3.121  1.8160 -0.7792  1.1340
   97SAPC   H8Y 9605   2.650   0.898   3.297 -0.0419 -0.3304 -0.6334
   97SAPC   C39 9606   2.755   1.055   3.188  0.5456  0.2422  0.2387
   97SAPC   H9X 9607   2.744   1.114   3.094 -0.6303  2.2399  1.5751
   97SAPC   H9Y 9608   2.847   0.994   3.185 -0.5391 -1.5620  2.1387
   97SAPC  C310 9609   2.747   1.143   3.309  0.3431 -0.0552 -0.0795
   97SAPC  H10X 9610   2.790   1.087   3.394  1.3202  2.2258  0.9529
   97SAPC  H10Y 9611   2.641   1.173   3.326  1.1450  2.6035  0.3975
   97SAPC  C311 9612   2.832   1.267   3.292 -0.4542  0.7090 -0.1011
   97SAPC  H11X 9613   2.924   1.251   3.231  0.2386 -0.0611  1.1184
   97SAPC  H11Y 9614   2.881   1.275   3.392  1.0999 -1.0611 -0.6703
   97SAPC  C312 9615   2.759   1.400   3.259  0.7203  0.3131 -0.2403
   97SAPC  H12X 9616   2.685   1.428   3.337  0.0408 -0.7776 -0.4773
   97SAPC  H12Y 9617   2.704   1.395   3.162 -1.0913 -0.3960  0.7960
   97SAPC  C313 9618   2.859   1.519   3.247  0.2274  0.7192 -0.1105
   97SAPC  H13X 9619   2.939   1.511   3.169  0.2438 -1.9760  0.1256
   97SAPC  H13Y 9620   2.910   1.534   3.345 -0.8822  0.5989  0.4870
   97SAPC  C314 9621   2.789   1.656   3.232  0.1143  0.6944  0.7146
   97SAPC  H14X 9622   2.705   1.663   3.304 -0.6460  0.7772 -0.1724
   97SAPC  H14Y 9623   2.733   1.652   3.136 -1.0341  0.1488  1.3946
   97SAPC  C315 9624   2.891   1.772   3.243 -0.2761 -0.1583 -0.5986
   97SAPC  H15X 9625   2.968   1.758   3.164  1.5112  0.7981  0.9404
   97SAPC  H15Y 9626   2.945   1.758   3.339 -2.0900  0.0876  0.4871
   97SAPC  C316 9627   2.844   1.922   3.238 -0.8598  0.0136 -0.1383
   97SAPC  H16X 9628   2.786   1.946   3.330 -0.3304 -2.2055  0.8034
   97SAPC  H16Y 9629   2.767   1.927   3.159 -0.2166 -1.4595 -0.8670
   97SAPC  C317 9630   2.963   2.014   3.229  0.2442  0.3732 -0.6423
   97SAPC  H17X 9631   2.919   2.115   3.214 -3.1676 -1.2158 -2.1086
   97SAPC  H17Y 9632   3.021   1.985   3.138  1.7293 -0.3423  0.5217
   97SAPC  C318 9633   3.039   2.021   3.358 -0.5270 -0.1320  0.6825
   97SAPC  H18X 9634   2.975   2.055   3.441  0.0117 -0.1373  1.1052
   97SAPC  H18Y 9635   3.124   2.093   3.358 -0.3805 -0.2434 -1.8543
   97SAPC  H18Z 9636   3.083   1.925   3.392 -1.8119 -1.1984 -0.6167
   98SAPC     N 9637   0.281   2.922   2.152  0.2979  0.6654  0.7990
   98SAPC   C12 9638   0.263   2.927   2.302  0.3707  0.3469  0.5077
   98SAPC  H12A 9639   0.179   2.863   2.328  0.1940  0.3004 -0.1767
   98SAPC  H12B 9640   0.243   3.027   2.338  0.1348 -0.0142  1.3903
   98SAPC   C13 9641   0.351   2.793   2.115  0.7699 -0.3242 -0.4064
   98SAPC  H13A 9642   0.379   2.788   2.011 -1.3745  0.8378 -1.0740
   98SAPC  H13B 9643   0.447   2.795   2.165 -0.4996 -0.0046  2.0853
   98SAPC  H13C 9644   0.299   2.706   2.152 -3.3215  2.3007  0.3012
   98SAPC   C14 9645   0.146   2.916   2.080  0.2443  0.4285 -0.0830
   98SAPC  H14A 9646   0.081   2.839   2.120 -0.8732  1.3110 -0.1944
   98SAPC  H14B 9647   0.082   3.000   2.097 -0.5422  0.0798 -1.3119
   98SAPC  H14C 9648   0.158   2.897   1.974  1.4374  2.1844 -0.2861
   98SAPC   C15 9649   0.366   3.032   2.104 -0.0228  0.8558 -0.2949
   98SAPC  H15A 9650   0.397   3.009   2.003  1.6286  0.7897  0.2268
   98SAPC  H15B 9651   0.315   3.127   2.113 -0.2102  0.8013 -0.7737
   98SAPC  H15C 9652   0.460   3.037   2.156 -0.5451  0.8928  0.6627
   98SAPC   C11 9653   0.380   2.877   2.386 -0.2449  0.8854 -0.0885
   98SAPC  H11A 9654   0.409   2.773   2.362  0.5024  1.2649 -0.8838
   98SAPC  H11B 9655   0.355   2.872   2.494  0.8123  2.2916  0.2404
   98SAPC     P 9656   0.550   3.069   2.466  0.5082 -0.5419 -0.1085
   98SAPC   O13 9657   0.699   3.057   2.446 -0.1686 -0.3058 -0.0666
   98SAPC   O14 9658   0.485   3.204   2.432 -0.0188  0.1522  0.1855
   98SAPC   O12 9659   0.493   2.960   2.370 -0.3063  0.3552 -0.2988
   98SAPC   O11 9660   0.519   3.028   2.615  0.7378 -0.4991  0.6752
   98SAPC    C1 9661   0.606   2.947   2.690 -0.6004  0.4857 -0.0009
   98SAPC    HA 9662   0.703   2.928   2.639 -0.0484  2.4250  0.3122
   98SAPC    HB 9663   0.634   2.996   2.785  5.8216  0.9387 -1.9241
   98SAPC    C2 9664   0.560   2.800   2.724 -0.0216  0.5275  0.0310
   98SAPC    HS 9665   0.507   2.746   2.642 -0.0480  1.5573 -0.6334
   98SAPC   O21 9666   0.491   2.791   2.852  0.3263 -0.5034  0.6450
   98SAPC   C21 9667   0.360   2.832   2.857  0.2706  0.3110  0.9181
   98SAPC   O22 9668   0.289   2.852   2.763  0.2046  0.2016  0.0003
   98SAPC   C22 9669   0.314   2.850   3.000 -0.0586 -0.5358 -0.7274
   98SAPC   H2R 9670   0.317   2.961   3.007  0.8343 -0.6617  1.3043
   98SAPC   H2S 9671   0.209   2.813   3.009  0.0086 -0.4291  0.7125
   98SAPC    C3 9672   0.688   2.721   2.737 -0.2307 -0.0619  0.4595
   98SAPC    HX 9673   0.744   2.722   2.641 -1.7001  2.2431 -0.4125
   98SAPC    HY 9674   0.681   2.615   2.770 -3.9061  0.2215  0.8024
   98SAPC   O31 9675   0.762   2.786   2.844 -0.3571 -0.0614 -0.0445
   98SAPC   C31 9676   0.871   2.718   2.888  1.0746  0.4659  0.6497
   98SAPC   O32 9677   0.909   2.610   2.843 -0.3443  0.0398  0.4279
   98SAPC   C32 9678   0.930   2.794   3.006  0.1903  0.0904  0.3307
   98SAPC   H2X 9679   0.959   2.892   2.962 -2.1322  1.1687  1.1613
   98SAPC   H2Y 9680   1.013   2.741   3.058  0.7422  2.7041  2.1614
   98SAPC   C23 9681   0.398   2.800   3.121  0.4028  0.4982 -0.2798
   98SAPC   H3R 9682   0.379   2.858   3.214  0.3785  0.6514 -0.3815
   98SAPC   H3S 9683   0.504   2.813   3.092  0.4698 -0.6889 -0.5932
   98SAPC   C24 9684   0.385   2.644   3.147 -0.4096 -0.7138 -0.0769
   98SAPC   H4R 9685   0.439   2.627   3.242  1.1343 -1.1866 -1.0128
   98SAPC   H4S 9686   0.442   2.587   3.070 -0.8808 -2.7517  1.0613
   98SAPC   C25 9687   0.251   2.582   3.156  1.0981 -0.6384  1.0581
   98SAPC   H5R 9688   0.167   2.652   3.146  2.9289  1.6344  1.0309
   98SAPC   C26 9689   0.222   2.466   3.222  0.0872  0.1080 -0.7343
   98SAPC   H6R 9690   0.121   2.423   3.214  1.2182 -2.2310 -3.3630
   98SAPC   C27 9691   0.327   2.377   3.279 -0.8931  0.4404  0.1983
   98SAPC   H7R 9692   0.432   2.396   3.251 -0.6025  0.9665  1.5980
   98SAPC   H7S 9693   0.315   2.276   3.234  1.6688 -0.3357  1.1719
   98SAPC   C28 9694   0.303   2.356   3.430 -0.1594 -0.3561  0.3535
   98SAPC   H8R 9695   0.200   2.389   3.453 -0.5930 -1.1663 -0.3766
   98SAPC   C29 9696   0.399   2.312   3.519 -1.0369 -0.2925  0.1132
   98SAPC   H9R 9697   0.387   2.312   3.628  5.5313  0.6018  1.0037
   98SAPC  C210 9698   0.547   2.277   3.485  0.9617 -0.0596 -0.7174
   98SAPC  H10R 9699   0.583   2.299   3.383 -1.1144  1.3839 -1.1541
   98SAPC  H10S 9700   0.550   2.166   3.478  2.4119 -0.0267 -0.8172
   98SAPC  C211 9701   0.641   2.316   3.597 -0.0314  0.0516  0.5958
   98SAPC  H11R 9702   0.631   2.424   3.617  2.3319  0.4840 -0.3987
   98SAPC  C212 9703   0.733   2.240   3.653 -0.1675 -0.3072 -0.5425
   98SAPC  H12R 9704   0.801   2.294   3.720  0.0789 -1.6887  0.3194
   98SAPC  C213 9705   0.765   2.092   3.650 -0.0218  0.3969  0.1581
   98SAPC  H13R 9706   0.855   2.073   3.588  0.5180  1.8526  0.4746
   98SAPC  H13S 9707   0.681   2.045   3.594 -1.1818  3.6943 -0.9659
   98SAPC  C214 9708   0.791   2.029   3.789  0.3611  0.1341  0.3559
   98SAPC  H14R 9709   0.719   1.954   3.822  1.2126  0.0393  2.0460
   98SAPC  C215 9710   0.895   2.051   3.871 -0.6193  0.2456  0.3062
   98SAPC  H15R 9711   0.887   1.999   3.968  0.5369  1.8570  1.2947
   98SAPC  C216 9712   1.020   2.134   3.845  0.0845  0.0050 -0.6899
   98SAPC  H16R 9713   1.004   2.216   3.771  1.3562  0.5761 -0.3402
   98SAPC  H16S 9714   1.104   2.073   3.805  0.5017  0.1559 -0.0456
   98SAPC  C217 9715   1.074   2.209   3.971 -0.2326 -0.6489  1.4398
   98SAPC  H17R 9716   1.005   2.290   4.005  1.6011  1.4433  0.3478
   98SAPC  H17S 9717   1.170   2.260   3.947 -0.9429  0.5316  1.0170
   98SAPC  C218 9718   1.092   2.117   4.100  0.2299  0.0632 -0.0187
   98SAPC  H18R 9719   0.998   2.061   4.120 -0.4192  0.8134 -0.9649
   98SAPC  H18S 9720   1.119   2.192   4.177  1.3388 -1.7203  1.3863
   98SAPC  C219 9721   1.200   2.007   4.092  0.5042  0.3473 -0.3652
   98SAPC  H19R 9722   1.298   2.055   4.069  0.5399  0.8174  0.7073
   98SAPC  H19S 9723   1.157   1.938   4.017 -0.7058  2.0788 -1.2851
   98SAPC  C220 9724   1.223   1.922   4.223  0.2648 -0.2580  0.6762
   98SAPC  H20R 9725   1.312   1.861   4.199 -0.8382 -1.6952  0.1289
   98SAPC  H20S 9726   1.130   1.870   4.254 -0.8948  0.6377 -1.1371
   98SAPC  H20T 9727   1.242   1.995   4.304  1.1615 -0.9267  1.0747
   98SAPC   C33 9728   0.824   2.816   3.113  0.0493 -0.7832  0.1814
   98SAPC   H3X 9729   0.725   2.832   3.065  1.2307  2.9924 -1.1727
   98SAPC   H3Y 9730   0.855   2.910   3.162 -2.3813 -0.8331  1.9257
   98SAPC   C34 9731   0.816   2.714   3.219  0.2834  0.3836 -0.6085
   98SAPC   H4X 9732   0.915   2.679   3.256  0.5964 -0.9485 -2.6272
   98SAPC   H4Y 9733   0.769   2.620   3.182 -1.2251 -1.6999  5.8622
   98SAPC   C35 9734   0.720   2.761   3.328  0.0479  0.5669 -0.2238
   98SAPC   H5X 9735   0.626   2.791   3.277  0.2198 -1.3917 -1.7454
   98SAPC   H5Y 9736   0.769   2.846   3.381  1.1005 -0.4514  0.4555
   98SAPC   C36 9737   0.666   2.653   3.431  0.2898  0.3018  0.4387
   98SAPC   H6X 9738   0.758   2.593   3.448  1.3272  0.8451 -2.9326
   98SAPC   H6Y 9739   0.593   2.594   3.371  0.3523 -0.0161  0.6725
   98SAPC   C37 9740   0.597   2.701   3.557 -0.5712  0.0764  0.5562
   98SAPC   H7X 9741   0.662   2.774   3.612 -0.2659 -0.6684  1.2013
   98SAPC   H7Y 9742   0.575   2.611   3.618  1.7542 -1.0481 -0.2167
   98SAPC   C38 9743   0.456   2.755   3.530  0.3214  0.2118  1.0443
   98SAPC   H8X 9744   0.411   2.674   3.468 -0.3756 -0.8560  2.9091
   98SAPC   H8Y 9745   0.467   2.838   3.457 -1.5820 -0.1508  0.3133
   98SAPC   C39 9746   0.377   2.784   3.659 -0.0763 -0.0632 -0.7872
   98SAPC   H9X 9747   0.385   2.700   3.730  1.6090 -0.5166 -1.4997
   98SAPC   H9Y 9748   0.266   2.790   3.649 -0.3685 -0.8831  1.6560
   98SAPC  C310 9749   0.418   2.906   3.741  0.6643 -0.3889  0.1082
   98SAPC  H10X 9750   0.435   3.000   3.685  0.1892 -0.4108 -0.0789
   98SAPC  H10Y 9751   0.520   2.887   3.781  1.4974  2.1105 -0.7247
   98SAPC  C311 9752   0.333   2.923   3.862  0.3625 -0.0600  0.7262
   98SAPC  H11X 9753   0.338   2.831   3.923  0.6207 -1.8100 -1.8532
   98SAPC  H11Y 9754   0.227   2.931   3.828  1.2723  1.8932 -1.7909
   98SAPC  C312 9755   0.370   3.039   3.948  0.1959  0.4248 -0.3202
   98SAPC  H12X 9756   0.345   3.139   3.908 -0.1017  0.7119  0.5572
   98SAPC  H12Y 9757   0.479   3.032   3.964  0.4303 -0.4775 -2.1516
   98SAPC  C313 9758   0.314   3.031   4.097 -0.2711  0.1175 -0.0792
   98SAPC  H13X 9759   0.348   3.118   4.158 -0.7417 -1.4308  2.4503
   98SAPC  H13Y 9760   0.352   2.937   4.142 -0.5641  0.4920  0.9509
   98SAPC  C314 9761   0.163   3.019   4.101  0.0929  0.0945 -0.2532
   98SAPC  H14X 9762   0.123   2.917   4.082 -0.5804  0.4211 -0.6334
   98SAPC  H14Y 9763   0.129   3.086   4.018  0.2089 -1.1298 -1.3056
   98SAPC  C315 9764   0.102   3.090   4.223 -0.1126  0.1733  0.0327
   98SAPC  H15X 9765  -0.008   3.080   4.209 -0.1808  0.1826  0.5493
   98SAPC  H15Y 9766   0.131   3.197   4.230  0.4605 -0.0436  1.0684
   98SAPC  C316 9767   0.124   3.020   4.356 -0.2542  0.5401 -0.2404
   98SAPC  H16X 9768   0.227   3.022   4.397 -1.3708  0.2317  2.6770
   98SAPC  H16Y 9769   0.101   2.913   4.335  1.9174  0.1581 -0.8063
   98SAPC  C317 9770   0.029   3.048   4.473  0.1974  0.2710 -0.0825
   98SAPC  H17X 9771   0.055   2.995   4.567  0.8302  0.4799 -0.1351
   98SAPC  H17Y 9772  -0.063   3.000   4.433  0.5252 -1.0973  0.7840
   98SAPC  C318 9773   0.013   3.193   4.508 -0.0314 -0.0978 -0.5274
   98SAPC  H18X 9774   0.111   3.231   4.545 -0.6466  0.8864  0.1514
   98SAPC  H18Y 9775  -0.066   3.200   4.586 -0.4897  0.4135 -1.0306
   98SAPC  H18Z 9776  -0.019   3.252   4.419  0.9191  0.9485 -0.1857
   99SAPC     N 9777   2.055   7.027   2.092 -0.1394 -0.5688 -0.4468
   99SAPC   C12 9778   1.917   7.005   2.134 -0.1775 -0.4212  0.3621
   99SAPC  H12A 9779   1.886   6.916   2.080  0.0423 -0.4114  0.2168
   99SAPC  H12B 9780   1.845   7.077   2.098  1.4827  0.6735 -0.8578
   99SAPC   C13 9781   2.152   6.922   2.136  0.3861 -0.3118  0.2222
   99SAPC  H13A 9782   2.160   6.908   2.243 -0.9887  0.0524  0.3758
   99SAPC  H13B 9783   2.125   6.826   2.095  0.9029  0.0072 -0.8597
   99SAPC  H13C 9784   2.250   6.933   2.092 -0.4547 -2.3214 -2.2682
   99SAPC   C14 9785   2.053   7.043   1.944  0.4535 -0.1692  0.3320
   99SAPC  H14A 9786   1.998   6.966   1.892  0.9865 -1.2996  1.4163
   99SAPC  H14B 9787   1.991   7.127   1.917  0.3355 -0.8176 -1.4473
   99SAPC  H14C 9788   2.153   7.051   1.906 -0.0217  1.6263 -0.6214
   99SAPC   C15 9789   2.100   7.159   2.144 -0.2623  0.3828  0.0160
   99SAPC  H15A 9790   2.062   7.163   2.246  0.0783 -0.1817  0.1650
   99SAPC  H15B 9791   2.207   7.155   2.158 -0.1378  1.9155 -0.3302
   99SAPC  H15C 9792   2.082   7.246   2.082  1.8639  0.6874 -0.2127
   99SAPC   C11 9793   1.885   6.981   2.288 -0.0019  0.1808 -0.0645
   99SAPC  H11A 9794   1.973   6.928   2.329  1.2651  0.8837 -1.8265
   99SAPC  H11B 9795   1.790   6.924   2.296 -0.1298  0.5139  0.8808
   99SAPC     P 9796   1.749   7.196   2.358  0.1391 -0.0982 -0.2445
   99SAPC   O13 9797   1.783   7.322   2.291  0.3240  0.7510  0.4127
   99SAPC   O14 9798   1.627   7.125   2.314 -0.0411 -0.3535 -0.4983
   99SAPC   O12 9799   1.880   7.105   2.357 -0.5211 -0.0066 -0.2306
   99SAPC   O11 9800   1.726   7.228   2.508  0.1601 -0.2100 -0.0421
   99SAPC    C1 9801   1.830   7.265   2.593 -0.4785 -0.4512  0.0019
   99SAPC    HA 9802   1.929   7.285   2.545 -1.2601 -1.9469 -2.3306
   99SAPC    HB 9803   1.801   7.365   2.631  1.2296 -0.1973  0.6983
   99SAPC    C2 9804   1.848   7.181   2.722  0.0781  0.1452 -0.5362
   99SAPC    HS 9805   1.925   7.228   2.786  1.6469 -1.8846 -0.8869
   99SAPC   O21 9806   1.896   7.045   2.708 -0.0261  0.2626  0.7688
   99SAPC   C21 9807   2.013   7.030   2.649  0.9788 -0.2212 -0.3266
   99SAPC   O22 9808   2.095   7.120   2.631 -0.3218 -0.1012 -0.4696
   99SAPC   C22 9809   2.035   6.889   2.603  0.3458 -0.2774  0.1441
   99SAPC   H2R 9810   1.944   6.844   2.559 -0.1818  0.7140  0.2186
   99SAPC   H2S 9811   2.116   6.880   2.527  1.0897 -1.8365  1.0804
   99SAPC    C3 9812   1.714   7.174   2.797 -0.2344  0.2483 -0.0075
   99SAPC    HX 9813   1.634   7.140   2.728 -0.5579  1.5878 -0.2935
   99SAPC    HY 9814   1.686   7.273   2.838 -1.1322 -0.4322  1.0674
   99SAPC   O31 9815   1.731   7.084   2.914 -0.3200  0.3389  0.3550
   99SAPC   C31 9816   1.695   6.962   2.900 -0.3713 -0.3122 -0.6606
   99SAPC   O32 9817   1.646   6.914   2.798 -0.2371 -0.3164 -0.1058
   99SAPC   C32 9818   1.703   6.882   3.023  0.1683  0.5923  0.1250
   99SAPC   H2X 9819   1.741   6.947   3.104 -0.1699  2.3649 -1.1050
   99SAPC   H2Y 9820   1.768   6.799   2.987 -2.3744 -0.7904 -1.4186
   99SAPC   C23 9821   2.063   6.790   2.716  0.6523 -0.6502  0.4353
   99SAPC   H3R 9822   2.078   6.689   2.673  0.3509  0.3948 -2.2391
   99SAPC   H3S 9823   1.972   6.784   2.779 -0.5588  0.5124 -1.1707
   99SAPC   C24 9824   2.191   6.825   2.796 -0.1320 -0.2572 -0.3966
   99SAPC   H4R 9825   2.168   6.927   2.832  2.4739 -0.5576  2.3338
   99SAPC   H4S 9826   2.267   6.849   2.718 -1.1161  0.9294 -0.9890
   99SAPC   C25 9827   2.228   6.718   2.899 -0.9969 -0.3703 -0.9770
   99SAPC   H5R 9828   2.299   6.645   2.856 -0.6403 -0.3949 -0.3561
   99SAPC   C26 9829   2.180   6.715   3.025 -0.4611 -0.1206 -0.4157
   99SAPC   H6R 9830   2.218   6.646   3.102 -0.1728 -0.1256 -0.5636
   99SAPC   C27 9831   2.081   6.812   3.090 -0.6237  0.6118  0.3333
   99SAPC   H7R 9832   2.047   6.891   3.019  0.7262 -0.1000 -1.1419
   99SAPC   H7S 9833   2.152   6.861   3.160 -0.0461  0.0594  0.1428
   99SAPC   C28 9834   1.977   6.735   3.151  0.5509 -0.3452 -0.9036
   99SAPC   H8R 9835   1.920   6.670   3.083  0.7513 -1.8191  0.3345
   99SAPC   C29 9836   1.934   6.735   3.283 -0.0110 -0.3068 -0.0550
   99SAPC   H9R 9837   1.851   6.671   3.315 -0.1921  0.0486  0.1961
   99SAPC  C210 9838   1.991   6.828   3.391 -0.5276 -0.0348 -0.0537
   99SAPC  H10R 9839   2.099   6.851   3.376 -0.4030 -1.4381 -1.3799
   99SAPC  H10S 9840   1.982   6.780   3.491 -3.4169 -0.1972 -0.3543
   99SAPC  C211 9841   1.920   6.960   3.396 -0.2197  0.2507  0.4656
   99SAPC  H11R 9842   1.974   7.051   3.365  0.0680  0.5332  1.7335
   99SAPC  C212 9843   1.804   6.980   3.458 -0.0212 -0.3847  0.1154
   99SAPC  H12R 9844   1.761   7.081   3.470  1.2370  0.6252 -3.3948
   99SAPC  C213 9845   1.730   6.878   3.534  0.5311  1.4146  0.2386
   99SAPC  H13R 9846   1.774   6.881   3.636  0.1680 -0.9081  0.4893
   99SAPC  H13S 9847   1.742   6.772   3.501  1.1870  2.0946 -1.7802
   99SAPC  C214 9848   1.581   6.919   3.547 -0.1407  0.1166  0.3113
   99SAPC  H14R 9849   1.520   6.871   3.469  0.3465  0.3915 -0.2401
   99SAPC  C215 9850   1.519   6.982   3.646 -0.1519 -0.1215 -0.1436
   99SAPC  H15R 9851   1.413   7.000   3.626  0.0910  0.1651 -1.1944
   99SAPC  C216 9852   1.554   7.042   3.776 -0.3379  0.8219 -0.1289
   99SAPC  H16R 9853   1.473   7.011   3.845 -0.4194 -0.4192 -0.7735
   99SAPC  H16S 9854   1.564   7.153   3.780  0.3317  0.6928  2.3803
   99SAPC  C217 9855   1.694   7.002   3.833  0.6354  0.0764  0.3894
   99SAPC  H17R 9856   1.772   7.032   3.760 -0.8322  1.8811 -0.4645
   99SAPC  H17S 9857   1.701   6.896   3.866 -0.9251  0.0782  0.7556
   99SAPC  C218 9858   1.728   7.092   3.957 -0.4299  0.1556  0.7316
   99SAPC  H18R 9859   1.742   7.190   3.906 -1.8253  0.6062  1.2063
   99SAPC  H18S 9860   1.828   7.050   3.983 -0.6766 -0.2786  0.9868
   99SAPC  C219 9861   1.632   7.096   4.073 -0.0187  0.1768 -0.3050
   99SAPC  H19R 9862   1.632   6.997   4.123  0.1661  0.3916  0.1269
   99SAPC  H19S 9863   1.533   7.134   4.039  0.1744  1.1928  0.2304
   99SAPC  C220 9864   1.683   7.183   4.189  0.9034  0.0689  0.2962
   99SAPC  H20R 9865   1.787   7.152   4.216  0.1321 -2.8855  0.1274
   99SAPC  H20S 9866   1.631   7.162   4.285 -0.3723  1.6179 -0.0459
   99SAPC  H20T 9867   1.671   7.289   4.161 -1.7431  0.2176  1.9009
   99SAPC   C33 9868   1.563   6.824   3.055 -0.1568 -0.5030  0.0611
   99SAPC   H3X 9869   1.525   6.762   2.971  1.2439  1.3301 -1.9547
   99SAPC   H3Y 9870   1.500   6.913   3.075 -2.3351 -1.8485 -0.6320
   99SAPC   C34 9871   1.557   6.734   3.187  0.1515  0.1292  0.1207
   99SAPC   H4X 9872   1.601   6.795   3.269  1.1991  0.5133 -0.7192
   99SAPC   H4Y 9873   1.640   6.661   3.174 -1.4755 -1.6782 -0.2991
   99SAPC   C35 9874   1.420   6.668   3.227  0.1721  0.0623  0.0569
   99SAPC   H5X 9875   1.374   6.623   3.137  0.2253  0.5346 -0.2098
   99SAPC   H5Y 9876   1.347   6.748   3.254  0.4212  0.0209  0.8802
   99SAPC   C36 9877   1.443   6.574   3.339  0.5002 -0.1312 -0.4548
   99SAPC   H6X 9878   1.507   6.624   3.415  1.2970 -1.1825 -0.4270
   99SAPC   H6Y 9879   1.497   6.490   3.292  3.0036  0.0815  1.9293
   99SAPC   C37 9880   1.321   6.531   3.416 -0.6574  1.1354 -0.0779
   99SAPC   H7X 9881   1.360   6.473   3.502 -1.4474  1.3854  0.4518
   99SAPC   H7Y 9882   1.269   6.458   3.351  1.0350  0.2769 -0.4787
   99SAPC   C38 9883   1.234   6.641   3.476 -0.4899 -0.8646  0.1629
   99SAPC   H8X 9884   1.192   6.707   3.397  1.7767 -0.1333 -0.4514
   99SAPC   H8Y 9885   1.298   6.707   3.538 -1.8048  0.7251 -0.1443
   99SAPC   C39 9886   1.131   6.578   3.563 -0.0956  0.1428 -0.4082
   99SAPC   H9X 9887   1.179   6.521   3.645 -2.9833 -1.7467  0.0645
   99SAPC   H9Y 9888   1.071   6.511   3.497 -1.4070  2.3365 -1.5296
   99SAPC  C310 9889   1.033   6.684   3.618 -0.1802  0.2917 -0.2019
   99SAPC  H10X 9890   0.992   6.732   3.527  1.6387  1.5524 -0.3950
   99SAPC  H10Y 9891   1.102   6.757   3.666  1.6332 -0.1808 -2.0233
   99SAPC  C311 9892   0.919   6.635   3.717 -0.1232  0.1702 -0.0052
   99SAPC  H11X 9893   0.899   6.529   3.691 -1.1056  0.7984 -1.8917
   99SAPC  H11Y 9894   0.826   6.692   3.695 -1.4893 -2.3457 -0.9170
   99SAPC  C312 9895   0.949   6.650   3.864 -0.9709 -0.6976 -0.4760
   99SAPC  H12X 9896   0.994   6.747   3.894 -0.1864 -1.4504  0.8586
   99SAPC  H12Y 9897   1.014   6.567   3.901  0.3651  0.3861 -0.3338
   99SAPC  C313 9898   0.821   6.632   3.940  0.3059  0.0092 -0.4850
   99SAPC  H13X 9899   0.763   6.723   3.912  2.4414  0.8895 -2.1670
   99SAPC  H13Y 9900   0.841   6.628   4.050 -2.4166 -0.6686  0.0403
   99SAPC  C314 9901   0.733   6.511   3.900 -0.1031  0.1340  0.1408
   99SAPC  H14X 9902   0.786   6.413   3.896  0.1468  0.3584 -3.5901
   99SAPC  H14Y 9903   0.702   6.524   3.794  0.9889 -2.2469 -0.5157
   99SAPC  C315 9904   0.608   6.498   3.990  0.4700  0.6265  0.5597
   99SAPC  H15X 9905   0.522   6.445   3.943  1.2239 -0.0733 -0.0471
   99SAPC  H15Y 9906   0.570   6.600   4.013 -0.2686  0.0156  2.1392
   99SAPC  C316 9907   0.651   6.437   4.126 -0.2464  0.6465  1.0318
   99SAPC  H16X 9908   0.720   6.507   4.179  0.8149 -0.3447  0.9850
   99SAPC  H16Y 9909   0.715   6.347   4.115  0.4238  1.2264  0.0001
   99SAPC  C317 9910   0.543   6.405   4.225 -0.0019  0.0316  0.0676
   99SAPC  H17X 9911   0.587   6.388   4.326  2.6032  0.3815 -0.9459
   99SAPC  H17Y 9912   0.496   6.308   4.199 -1.4778  1.0241 -1.0259
   99SAPC  C318 9913   0.437   6.510   4.235 -0.4449  0.2140 -0.2876
   99SAPC  H18X 9914   0.365   6.516   4.150 -0.6521 -1.0231 -0.2052
   99SAPC  H18Y 9915   0.480   6.611   4.251 -0.1876  0.1148 -0.3611
   99SAPC  H18Z 9916   0.374   6.491   4.324  0.4253  0.1593  0.3224
  100SAPC     N 9917   0.181   7.295   1.987  0.0426  0.5121  0.3787
  100SAPC   C12 9918   0.252   7.212   2.094  0.3142  1.2226 -0.1084
  100SAPC  H12A 9919   0.353   7.193   2.064  0.3362 -1.6439  1.5664
  100SAPC  H12B 9920   0.197   7.118   2.098 -0.2862  1.5831  0.1792
  100SAPC   C13 9921   0.048   7.330   2.040  1.0029 -0.1729 -0.2235
  100SAPC  H13A 9922   0.051   7.370   2.140  0.9566  1.3850 -0.8415
  100SAPC  H13B 9923  -0.000   7.411   1.987  1.8393 -0.3059 -1.1950
  100SAPC  H13C 9924  -0.012   7.240   2.047 -2.5176  2.1998  2.0706
  100SAPC   C14 9925   0.258   7.425   1.958  0.2568 -0.3193 -0.6334
  100SAPC  H14A 9926   0.264   7.488   2.046 -0.8483  0.2465 -0.9543
  100SAPC  H14B 9927   0.360   7.398   1.932  0.5889  1.4828 -1.2834
  100SAPC  H14C 9928   0.220   7.485   1.876 -0.0114 -0.7014 -0.7894
  100SAPC   C15 9929   0.176   7.218   1.858 -0.1247 -0.3489 -0.1599
  100SAPC  H15A 9930   0.121   7.278   1.788  2.1944  2.7336  0.5410
  100SAPC  H15B 9931   0.277   7.197   1.825  0.6525 -1.2220  2.5566
  100SAPC  H15C 9932   0.112   7.133   1.874  0.8681 -0.9130  1.0018
  100SAPC   C11 9933   0.255   7.274   2.244  0.3678  0.8412  0.0922
  100SAPC  H11A 9934   0.329   7.203   2.288  1.2831  0.5373 -1.9114
  100SAPC  H11B 9935   0.153   7.269   2.287  0.5885 -2.1816  0.3800
  100SAPC     P 9936   0.420   7.468   2.311 -0.0870 -0.4583  0.1280
  100SAPC   O13 9937   0.542   7.406   2.258  0.2417  0.1140  0.2993
  100SAPC   O14 9938   0.407   7.618   2.292  0.2380  0.1575  0.2589
  100SAPC   O12 9939   0.300   7.403   2.241  0.3553 -0.6692 -0.0493
  100SAPC   O11 9940   0.417   7.429   2.466 -0.0708  0.3987 -0.7240
  100SAPC    C1 9941   0.313   7.466   2.551 -0.0838 -0.6107  0.3117
  100SAPC    HA 9942   0.218   7.410   2.534 -0.3394 -0.5232  1.3950
  100SAPC    HB 9943   0.341   7.436   2.654 -0.4785 -0.9625  0.3189
  100SAPC    C2 9944   0.282   7.619   2.570 -0.3950 -0.1439 -0.2645
  100SAPC    HS 9945   0.261   7.658   2.468 -1.2142 -0.0656 -0.0697
  100SAPC   O21 9946   0.401   7.686   2.616  0.8484 -0.1531 -0.1801
  100SAPC   C21 9947   0.412   7.817   2.601  0.1385  0.0104 -0.5466
  100SAPC   O22 9948   0.320   7.890   2.578 -0.0108  0.0829  0.2576
  100SAPC   C22 9949   0.557   7.860   2.643  0.1821 -0.0844  0.1690
  100SAPC   H2R 9950   0.597   7.759   2.663  0.5761  0.0577  0.1100
  100SAPC   H2S 9951   0.622   7.901   2.563  1.1323  1.1588  1.5469
  100SAPC    C3 9952   0.157   7.641   2.658  0.5191 -0.2952  0.5125
  100SAPC    HX 9953   0.072   7.588   2.609  0.9477 -0.2521 -0.2762
  100SAPC    HY 9954   0.114   7.743   2.649  1.6870 -0.0189 -2.5138
  100SAPC   O31 9955   0.176   7.604   2.796 -0.4275  0.3779 -0.4716
  100SAPC   C31 9956   0.120   7.493   2.835 -0.2475 -0.1833  0.4306
  100SAPC   O32 9957   0.060   7.415   2.769 -0.2466  0.2207 -0.4871
  100SAPC   C32 9958   0.151   7.469   2.979 -0.1837 -0.4292  0.0684
  100SAPC   H2X 9959   0.113   7.372   3.015 -1.0396  0.4764  1.6703
  100SAPC   H2Y 9960   0.101   7.544   3.044 -0.3699  0.4778 -1.1067
  100SAPC   C23 9961   0.568   7.962   2.761  0.2450 -0.0136  0.5129
  100SAPC   H3R 9962   0.499   8.045   2.735 -0.0769  0.1698  1.9030
  100SAPC   H3S 9963   0.670   8.004   2.769  0.2043 -0.0257  1.1414
  100SAPC   C24 9964   0.535   7.902   2.903  0.6115  0.1435 -0.4746
  100SAPC   H4R 9965   0.432   7.859   2.901  0.4323  0.5225  0.3862
  100SAPC   H4S 9966   0.531   7.993   2.968  3.1622  0.0728 -0.1825
  100SAPC   C25 9967   0.637   7.809   2.965 -0.6449  0.4553 -0.2155
  100SAPC   H5R 9968   0.699   7.748   2.898  1.6533  1.2779  1.1077
  100SAPC   C26 9969   0.632   7.769   3.100  0.7216  0.0006  0.0843
  100SAPC   H6R 9970   0.720   7.723   3.148 -0.4548 -1.8099  0.5254
  100SAPC   C27 9971   0.534   7.817   3.198  0.8007 -0.3399 -0.0733
  100SAPC   H7R 9972   0.511   7.739   3.273 -0.5604  0.3708  0.2581
  100SAPC   H7S 9973   0.438   7.821   3.142 -0.7510  1.2993  2.5910
  100SAPC   C28 9974   0.580   7.944   3.262 -0.0383 -0.0489 -0.1759
  100SAPC   H8R 9975   0.530   8.018   3.198 -0.3594 -2.5119 -2.8741
  100SAPC   C29 9976   0.661   7.971   3.367  0.0305 -0.4957 -0.6915
  100SAPC   H9R 9977   0.668   8.078   3.390 -0.3440 -0.4546 -0.7611
  100SAPC  C210 9978   0.735   7.873   3.457 -0.3517 -0.1924  0.4687
  100SAPC  H10R 9979   0.835   7.909   3.487 -0.9310  0.8036  1.2463
  100SAPC  H10S 9980   0.763   7.776   3.411 -0.8713 -0.8856  1.5859
  100SAPC  C211 9981   0.653   7.842   3.578  0.1256 -0.8377  0.2119
  100SAPC  H11R 9982   0.574   7.766   3.571  0.0208 -0.8512  1.5317
  100SAPC  C212 9983   0.670   7.919   3.689  0.0818 -0.3847 -0.1846
  100SAPC  H12R 9984   0.611   7.891   3.778 -0.4874 -1.5981 -0.9381
  100SAPC  C213 9985   0.762   8.043   3.694  0.9015 -0.1401 -0.2307
  100SAPC  H13R 9986   0.754   8.098   3.598  1.7188 -2.0223 -1.4241
  100SAPC  H13S 9987   0.867   8.006   3.700  0.4785 -1.5131 -0.8436
  100SAPC  C214 9988   0.728   8.145   3.800  0.1632 -0.6685  0.1309
  100SAPC  H14R 9989   0.784   8.120   3.891 -0.8547  1.5375  1.3866
  100SAPC  C215 9990   0.642   8.245   3.798  0.0688  0.1055 -0.2619
  100SAPC  H15R 9991   0.626   8.301   3.891  0.3097 -1.1076  0.5123
  100SAPC  C216 9992   0.549   8.278   3.676  0.2490 -0.0495  0.0250
  100SAPC  H16R 9993   0.560   8.206   3.592 -0.2084 -0.1211  0.0261
  100SAPC  H16S 9994   0.580   8.374   3.630 -0.6650  0.3883  0.3177
  100SAPC  C217 9995   0.398   8.284   3.697  0.3863 -0.0645  0.4959
  100SAPC  H17R 9996   0.370   8.383   3.737 -1.1133 -0.3957  0.3018
  100SAPC  H17S 9997   0.369   8.200   3.763  2.7202 -0.9437  0.4534
  100SAPC  C218 9998   0.327   8.267   3.569 -0.1831  0.1748  0.2787
  100SAPC  H18R 9999   0.325   8.157   3.555  3.1302  0.0029  0.7805
  100SAPC  H18S10000   0.383   8.310   3.483  0.0622 -0.7709 -0.0399
  100SAPC  C21910001   0.189   8.321   3.565 -0.1153 -0.2737  0.1101
  100SAPC  H19R10002   0.137   8.298   3.661  2.2963  0.5106  1.6677
  100SAPC  H19S10003   0.126   8.280   3.484  2.4538 -0.1009 -2.0630
  100SAPC  C22010004   0.189   8.469   3.558 -0.5570 -0.3720 -0.4127
  100SAPC  H20R10005   0.089   8.516   3.571 -0.4212 -0.1194 -0.2940
  100SAPC  H20S10006   0.230   8.494   3.458  1.5718  1.1940  0.8362
  100SAPC  H20T10007   0.259   8.505   3.635  0.0712  2.2890 -2.1753
  100SAPC   C3310008   0.302   7.476   3.006 -0.4176 -0.5003 -0.6482
  100SAPC   H3X10009   0.334   7.581   2.986 -0.7985 -0.1686  0.4709
  100SAPC   H3Y10010   0.357   7.417   2.929  0.8138 -1.2711  0.7895
  100SAPC   C3410011   0.354   7.441   3.147  0.2526  0.8737  0.8537
  100SAPC   H4X10012   0.457   7.481   3.162  0.4088  1.6834 -2.0742
  100SAPC   H4Y10013   0.345   7.332   3.163  0.8289  0.6861 -0.0610
  100SAPC   C3510014   0.258   7.489   3.261  1.0788 -0.5553  1.1673
  100SAPC   H5X10015   0.170   7.422   3.253  0.0234  0.7330  1.8568
  100SAPC   H5Y10016   0.225   7.593   3.245  0.1036 -0.5951  2.9398
  100SAPC   C3610017   0.308   7.493   3.404 -0.5451 -0.1178 -0.1122
  100SAPC   H6X10018   0.232   7.539   3.471  0.6516  0.3646  0.9449
  100SAPC   H6Y10019   0.395   7.561   3.420 -0.8176  0.8278 -2.5282
  100SAPC   C3710020   0.341   7.349   3.457 -0.1866 -0.6309  0.2285
  100SAPC   H7X10021   0.423   7.301   3.399 -2.3391 -2.5547 -1.3186
  100SAPC   H7Y10022   0.249   7.293   3.430  1.0987 -2.3312 -0.6739
  100SAPC   C3810023   0.364   7.349   3.610  0.4157  1.5814 -0.0415
  100SAPC   H8X10024   0.344   7.248   3.653  0.6613  0.7200 -1.9244
  100SAPC   H8Y10025   0.288   7.420   3.649 -2.7600 -2.0761  0.8236
  100SAPC   C3910026   0.494   7.392   3.664 -0.5047 -0.3074 -0.4175
  100SAPC   H9X10027   0.538   7.477   3.609  0.2209 -0.1537  0.3905
  100SAPC   H9Y10028   0.567   7.311   3.643 -0.3109  0.0418 -1.0831
  100SAPC  C31010029   0.495   7.431   3.813 -0.1953  0.7837  0.0041
  100SAPC  H10X10030   0.595   7.411   3.857 -1.1056  0.2200  1.8536
  100SAPC  H10Y10031   0.424   7.364   3.866 -0.6454  0.3692 -1.1077
  100SAPC  C31110032   0.465   7.572   3.851  0.1040  0.1290  0.1368
  100SAPC  H11X10033   0.366   7.619   3.831 -0.3861 -0.5219  0.9814
  100SAPC  H11Y10034   0.529   7.626   3.779 -0.3211 -0.0307 -0.3614
  100SAPC  C31210035   0.510   7.618   3.994  0.8479  0.2164  0.3691
  100SAPC  H12X10036   0.517   7.729   4.000  3.9848  0.0456  0.3911
  100SAPC  H12Y10037   0.608   7.574   4.020  0.1430 -1.1199  0.8176
  100SAPC  C31310038   0.426   7.560   4.110 -1.2099  0.2905  0.2623
  100SAPC  H13X10039   0.384   7.458   4.094 -0.6366 -0.0763  1.0445
  100SAPC  H13Y10040   0.335   7.624   4.119 -2.2790 -1.0000 -1.1450
  100SAPC  C31410041   0.505   7.577   4.245 -0.0331  0.3650 -0.3487
  100SAPC  H14X10042   0.527   7.684   4.264 -1.4323  0.8100 -1.0721
  100SAPC  H14Y10043   0.605   7.537   4.217 -1.9806 -5.4638  0.2714
  100SAPC  C31510044   0.441   7.513   4.363 -0.0486 -0.2350  0.0550
  100SAPC  H15X10045   0.436   7.403   4.343 -0.7016 -0.3470  0.8224
  100SAPC  H15Y10046   0.336   7.550   4.356 -0.0398 -0.2461 -0.1500
  100SAPC  C31610047   0.507   7.528   4.500 -0.1455 -0.4892 -0.0149
  100SAPC  H16X10048   0.496   7.636   4.524 -1.7829 -0.2573 -1.6708
  100SAPC  H16Y10049   0.616   7.505   4.500 -0.4241 -1.8540  1.1206
  100SAPC  C31710050   0.440   7.442   4.609 -0.5481  0.5603  0.1596
  100SAPC  H17X10051   0.381   7.358   4.566  0.0701  1.2139 -2.0528
  100SAPC  H17Y10052   0.369   7.508   4.663 -0.3193 -0.5478  1.8685
  100SAPC  C31810053   0.547   7.371   4.705  0.0366 -0.0917 -0.1384
  100SAPC  H18X10054   0.597   7.291   4.647  0.3441  0.5077 -0.7035
  100SAPC  H18Y10055   0.506   7.329   4.800  1.5879 -2.3406 -0.4360
  100SAPC  H18Z10056   0.618   7.450   4.737 -0.0183 -0.0102 -0.2204
  101OSM      N10057   3.974   3.271   6.213 -0.2367  0.1509  0.4543
  101OSM    C1510058   3.951   3.175   6.095 -0.8560 -0.3016 -0.1397
  101OSM   H15A10059   3.926   3.235   6.009 -0.3714  0.3917  0.1990
  101OSM   H15B10060   3.870   3.104   6.103 -2.0139  0.5622 -3.6114
  101OSM   H15C10061   4.042   3.119   6.078  1.5001  2.5534  2.3900
  101OSM    C1410062   4.098   3.352   6.175  0.1900 -0.1518  0.2767
  101OSM   H14A10063   4.128   3.418   6.255 -0.8605 -1.8185  2.1121
  101OSM   H14B10064   4.072   3.424   6.099  0.4538 -0.7418 -0.3846
  101OSM   H14C10065   4.185   3.295   6.146  1.0830  2.1427 -1.6938
  101OSM    C1310066   3.861   3.360   6.220  0.2036  0.1178  0.4246
  101OSM   H13A10067   3.769   3.313   6.254  0.3579 -1.2407 -0.9404
  101OSM   H13B10068   3.827   3.396   6.124 -1.2055 -1.7925  0.1544
  101OSM   H13C10069   3.888   3.452   6.269  0.2244  1.0408 -1.2675
  101OSM    C1210070   4.002   3.196   6.345 -0.6165 -0.0433 -0.3196
  101OSM   H12A10071   3.995   3.268   6.426 -1.2086  0.0461 -0.4489
  101OSM   H12B10072   4.108   3.177   6.345 -0.4265  0.9805 -0.0436
  101OSM    C1110073   3.926   3.072   6.385  0.4978  0.1935 -0.4898
  101OSM   H11A10074   3.818   3.098   6.374  0.5228  1.2727  1.5951
  101OSM   H11B10075   3.933   3.056   6.495 -0.4065 -0.5666 -0.5295
  101OSM      P10076   3.892   2.819   6.341  0.0439 -0.3596 -0.2466
  101OSM    O1310077   3.911   2.717   6.235  0.2442 -0.2860 -0.3163
  101OSM    O1410078   3.935   2.771   6.471  0.4234 -0.1816 -0.0335
  101OSM    O1110079   3.743   2.853   6.345 -0.3600 -0.4033 -0.1643
  101OSM    O1210080   3.967   2.956   6.304  0.3250 -0.4469 -0.0733
  101OSM    C1S10081   3.677   2.903   6.233  0.5639  0.5087  0.3198
  101OSM    H1S10082   3.727   2.997   6.204  1.9725 -0.0032  1.0118
  101OSM    H1T10083   3.580   2.943   6.269 -0.6531 -0.3216 -1.9609
  101OSM     NF10084   3.587   2.891   6.002  0.5438 -0.2538  0.6353
  101OSM    HNF10085   3.492   2.919   6.008  0.7091  0.6029 -0.5999
  101OSM    C2S10086   3.642   2.809   6.111 -0.7524 -0.4076 -0.1639
  101OSM    H2S10087   3.729   2.757   6.064 -1.0696  1.1911 -2.6370
  101OSM    C3S10088   3.549   2.701   6.168  0.3070  0.3257 -0.0429
  101OSM    H3S10089   3.452   2.753   6.184  0.2642  0.5077 -0.8987
  101OSM     O310090   3.577   2.639   6.293 -0.5664 -0.5349  0.3836
  101OSM    HO310091   3.652   2.682   6.336  0.2254 -0.5334 -0.9652
  101OSM    C4S10092   3.532   2.586   6.070  0.3114 -0.4765 -0.5278
  101OSM    H4S10093   3.607   2.582   5.990  0.5380 -2.4711 -0.2203
  101OSM    C5S10094   3.440   2.487   6.069 -0.9866 -0.2614 -0.1573
  101OSM    H5S10095   3.356   2.490   6.139  0.4375 -0.2046  1.5712
  101OSM    C6S10096   3.432   2.376   5.967 -0.4947  0.1358 -1.1882
  101OSM    H6S10097   3.388   2.283   6.009 -0.7785  0.5172 -0.6392
  101OSM    H6T10098   3.527   2.343   5.919  0.2873  0.5191  0.0902
  101OSM    C7S10099   3.345   2.414   5.842 -0.4018 -0.7007 -0.8132
  101OSM    H7S10100   3.368   2.511   5.793  1.8630 -1.5487 -1.5220
  101OSM    H7T10101   3.239   2.415   5.876 -0.0935 -1.3516  0.1777
  101OSM    C8S10102   3.348   2.295   5.745  0.1108 -0.4880 -0.2131
  101OSM    H8S10103   3.292   2.218   5.802  0.6192 -0.3114  0.5368
  101OSM    H8T10104   3.450   2.256   5.724 -0.1251 -0.1662 -2.0308
  101OSM    C9S10105   3.281   2.323   5.607 -0.8641  0.0119 -0.4317
  101OSM    H9S10106   3.303   2.426   5.573  0.1235  0.7555  2.3136
  101OSM    H9T10107   3.173   2.343   5.619 -0.8438 -0.0171 -0.1976
  101OSM   C10S10108   3.304   2.219   5.492 -0.8452  0.2369  0.5999
  101OSM   H10S10109   3.255   2.123   5.520 -0.1082 -0.0295  0.9695
  101OSM   H10T10110   3.412   2.199   5.477 -0.8021  0.1799  0.9899
  101OSM   C11S10111   3.254   2.289   5.368  0.2225  0.3905 -0.0346
  101OSM   H11S10112   3.287   2.394   5.354  0.7591  0.5131  1.9219
  101OSM   H11T10113   3.144   2.291   5.378  0.2443 -2.3732  1.4561
  101OSM   C12S10114   3.275   2.219   5.236 -0.3150 -0.3814  0.3980
  101OSM   H12S10115   3.253   2.111   5.249 -1.5345 -0.0613  1.0445
  101OSM   H12T10116   3.376   2.231   5.192 -0.2212 -0.7316  0.5117
  101OSM   C13S10117   3.196   2.282   5.125 -0.3988  0.4256 -0.4950
  101OSM   H13S10118   3.195   2.393   5.134  0.2354  0.4608 -0.8846
  101OSM   H13T10119   3.091   2.246   5.139 -0.2821 -0.8321 -2.6269
  101OSM   C14S10120   3.257   2.252   4.985  0.9362 -0.3378  0.1986
  101OSM   H14S10121   3.261   2.143   4.964  3.0877 -0.5026  1.2582
  101OSM   H14T10122   3.364   2.283   4.989  0.2264  2.1955 -0.0424
  101OSM   C15S10123   3.181   2.327   4.872  0.5659  0.8086  0.3560
  101OSM   H15S10124   3.242   2.321   4.779 -0.9447 -1.3288 -0.5210
  101OSM   H15T10125   3.175   2.436   4.893 -0.3708  0.7957  0.1464
  101OSM   C16S10126   3.034   2.276   4.840 -0.4185  0.5027 -0.9020
  101OSM   H16S10127   2.979   2.284   4.937 -0.0511  0.5105 -0.6925
  101OSM   H16T10128   3.053   2.173   4.802 -0.6504  1.1866 -2.9100
  101OSM   C17S10129   2.958   2.360   4.739  0.0344  0.0866  0.1270
  101OSM   H17S10130   2.936   2.457   4.790  1.2459  1.9635 -2.7639
  101OSM   H17T10131   2.856   2.319   4.726  0.7527 -1.8028  0.3824
  101OSM   C18S10132   3.022   2.378   4.601 -0.1089 -0.4205 -1.2871
  101OSM   H18S10133   2.954   2.426   4.528  0.4206  0.8648 -0.9542
  101OSM   H18T10134   3.036   2.275   4.561 -0.6501 -1.1467  0.3335
  101OSM   H18U10135   3.120   2.432   4.605  0.1840 -0.8997 -1.9077
  101OSM    C1F10136   3.665   2.960   5.926 -0.3423  0.2485  0.1686
  101OSM     OF10137   3.787   2.945   5.931  0.2611 -0.1417  0.5865
  101OSM    C2F10138   3.600   3.067   5.837 -0.9854 -0.0544 -0.0509
  101OSM    H2F10139   3.560   3.140   5.911  1.8874 -0.2982  1.8193
  101OSM    H2G10140   3.516   3.011   5.790 -1.2671  1.5396 -1.5047
  101OSM    C3F10141   3.701   3.146   5.742  1.0913  0.5051  0.0706
  101OSM    H3F10142   3.785   3.177   5.808 -0.4643 -2.0410  3.3362
  101OSM    H3G10143   3.650   3.235   5.700 -0.2912  0.2520  1.1887
  101OSM    C4F10144   3.752   3.058   5.622 -0.8807  0.1501  0.2025
  101OSM    H4F10145   3.794   2.965   5.666 -0.5974  0.6499  0.9982
  101OSM    H4G10146   3.827   3.110   5.560 -2.1776  1.5182 -0.2571
  101OSM    C5F10147   3.640   2.999   5.536  0.2668  0.4256  0.1993
  101OSM    H5F10148   3.576   3.085   5.505 -0.3619 -0.4511 -0.9921
  101OSM    H5G10149   3.582   2.929   5.601 -1.0622  1.9925  0.7523
  101OSM    C6F10150   3.696   2.939   5.410 -0.4324 -0.6930 -0.3185
  101OSM    H6F10151   3.626   2.859   5.378  0.8111 -1.8443 -0.2233
  101OSM    H6G10152   3.784   2.874   5.429 -0.3972 -0.4851  0.2232
  101OSM    C7F10153   3.728   3.027   5.288 -0.1665  0.8739  1.2026
  101OSM    H7F10154   3.814   3.093   5.313  0.2741  0.9841 -0.4925
  101OSM    H7G10155   3.635   3.086   5.274 -0.5185  0.4922  1.9489
  101OSM    C8F10156   3.758   2.950   5.158 -0.2378 -0.4319  0.6378
  101OSM    H8F10157   3.736   3.016   5.071  1.4125  0.3889  0.8318
  101OSM    H8G10158   3.684   2.868   5.143 -2.8484  2.1513 -1.1863
  101OSM    C9F10159   3.899   2.899   5.164 -0.6225 -0.0149 -0.4839
  101OSM    H9F10160   3.922   2.828   5.245  1.6148 -0.2441 -1.3100
  101OSM   C10F10161   3.988   2.896   5.063 -0.2590 -0.5345  0.8900
  101OSM   H10F10162   4.081   2.840   5.074 -0.0400 -0.5593 -0.9016
  101OSM   C11F10163   3.966   2.953   4.923  0.8118  0.1982 -0.5050
  101OSM   H11F10164   3.958   3.064   4.926 -2.0782  0.0165  0.1460
  101OSM   H11G10165   3.875   2.914   4.871 -1.1859  2.5861  1.0916
  101OSM   C12F10166   4.080   2.923   4.828  0.2634 -0.1515  0.0846
  101OSM   H12F10167   4.087   2.813   4.810  0.6112  0.0457 -1.0081
  101OSM   H12G10168   4.177   2.945   4.878 -0.7865  0.7438  1.7795
  101OSM   C13F10169   4.058   3.003   4.698 -0.1621  0.2952  0.2490
  101OSM   H13F10170   4.046   3.110   4.727  0.1339  0.3434  0.1950
  101OSM   H13G10171   3.966   2.978   4.642 -0.9776 -0.0373  1.7281
  101OSM   C14F10172   4.171   2.981   4.602  0.0400  0.1837  0.0798
  101OSM   H14F10173   4.171   2.879   4.558 -0.4158  0.8509 -1.4851
  101OSM   H14G10174   4.263   3.005   4.659  0.6519  2.1638 -1.7169
  101OSM   C15F10175   4.166   3.089   4.489 -0.3867 -0.2915 -0.4701
  101OSM   H15F10176   4.141   3.184   4.540 -0.2490 -0.4555 -0.0947
  101OSM   H15G10177   4.081   3.074   4.419 -1.1135  1.4315  0.0148
  101OSM   C16F10178   4.290   3.094   4.402 -1.1335 -0.3603 -0.1165
  101OSM   H16F10179   4.375   3.071   4.469 -0.5172 -0.5852 -0.9649
  101OSM   H16G10180   4.307   3.188   4.347 -0.4436 -0.4183 -0.0003
  101OSM   C17F10181   4.298   2.980   4.295  0.0054  0.6498  0.2935
  101OSM   H17F10182   4.225   2.993   4.212 -0.6388  0.7589  0.8785
  101OSM   H17G10183   4.292   2.881   4.346 -0.2259  0.4137 -0.1854
  101OSM   C18F10184   4.432   2.996   4.225  0.0741  0.4422 -0.2804
  101OSM   H18F10185   4.518   2.980   4.293 -2.5241  1.5159  3.4187
  101OSM   H18G10186   4.450   3.094   4.174 -0.4555  1.0238  0.6516
  101OSM   H18H10187   4.430   2.921   4.143 -0.6880  0.4314 -0.2546
  102OSM      N10188   4.789   3.040   6.567 -0.4510 -0.4408 -0.4249
  102OSM    C1510189   4.785   3.058   6.418  0.1004 -0.5111 -0.4232
  102OSM   H15A10190   4.845   2.978   6.377 -0.1095  0.0246 -1.7935
  102OSM   H15B10191   4.835   3.146   6.381  1.6146 -1.2754 -0.2316
  102OSM   H15C10192   4.681   3.059   6.386 -0.0587 -1.3805  0.0262
  102OSM    C1410193   4.734   2.908   6.608 -0.9545  0.0555 -0.5298
  102OSM   H14A10194   4.627   2.892   6.602 -0.6518 -2.6002  0.3814
  102OSM   H14B10195   4.768   2.896   6.710  1.0943 -0.8735 -1.2889
  102OSM   H14C10196   4.782   2.831   6.549  2.1306  1.0440  0.6080
  102OSM    C1310197   4.936   3.040   6.603  0.7337 -0.3133  0.1676
  102OSM   H13A10198   4.982   3.121   6.548 -3.6529  1.1155 -1.5972
  102OSM   H13B10199   4.981   2.945   6.575 -1.8886 -1.7060  0.5357
  102OSM   H13C10200   4.951   3.062   6.707  1.4203  1.5487 -0.3041
  102OSM    C1210201   4.710   3.157   6.629 -0.0359  0.6648  0.3136
  102OSM   H12A10202   4.763   3.246   6.597  1.8291 -0.5227 -0.0175
  102OSM   H12B10203   4.727   3.143   6.734 -0.8365 -2.5999  0.0600
  102OSM    C1110204   4.564   3.162   6.595 -0.0132  0.0083  0.0826
  102OSM   H11A10205   4.522   3.210   6.687 -1.0276 -2.2987  0.8666
  102OSM   H11B10206   4.522   3.059   6.587 -1.4055  0.4863  1.0089
  102OSM      P10207   4.398   3.254   6.422  0.0520  0.2739 -0.0462
  102OSM    O1310208   4.323   3.131   6.417  0.3994  0.3218 -0.6310
  102OSM    O1410209   4.343   3.366   6.498  0.0576  0.3034 -0.5799
  102OSM    O1110210   4.431   3.293   6.275 -0.1573 -0.1977  0.0923
  102OSM    O1210211   4.538   3.234   6.482  0.0899 -0.7168  0.3644
  102OSM    C1S10212   4.539   3.218   6.210  0.5917 -0.0386  0.3173
  102OSM    H1S10213   4.539   3.108   6.226  0.6153  0.0745  1.0856
  102OSM    H1T10214   4.642   3.248   6.237  0.2111  0.7068  0.9787
  102OSM     NF10215   4.641   3.163   5.997  0.0568 -0.3462  0.1632
  102OSM    HNF10216   4.722   3.213   5.966 -0.3140  1.1910  1.6315
  102OSM    C2S10217   4.534   3.238   6.063  0.5758 -0.5938  0.5237
  102OSM    H2S10218   4.435   3.195   6.035  1.1772 -1.5423 -0.1809
  102OSM    C3S10219   4.527   3.386   6.024  0.0695  0.2037  0.7215
  102OSM    H3S10220   4.610   3.448   6.066 -0.7863  1.4205  0.6139
  102OSM     O310221   4.403   3.438   6.062 -0.0387  1.0567 -0.2293
  102OSM    HO310222   4.399   3.381   6.139  0.2163 -0.8769 -1.5970
  102OSM    C4S10223   4.518   3.388   5.871 -0.0196  0.2001 -0.1805
  102OSM    H4S10224   4.423   3.358   5.824  0.1745  0.0032 -0.4538
  102OSM    C5S10225   4.619   3.418   5.784  0.1977  0.3936 -0.6594
  102OSM    H5S10226   4.707   3.467   5.827  0.7146 -0.9138 -0.2191
  102OSM    C6S10227   4.605   3.414   5.637  0.1666  0.3044  0.6804
  102OSM    H6S10228   4.554   3.507   5.603  2.4254  0.5953 -2.1227
  102OSM    H6T10229   4.544   3.324   5.614 -0.5212  1.0329 -0.4204
  102OSM    C7S10230   4.735   3.396   5.564  0.5529 -0.4125 -0.4829
  102OSM    H7S10231   4.768   3.292   5.583  0.8292 -0.0564  0.9852
  102OSM    H7T10232   4.805   3.470   5.607 -0.5815  2.0437 -2.7539
  102OSM    C8S10233   4.731   3.445   5.414 -0.3514 -0.0400  0.5081
  102OSM    H8S10234   4.834   3.470   5.383 -1.3000  0.9192 -2.0291
  102OSM    H8T10235   4.668   3.536   5.406 -2.3991 -1.4091  0.6336
  102OSM    C9S10236   4.669   3.340   5.329 -0.0043  0.5030 -0.0439
  102OSM    H9S10237   4.563   3.315   5.352  0.4855  0.2572  2.0113
  102OSM    H9T10238   4.729   3.247   5.333  1.0345  1.2345  1.4438
  102OSM   C10S10239   4.643   3.386   5.184  0.3286 -0.5949 -0.3698
  102OSM   H10S10240   4.606   3.491   5.180  0.0903 -0.6915 -0.8134
  102OSM   H10T10241   4.581   3.317   5.123  0.8370  0.5182 -2.1777
  102OSM   C11S10242   4.776   3.388   5.103 -0.4071 -0.5264 -0.2029
  102OSM   H11S10243   4.831   3.294   5.125  2.5386  0.9452 -1.1103
  102OSM   H11T10244   4.842   3.468   5.142 -1.6919 -0.2466  1.4513
  102OSM   C12S10245   4.760   3.416   4.953 -0.2422  0.1241  0.5112
  102OSM   H12S10246   4.699   3.330   4.919 -2.3422  1.1298  1.6737
  102OSM   H12T10247   4.854   3.397   4.896 -1.1157 -1.6149 -0.3694
  102OSM   C13S10248   4.694   3.551   4.921  0.4408  0.5028  0.0981
  102OSM   H13S10249   4.591   3.556   4.963  0.6330  1.6279  0.4616
  102OSM   H13T10250   4.690   3.558   4.811  2.0228 -2.5749 -0.1965
  102OSM   C14S10251   4.771   3.674   4.971  0.0685 -0.5770  0.2799
  102OSM   H14S10252   4.881   3.660   4.977  0.2000 -0.5307 -1.8565
  102OSM   H14T10253   4.736   3.691   5.075 -0.3440 -0.6860  0.1570
  102OSM   C15S10254   4.740   3.797   4.892  0.0157 -0.1686 -0.0773
  102OSM   H15S10255   4.795   3.881   4.939 -0.5608  0.0796  0.1584
  102OSM   H15T10256   4.633   3.826   4.897  0.4912  1.6102  0.3194
  102OSM   C16S10257   4.784   3.786   4.741  0.1487  0.0267 -0.4099
  102OSM   H16S10258   4.727   3.708   4.686 -1.3736 -0.2270  1.4819
  102OSM   H16T10259   4.895   3.778   4.743  0.2037  0.9642  0.1800
  102OSM   C17S10260   4.754   3.919   4.663  0.4847  0.3738 -0.3814
  102OSM   H17S10261   4.661   3.963   4.704 -0.3836 -1.5605 -0.2377
  102OSM   H17T10262   4.722   3.890   4.560 -1.2988  2.7086 -0.5450
  102OSM   C18S10263   4.862   4.021   4.665  0.4073  0.6320  0.3282
  102OSM   H18S10264   4.961   3.976   4.643  1.7279  3.4384  0.2517
  102OSM   H18T10265   4.867   4.069   4.765 -1.0785  1.5851 -0.0187
  102OSM   H18U10266   4.832   4.107   4.600 -0.6647 -0.9094 -1.2686
  102OSM    C1F10267   4.645   3.032   5.996 -0.2239  0.0695 -0.0279
  102OSM     OF10268   4.541   2.968   6.026  0.1743  0.1098  0.2101
  102OSM    C2F10269   4.771   2.969   5.939  0.4886  0.5881  0.0659
  102OSM    H2F10270   4.817   2.914   6.024 -0.5298  0.0139  0.2577
  102OSM    H2G10271   4.845   3.042   5.899 -0.9082  3.6312  2.7887
  102OSM    C3F10272   4.752   2.865   5.829  0.1898  1.1122 -0.1158
  102OSM    H3F10273   4.675   2.798   5.871  0.7112  0.2252 -0.5607
  102OSM    H3G10274   4.846   2.806   5.823  0.0548  0.6916  1.6857
  102OSM    C4F10275   4.716   2.909   5.682  0.3961  0.0354 -0.0665
  102OSM    H4F10276   4.720   2.826   5.609 -4.7954 -1.1319  0.7962
  102OSM    H4G10277   4.794   2.974   5.637 -0.6719  1.1580 -0.3252
  102OSM    C5F10278   4.580   2.984   5.669  0.2758  0.2863 -0.2714
  102OSM    H5F10279   4.571   3.006   5.560 -3.4817 -1.2298 -0.3488
  102OSM    H5G10280   4.585   3.071   5.738 -0.8035  2.0224 -2.3271
  102OSM    C6F10281   4.465   2.893   5.715 -0.6134 -0.7225  0.4972
  102OSM    H6F10282   4.481   2.855   5.818 -1.5586 -4.0172 -0.5049
  102OSM    H6G10283   4.465   2.806   5.645  2.0713 -0.4908  0.1656
  102OSM    C7F10284   4.326   2.959   5.701 -0.2834 -0.3074 -0.9640
  102OSM    H7F10285   4.245   2.884   5.704 -0.9223  0.3960 -0.4547
  102OSM    H7G10286   4.317   3.008   5.601 -1.6888  3.2509  0.8109
  102OSM    C8F10287   4.303   3.061   5.815  0.4339 -0.7183  0.4843
  102OSM    H8F10288   4.388   3.131   5.818 -0.2560  0.2394 -1.6905
  102OSM    H8G10289   4.310   3.004   5.910  5.4775 -2.8964 -1.0412
  102OSM    C9F10290   4.170   3.124   5.814 -0.6310  0.1609  0.5914
  102OSM    H9F10291   4.094   3.077   5.878  1.5731 -2.1719  1.5616
  102OSM   C10F10292   4.131   3.224   5.727  0.1268 -0.1622  0.3661
  102OSM   H10F10293   4.030   3.266   5.727  0.4139  0.5857  2.0749
  102OSM   C11F10294   4.217   3.274   5.611 -0.5288 -0.7780  0.4358
  102OSM   H11F10295   4.323   3.241   5.617 -0.4470 -0.4344  0.9311
  102OSM   H11G10296   4.214   3.384   5.603  0.5028 -0.9296 -2.5846
  102OSM   C12F10297   4.161   3.203   5.482  0.3586 -0.6073 -0.1122
  102OSM   H12F10298   4.067   3.253   5.449  1.9403  2.2837 -0.4532
  102OSM   H12G10299   4.137   3.096   5.494  0.4402 -0.5929  0.1901
  102OSM   C13F10300   4.247   3.221   5.348  0.3059  0.5669  0.0808
  102OSM   H13F10301   4.344   3.172   5.373  0.6528  1.2215  0.0328
  102OSM   H13G10302   4.264   3.329   5.329  0.4107  0.8323  1.6185
  102OSM   C14F10303   4.188   3.148   5.230  0.5808 -0.0317 -0.4917
  102OSM   H14F10304   4.081   3.180   5.235  0.0668 -1.7162 -0.3944
  102OSM   H14G10305   4.183   3.039   5.251 -0.5426  0.1469  0.2505
  102OSM   C15F10306   4.238   3.185   5.087  0.1628  0.4893 -0.8672
  102OSM   H15F10307   4.186   3.120   5.013 -1.1891  0.5715  0.0093
  102OSM   H15G10308   4.343   3.148   5.090  0.1034  0.4069  0.4524
  102OSM   C16F10309   4.240   3.329   5.049 -0.4298 -0.0639 -0.1969
  102OSM   H16F10310   4.284   3.388   5.132 -3.2921  0.0159  1.3230
  102OSM   H16G10311   4.138   3.373   5.043 -0.8571 -1.0270 -0.0579
  102OSM   C17F10312   4.307   3.371   4.914 -1.0326  0.3642 -0.2671
  102OSM   H17F10313   4.278   3.296   4.838  0.4388 -1.0192  0.5103
  102OSM   H17G10314   4.415   3.352   4.926 -1.3964 -2.0347 -0.5305
  102OSM   C18F10315   4.260   3.512   4.887 -0.1698 -0.3367 -0.0583
  102OSM   H18F10316   4.312   3.585   4.953  0.4648 -0.5281 -0.3375
  102OSM   H18G10317   4.151   3.513   4.906 -0.4490  2.6673 -1.6089
  102OSM   H18H10318   4.277   3.542   4.782  0.0933  1.1053  0.3813
  103OSM      N10319   4.328   4.688   6.313  0.2908 -0.3090  0.1113
  103OSM    C1510320   4.420   4.723   6.424  0.1182 -0.4259 -0.1425
  103OSM   H15A10321   4.516   4.675   6.410 -1.0956 -2.5201 -1.6717
  103OSM   H15B10322   4.383   4.691   6.521  2.2157 -0.3244  0.7091
  103OSM   H15C10323   4.425   4.829   6.442  1.7172 -0.3586 -0.9327
  103OSM    C1410324   4.370   4.760   6.187 -0.0697 -0.0412  0.6635
  103OSM   H14A10325   4.470   4.740   6.150  0.0227 -0.3487  1.0751
  103OSM   H14B10326   4.371   4.868   6.188  2.6714  0.0440 -1.6695
  103OSM   H14C10327   4.304   4.740   6.104 -0.2473  0.6963  0.6219
  103OSM    C1310328   4.336   4.542   6.296  0.0426  0.5133 -0.4503
  103OSM   H13A10329   4.314   4.493   6.390  1.2344 -1.8981 -1.3801
  103OSM   H13B10330   4.433   4.508   6.265 -0.2963 -0.6263 -0.2740
  103OSM   H13C10331   4.260   4.514   6.224 -0.2110  0.7193 -0.2627
  103OSM    C1210332   4.185   4.730   6.352 -0.2924 -0.5668 -0.1450
  103OSM   H12A10333   4.190   4.831   6.391  1.9153 -0.4729 -0.5631
  103OSM   H12B10334   4.144   4.669   6.431 -0.5311 -1.3301 -0.8626
  103OSM    C1110335   4.089   4.735   6.231  0.2207 -0.5243  0.1275
  103OSM   H11A10336   4.108   4.638   6.180  1.3035  0.0434 -0.5708
  103OSM   H11B10337   4.112   4.824   6.169 -2.1895  0.4730  0.5999
  103OSM      P10338   3.832   4.662   6.274 -0.3428 -0.4514  0.2315
  103OSM    O1310339   3.840   4.564   6.381 -0.3641  0.0180 -0.6943
  103OSM    O1410340   3.709   4.740   6.269 -0.3864 -0.0200 -0.5228
  103OSM    O1110341   3.860   4.581   6.139 -0.7205  0.5097  0.3971
  103OSM    O1210342   3.957   4.757   6.290  0.1127  0.2025  0.3859
  103OSM    C1S10343   3.890   4.646   6.016 -0.3867 -0.7379  0.5688
  103OSM    H1S10344   3.965   4.728   6.023  1.1357 -2.0794  0.1323
  103OSM    H1T10345   3.796   4.690   5.976  0.2845  0.4302  0.2358
  103OSM     NF10346   4.012   4.608   5.805  0.1094 -0.7689 -0.1417
  103OSM    HNF10347   3.956   4.643   5.730  0.1220 -1.0365 -0.2784
  103OSM    C2S10348   3.944   4.543   5.915  1.0849  0.8082  0.8243
  103OSM    H2S10349   4.026   4.491   5.969  0.7709  1.0324  1.5196
  103OSM    C3S10350   3.823   4.448   5.872 -0.4078  0.4286  0.9158
  103OSM    H3S10351   3.748   4.516   5.824  0.5902  2.2027  1.8357
  103OSM     O310352   3.773   4.383   5.983  0.0280  0.1150 -0.0692
  103OSM    HO310353   3.814   4.428   6.057 -3.6231 -0.1521  2.2723
  103OSM    C4S10354   3.873   4.352   5.772 -0.3363  0.1936  0.1440
  103OSM    H4S10355   3.974   4.319   5.797 -0.1960  1.3736  1.2074
  103OSM    C5S10356   3.817   4.338   5.654 -0.3045  0.7526 -0.7637
  103OSM    H5S10357   3.735   4.408   5.631 -0.3084  0.8588 -0.4234
  103OSM    C6S10358   3.866   4.239   5.548  0.1527  0.7492  0.2512
  103OSM    H6S10359   3.788   4.176   5.502 -0.0782  1.3668 -0.2164
  103OSM    H6T10360   3.929   4.161   5.595  1.3047  1.3080 -0.3443
  103OSM    C7S10361   3.949   4.308   5.430 -0.4724  0.1630 -1.0786
  103OSM    H7S10362   4.044   4.357   5.460  0.5186 -0.9791 -2.3066
  103OSM    H7T10363   3.884   4.383   5.382 -1.8401 -1.9348 -2.5996
  103OSM    C8S10364   3.989   4.197   5.328 -0.1203 -0.4858 -0.4459
  103OSM    H8S10365   3.902   4.131   5.307 -2.1284  1.2422  2.1138
  103OSM    H8T10366   4.071   4.134   5.368  0.1817  0.1762 -0.0251
  103OSM    C9S10367   4.034   4.263   5.196  0.3864 -1.0482 -1.0482
  103OSM    H9S10368   3.951   4.327   5.159 -0.8548 -2.7680 -1.2701
  103OSM    H9T10369   4.080   4.189   5.128  2.1508  0.1687 -1.2057
  103OSM   C10S10370   4.157   4.359   5.218  0.2079  0.1751  1.2187
  103OSM   H10S10371   4.235   4.298   5.269 -0.0328 -1.5455 -0.4572
  103OSM   H10T10372   4.126   4.441   5.287 -1.0395  0.9111 -0.1780
  103OSM   C11S10373   4.215   4.421   5.093 -0.4414 -0.3651  0.0532
  103OSM   H11S10374   4.253   4.339   5.027  1.0375  0.0872  0.3271
  103OSM   H11T10375   4.299   4.487   5.121 -1.1836  0.0739  1.2941
  103OSM   C12S10376   4.124   4.514   5.013 -1.1508 -0.4441  0.3443
  103OSM   H12S10377   4.083   4.591   5.082  3.1486  1.6802  0.6906
  103OSM   H12T10378   4.046   4.460   4.956  1.4228 -2.9292 -0.9402
  103OSM   C13S10379   4.198   4.587   4.900  0.3937 -0.4324  0.4277
  103OSM   H13S10380   4.278   4.647   4.949 -0.4007  0.3173  0.8186
  103OSM   H13T10381   4.126   4.659   4.855 -0.1050 -0.6539  0.8705
  103OSM   C14S10382   4.263   4.492   4.795 -0.7322  0.5142  0.0436
  103OSM   H14S10383   4.191   4.412   4.767 -0.9025  0.0960  1.6481
  103OSM   H14T10384   4.343   4.434   4.846 -0.9024 -0.3945 -0.7194
  103OSM   C15S10385   4.315   4.559   4.672  0.1083 -0.0518 -0.3052
  103OSM   H15S10386   4.395   4.631   4.701 -0.3627 -0.3806  1.8835
  103OSM   H15T10387   4.228   4.618   4.635  1.7816  0.0012 -4.4541
  103OSM   C16S10388   4.366   4.469   4.561  0.0671  0.2393  0.0745
  103OSM   H16S10389   4.300   4.380   4.550 -0.2382  0.5248 -0.4307
  103OSM   H16T10390   4.466   4.434   4.594  0.4105  1.6795  0.5868
  103OSM   C17S10391   4.392   4.547   4.428  0.1034  0.2031  0.4303
  103OSM   H17S10392   4.471   4.623   4.444 -1.0515  0.7373  3.9531
  103OSM   H17T10393   4.291   4.588   4.405  0.5602  0.8763 -0.3759
  103OSM   C18S10394   4.450   4.471   4.310 -0.1280 -0.0547  0.2578
  103OSM   H18S10395   4.390   4.377   4.312 -0.7830  0.3279 -0.9691
  103OSM   H18T10396   4.556   4.449   4.336  0.0813  0.4979 -0.1369
  103OSM   H18U10397   4.432   4.527   4.216 -0.7851 -0.9737 -0.1674
  103OSM    C1F10398   4.140   4.641   5.809  0.1941 -0.6312  0.1252
  103OSM     OF10399   4.198   4.629   5.915  0.4135 -0.3396  0.7136
  103OSM    C2F10400   4.204   4.695   5.689 -0.6679  0.0354 -0.9843
  103OSM    H2F10401   4.299   4.638   5.673 -0.4836  0.6009 -1.8920
  103OSM    H2G10402   4.238   4.797   5.715  0.2365  0.1164 -2.4151
  103OSM    C3F10403   4.122   4.723   5.563 -0.3263 -0.1051 -0.3115
  103OSM    H3F10404   4.027   4.778   5.580 -0.5201 -1.2087  2.5372
  103OSM    H3G10405   4.096   4.627   5.514  0.7073 -0.0931 -0.9063
  103OSM    C4F10406   4.210   4.784   5.442 -0.1719 -0.3034 -0.9096
  103OSM    H4F10407   4.282   4.708   5.406  0.3122 -0.5329  0.4875
  103OSM    H4G10408   4.248   4.881   5.482 -0.8049  0.1917 -1.4942
  103OSM    C5F10409   4.124   4.815   5.321 -0.2574 -0.7238 -0.8847
  103OSM    H5F10410   4.022   4.841   5.355  0.0721 -1.1432  0.4669
  103OSM    H5G10411   4.106   4.729   5.254 -0.2710 -0.2490 -1.4953
  103OSM    C6F10412   4.181   4.907   5.214  0.6356 -0.5054  0.8860
  103OSM    H6F10413   4.277   4.883   5.163 -0.5522 -3.3961 -0.0759
  103OSM    H6G10414   4.209   5.004   5.261 -0.4250  0.4614 -0.4468
  103OSM    C7F10415   4.074   4.935   5.111  0.4231  0.0487 -0.3991
  103OSM    H7F10416   3.977   4.955   5.162  0.8153  0.8724  0.0318
  103OSM    H7G10417   4.061   4.840   5.056 -1.3730  0.3199 -0.4802
  103OSM    C8F10418   4.093   5.051   5.010  0.4414  0.3122 -0.5741
  103OSM    H8F10419   4.080   5.147   5.065  1.5906 -0.6072  1.3511
  103OSM    H8G10420   4.007   5.061   4.940  1.5399  2.2587 -1.6933
  103OSM    C9F10421   4.221   5.043   4.932 -0.7708 -0.2163 -0.1560
  103OSM    H9F10422   4.296   5.068   5.008 -0.4887 -1.1548 -0.1171
  103OSM   C10F10423   4.240   5.027   4.802 -0.1467 -0.4041 -0.5786
  103OSM   H10F10424   4.341   5.039   4.760  0.8122  0.7139  1.9371
  103OSM   C11F10425   4.137   4.999   4.695  0.7759 -0.5666  0.5236
  103OSM   H11F10426   4.047   4.952   4.739 -0.7687  0.4913 -1.4171
  103OSM   H11G10427   4.175   4.917   4.630  2.7104  0.6367  0.0715
  103OSM   C12F10428   4.110   5.114   4.600  0.0830 -0.5016 -0.6562
  103OSM   H12F10429   4.021   5.084   4.540  0.3255 -1.1508 -0.7035
  103OSM   H12G10430   4.194   5.129   4.530  1.7984  0.2113  1.4879
  103OSM   C13F10431   4.058   5.243   4.655  0.3902  0.2136  0.0858
  103OSM   H13F10432   4.058   5.301   4.561  1.8067 -1.5028 -0.9958
  103OSM   H13G10433   4.131   5.291   4.724 -1.9524  1.0133  2.1196
  103OSM   C14F10434   3.916   5.236   4.715 -0.7560 -0.2370 -0.3823
  103OSM   H14F10435   3.924   5.198   4.819 -0.0318 -1.8908 -1.0288
  103OSM   H14G10436   3.851   5.169   4.653 -2.1697  1.6561 -1.0023
  103OSM   C15F10437   3.840   5.373   4.711  0.2696 -0.1506  0.2330
  103OSM   H15F10438   3.826   5.404   4.606  1.7087  0.8884  0.3317
  103OSM   H15G10439   3.905   5.439   4.772  0.1327 -1.4624  1.8609
  103OSM   C16F10440   3.709   5.369   4.787  0.6042 -0.5414 -0.7502
  103OSM   H16F10441   3.737   5.324   4.885  1.2473  0.6130 -0.3997
  103OSM   H16G10442   3.638   5.299   4.737 -0.6852 -1.4671  2.2797
  103OSM   C17F10443   3.658   5.515   4.802 -0.7997 -0.2011  0.0327
  103OSM   H17F10444   3.620   5.549   4.704  1.0397  3.3186  0.4606
  103OSM   H17G10445   3.737   5.583   4.840  0.0841 -2.4564  2.4017
  103OSM   C18F10446   3.540   5.516   4.904  0.0869 -0.3580 -0.4800
  103OSM   H18F10447   3.458   5.443   4.888 -0.0733 -0.2552 -0.1357
  103OSM   H18G10448   3.490   5.615   4.906 -0.1244 -0.4727  0.6295
  103OSM   H18H10449   3.583   5.494   5.005 -0.6415 -1.2967 -0.3703
  104OSM      N10450   4.658   3.606   6.621 -1.1036  0.0730  0.2617
  104OSM    C1510451   4.578   3.479   6.630 -0.2260 -0.3349  0.4390
  104OSM   H15A10452   4.479   3.491   6.590  0.2712  2.7972  0.0466
  104OSM   H15B10453   4.572   3.431   6.727  1.3687  0.6352  1.0442
  104OSM   H15C10454   4.623   3.410   6.560 -0.9662  0.0236 -0.3939
  104OSM    C1410455   4.600   3.727   6.680  0.1313  0.0288 -0.2676
  104OSM   H14A10456   4.652   3.815   6.645  0.5662  0.5355  1.5900
  104OSM   H14B10457   4.596   3.725   6.788  1.1294 -1.8048 -0.2428
  104OSM   H14C10458   4.498   3.738   6.648  0.2009 -1.4907 -1.0853
  104OSM    C1310459   4.789   3.580   6.695 -0.2193  0.5407 -0.4265
  104OSM   H13A10460   4.780   3.502   6.770 -2.1511 -0.8960 -2.1237
  104OSM   H13B10461   4.836   3.671   6.731  1.2209 -0.2725 -0.2086
  104OSM   H13C10462   4.857   3.533   6.626 -3.6238 -0.7832 -2.9822
  104OSM    C1210463   4.695   3.647   6.481  0.5461  0.0873  0.6774
  104OSM   H12A10464   4.776   3.718   6.476  1.2640 -0.7645 -0.1148
  104OSM   H12B10465   4.607   3.696   6.443  0.6605  0.3634  0.7674
  104OSM    C1110466   4.714   3.527   6.387 -0.6033 -0.2596 -0.7410
  104OSM   H11A10467   4.747   3.556   6.285 -1.8618  2.0634 -0.5289
  104OSM   H11B10468   4.611   3.493   6.368 -1.1425  0.4393  0.8826
  104OSM      P10469   4.945   3.424   6.403 -0.0415 -0.0314  0.4633
  104OSM    O1310470   5.023   3.525   6.476  0.0999 -0.5538  0.4252
  104OSM    O1410471   4.995   3.288   6.430  0.2124 -0.1183 -0.5422
  104OSM    O1110472   4.953   3.452   6.247 -0.2894  0.1891  0.3325
  104OSM    O1210473   4.792   3.427   6.448 -0.0088  0.4514  1.0644
  104OSM    C1S10474   5.074   3.498   6.182  0.5463  0.2069  0.2311
  104OSM    H1S10475   5.156   3.524   6.253  0.1226 -0.5912  1.0187
  104OSM    H1T10476   5.048   3.587   6.120 -2.7391  0.3503  1.7231
  104OSM     NF10477   5.261   3.423   6.036 -0.1439  0.4565 -0.0377
  104OSM    HNF10478   5.268   3.438   5.938 -2.6256  0.5423 -0.2245
  104OSM    C2S10479   5.130   3.393   6.081  0.2400  0.9659  0.3535
  104OSM    H2S10480   5.138   3.301   6.144 -0.7626 -0.8736 -2.1161
  104OSM    C3S10481   5.037   3.367   5.969  0.7557 -0.1334  0.0554
  104OSM    H3S10482   5.056   3.452   5.901  1.0751  1.6707  2.3313
  104OSM     O310483   4.899   3.347   6.000 -0.5141  0.0845 -0.0850
  104OSM    HO310484   4.890   3.384   6.088 -1.9479  2.0022 -0.9959
  104OSM    C4S10485   5.071   3.246   5.879 -0.0025 -0.0728 -0.3586
  104OSM    H4S10486   5.062   3.146   5.924  2.3656 -0.7523 -1.3056
  104OSM    C5S10487   5.109   3.259   5.748  0.0386  0.7298 -0.3236
  104OSM    H5S10488   5.089   3.358   5.705 -0.8371 -0.8546 -3.7716
  104OSM    C6S10489   5.138   3.146   5.650  0.5718 -0.6338 -0.4947
  104OSM    H6S10490   5.108   3.051   5.699 -0.9106 -0.5948 -1.3133
  104OSM    H6T10491   5.245   3.142   5.620  0.7703  0.7087 -0.0217
  104OSM    C7S10492   5.043   3.162   5.526 -0.5118  0.3127  0.2728
  104OSM    H7S10493   5.077   3.250   5.468 -0.4227  0.9085  1.2214
  104OSM    H7T10494   4.939   3.179   5.563  0.2474  0.4236  2.4144
  104OSM    C8S10495   5.048   3.034   5.441  1.5351  0.5929  0.4060
  104OSM    H8S10496   4.996   2.945   5.483 -0.0754  1.0643 -0.5532
  104OSM    H8T10497   5.155   3.018   5.414  1.2954 -0.2222 -0.0867
  104OSM    C9S10498   4.988   3.055   5.297 -0.2767 -0.7964 -0.2024
  104OSM    H9S10499   5.032   3.148   5.254  1.0469 -0.1148  2.5023
  104OSM    H9T10500   4.879   3.071   5.307 -0.7145 -2.4974 -2.0681
  104OSM   C10S10501   5.020   2.935   5.201  0.3326 -0.1970 -0.1230
  104OSM   H10S10502   4.967   2.844   5.235  2.6796 -1.3899  0.4664
  104OSM   H10T10503   5.126   2.905   5.211  0.5108  0.1467 -0.9638
  104OSM   C11S10504   4.990   2.973   5.052  0.0446  0.0831  0.0807
  104OSM   H11S10505   5.038   3.073   5.045 -1.5432  0.9990  1.9220
  104OSM   H11T10506   4.880   2.988   5.041 -0.5663 -1.6857  3.3412
  104OSM   C12S10507   5.050   2.885   4.945 -0.2565  0.6854  0.2661
  104OSM   H12S10508   4.983   2.803   4.912  2.7516 -2.0847  0.8333
  104OSM   H12T10509   5.138   2.835   4.989 -1.2870 -0.3941  1.1276
  104OSM   C13S10510   5.088   2.970   4.821 -0.6278 -0.3717  0.3402
  104OSM   H13S10511   5.165   3.038   4.864 -0.3612 -0.5077  0.0787
  104OSM   H13T10512   5.007   3.038   4.787  0.1564 -0.4256 -1.6560
  104OSM   C14S10513   5.127   2.890   4.693  0.8450  1.3412 -0.2796
  104OSM   H14S10514   5.132   2.783   4.719 -1.8891  1.3609  0.4759
  104OSM   H14T10515   5.229   2.914   4.656  1.0944  2.6943  1.2223
  104OSM   C15S10516   5.014   2.894   4.589 -0.1130 -0.2476  0.1625
  104OSM   H15S10517   4.981   2.996   4.562  0.9241 -0.3163 -1.4870
  104OSM   H15T10518   4.918   2.846   4.618 -0.1252 -0.3841 -0.1033
  104OSM   C16S10519   5.057   2.818   4.461  0.2491  0.4070  0.2605
  104OSM   H16S10520   5.038   2.708   4.462 -1.1530  0.6421  0.9653
  104OSM   H16T10521   5.167   2.817   4.445  0.1145  1.1567 -0.7649
  104OSM   C17S10522   5.003   2.882   4.336  0.5676  0.3304 -0.3865
  104OSM   H17S10523   5.037   2.830   4.244 -0.9687 -1.7857  0.2087
  104OSM   H17T10524   5.030   2.990   4.343  1.6492 -0.0507  1.7338
  104OSM   C18S10525   4.840   2.877   4.335 -0.5275 -0.1735  0.6333
  104OSM   H18S10526   4.802   2.881   4.439 -2.5806  1.1567 -0.1271
  104OSM   H18T10527   4.801   2.795   4.273 -1.6809  1.2496 -0.5540
  104OSM   H18U10528   4.800   2.963   4.278  0.8834  0.0184 -0.0974
  104OSM    C1F10529   5.375   3.416   6.104 -0.5785 -0.4497 -0.4154
  104OSM     OF10530   5.373   3.368   6.211  0.0251  0.5860  0.6855
  104OSM    C2F10531   5.500   3.467   6.028 -0.2787 -0.1403  1.1651
  104OSM    H2F10532   5.573   3.385   6.044  0.6864  0.7504  1.4238
  104OSM    H2G10533   5.525   3.560   6.084  0.1071  1.0747 -0.9549
  104OSM    C3F10534   5.472   3.503   5.881 -0.4331 -0.1552 -0.2204
  104OSM    H3F10535   5.407   3.591   5.869 -1.3651 -0.7700  0.2690
  104OSM    H3G10536   5.428   3.427   5.814  0.5581 -0.4474 -0.5572
  104OSM    C4F10537   5.606   3.529   5.820  0.9097  1.0326  0.4522
  104OSM    H4F10538   5.671   3.439   5.817 -1.6321 -0.8925  1.5721
  104OSM    H4G10539   5.662   3.605   5.880  2.7396  0.6651 -0.7569
  104OSM    C5F10540   5.595   3.585   5.680  0.3764  0.4223 -0.4378
  104OSM    H5F10541   5.691   3.622   5.640 -0.0080 -1.4816 -3.2698
  104OSM    H5G10542   5.539   3.681   5.688  0.5863  0.6531 -1.6270
  104OSM    C6F10543   5.539   3.502   5.570 -0.0333 -0.1251 -0.4816
  104OSM    H6F10544   5.448   3.450   5.607  0.8422 -1.5200 -0.2310
  104OSM    H6G10545   5.614   3.420   5.558  0.8857  0.8323 -1.3821
  104OSM    C7F10546   5.504   3.581   5.446 -0.0167 -0.6295  0.1998
  104OSM    H7F10547   5.491   3.518   5.355 -2.6603  1.1311 -0.6756
  104OSM    H7G10548   5.597   3.640   5.431 -0.2607 -0.3684 -0.3033
  104OSM    C8F10549   5.381   3.674   5.454  0.5887 -0.2725  0.4687
  104OSM    H8F10550   5.370   3.716   5.352  0.3662  2.2222  1.4639
  104OSM    H8G10551   5.394   3.762   5.521 -1.2704 -1.3604  2.3226
  104OSM    C9F10552   5.252   3.603   5.495  0.2777  0.1176 -0.4894
  104OSM    H9F10553   5.244   3.580   5.603  1.2890 -0.8923 -0.6187
  104OSM   C10F10554   5.154   3.560   5.409 -0.2934  0.5223 -0.3004
  104OSM   H10F10555   5.070   3.504   5.453 -0.4679  0.4832 -0.6766
  104OSM   C11F10556   5.148   3.581   5.261 -0.3454  0.5970  1.2550
  104OSM   H11F10557   5.221   3.657   5.227 -1.1175  1.6741  1.9662
  104OSM   H11G10558   5.049   3.623   5.231  1.8566  3.6273 -2.2073
  104OSM   C12F10559   5.157   3.447   5.181 -0.0632 -0.7598 -0.3525
  104OSM   H12F10560   5.112   3.468   5.082 -2.4228 -1.7351  0.4553
  104OSM   H12G10561   5.105   3.366   5.238 -0.7188  0.4470  0.8205
  104OSM   C13F10562   5.291   3.385   5.163 -0.0857 -0.1196  0.2051
  104OSM   H13F10563   5.328   3.349   5.261  0.4646  0.0577  0.0636
  104OSM   H13G10564   5.369   3.451   5.118 -0.5050 -0.7201 -1.4393
  104OSM   C14F10565   5.272   3.252   5.087 -0.6128 -0.6415  0.2855
  104OSM   H14F10566   5.230   3.275   4.987 -1.1328  0.3369  0.7187
  104OSM   H14G10567   5.192   3.195   5.139  2.0852 -1.9476  3.1246
  104OSM   C15F10568   5.392   3.161   5.067 -0.2348 -0.8064  0.2943
  104OSM   H15F10569   5.479   3.229   5.051  0.4295 -2.4685 -3.5595
  104OSM   H15G10570   5.382   3.100   4.975 -2.4181 -0.9389  0.5998
  104OSM   C16F10571   5.432   3.070   5.181 -0.0560 -0.4502 -0.6806
  104OSM   H16F10572   5.508   2.994   5.152 -0.3191 -1.2610  0.6765
  104OSM   H16G10573   5.349   3.007   5.219 -0.6002 -0.1368 -1.3597
  104OSM   C17F10574   5.479   3.145   5.309 -0.2321 -1.5320 -0.2584
  104OSM   H17F10575   5.393   3.182   5.368  2.3685  0.1485  2.6411
  104OSM   H17G10576   5.540   3.234   5.284 -0.0020 -1.5360  0.2676
  104OSM   C18F10577   5.559   3.039   5.385 -0.0678 -0.3731  0.3748
  104OSM   H18F10578   5.485   2.960   5.410  1.1723 -1.3864  0.8607
  104OSM   H18G10579   5.610   3.087   5.471 -1.7660  1.1982  0.5355
  104OSM   H18H10580   5.641   3.005   5.318 -0.6710  1.6408 -1.4791
  105OSM      N10581   5.222   4.231   6.441 -0.1230 -0.0375 -0.0769
  105OSM    C1510582   5.318   4.229   6.559 -0.3360 -0.1835  0.1177
  105OSM   H15A10583   5.410   4.284   6.547  0.2793 -1.5166 -1.4426
  105OSM   H15B10584   5.341   4.127   6.584  0.8876  0.3957  1.4270
  105OSM   H15C10585   5.283   4.270   6.653  1.6163 -1.3875  1.4144
  105OSM    C1410586   5.301   4.187   6.325  0.0336 -0.2713 -0.3140
  105OSM   H14A10587   5.376   4.262   6.305  0.1175  0.1928  1.7194
  105OSM   H14B10588   5.237   4.174   6.238 -2.4187  1.1583  1.2189
  105OSM   H14C10589   5.371   4.107   6.343 -2.2836 -2.2780 -0.0670
  105OSM    C1310590   5.105   4.142   6.471 -0.1306 -0.3630 -0.2011
  105OSM   H13A10591   5.066   4.183   6.563  1.5005  1.5770 -0.3553
  105OSM   H13B10592   5.140   4.040   6.480 -5.2559 -2.2375  0.3641
  105OSM   H13C10593   5.025   4.131   6.399  0.5475 -2.7222 -0.6208
  105OSM    C1210594   5.173   4.376   6.429 -0.0396 -0.0990 -0.2540
  105OSM   H12A10595   5.260   4.439   6.418  0.2446  0.1008  2.7130
  105OSM   H12B10596   5.135   4.408   6.525 -0.3203 -1.0793 -0.0372
  105OSM    C1110597   5.081   4.413   6.304 -0.3300  0.2597  0.7055
  105OSM   H11A10598   5.132   4.387   6.209  0.0142 -1.7580  1.4150
  105OSM   H11B10599   5.062   4.522   6.318 -0.6945  0.3791 -0.6096
  105OSM      P10600   4.825   4.410   6.296 -0.0176 -0.2827  0.0070
  105OSM    O1310601   4.717   4.320   6.256  0.0223  0.4339 -0.4145
  105OSM    O1410602   4.803   4.496   6.416  0.5665 -0.0357 -0.2162
  105OSM    O1110603   4.830   4.509   6.171 -0.4373  0.7530  0.3900
  105OSM    O1210604   4.965   4.327   6.307  0.0945 -0.3283 -0.3409
  105OSM    C1S10605   4.892   4.471   6.049  1.2270  0.1899 -0.4615
  105OSM    H1S10606   4.950   4.377   6.057  1.6811  0.2796 -2.3746
  105OSM    H1T10607   4.969   4.547   6.023  0.2033  1.2630 -0.3616
  105OSM     NF10608   4.882   4.440   5.809  0.1032  0.4599  0.4889
  105OSM    HNF10609   4.928   4.522   5.776 -3.0147  1.8913 -0.4730
  105OSM    C2S10610   4.797   4.473   5.925  0.1192  0.3088  0.4185
  105OSM    H2S10611   4.715   4.398   5.936 -0.3710  0.7592 -0.1192
  105OSM    C3S10612   4.719   4.610   5.917 -0.4460 -0.1077  0.0706
  105OSM    H3S10613   4.797   4.690   5.914 -2.1530  1.5606 -3.3278
  105OSM     O310614   4.634   4.615   6.028  0.0467 -0.2654  0.1049
  105OSM    HO310615   4.649   4.546   6.093  0.0340  0.6707  1.1172
  105OSM    C4S10616   4.631   4.612   5.791  0.0844  0.6280 -0.4760
  105OSM    H4S10617   4.532   4.566   5.810  0.7631  0.1770  2.2708
  105OSM    C5S10618   4.651   4.678   5.680  1.0765  0.0863 -1.0686
  105OSM    H5S10619   4.739   4.743   5.668  0.1653  1.6601  0.4828
  105OSM    C6S10620   4.560   4.675   5.559  0.1811  0.1603 -0.3457
  105OSM    H6S10621   4.496   4.765   5.548 -2.3447 -1.5550 -0.1563
  105OSM    H6T10622   4.495   4.585   5.554 -1.5989  1.1765  3.3090
  105OSM    C7S10623   4.654   4.677   5.434  0.5513 -0.6465 -0.7088
  105OSM    H7S10624   4.737   4.602   5.433  2.4296  1.4015 -1.2429
  105OSM    H7T10625   4.710   4.772   5.420  2.0991 -1.0476  2.3069
  105OSM    C8S10626   4.564   4.667   5.314 -0.1597  0.4090  0.4052
  105OSM    H8S10627   4.479   4.736   5.331 -1.0926 -0.8619  0.9495
  105OSM    H8T10628   4.526   4.562   5.314  1.6064 -0.2597 -1.0912
  105OSM    C9S10629   4.639   4.692   5.185  0.1510 -0.0216 -0.4951
  105OSM    H9S10630   4.733   4.637   5.164  3.1401  4.2938  0.8399
  105OSM    H9T10631   4.676   4.797   5.178  0.9780 -0.4082 -2.3637
  105OSM   C10S10632   4.557   4.665   5.061  0.0869  0.0354  0.2671
  105OSM   H10S10633   4.452   4.683   5.092  0.5573 -0.0266  1.9294
  105OSM   H10T10634   4.567   4.561   5.022  1.0886 -0.5747  2.1049
  105OSM   C11S10635   4.602   4.750   4.940 -0.1248 -0.0570 -0.2054
  105OSM   H11S10636   4.572   4.853   4.969  3.3748  0.7549  0.7710
  105OSM   H11T10637   4.537   4.720   4.855  0.3640  1.1481 -1.0083
  105OSM   C12S10638   4.749   4.721   4.901  0.3812  0.4759 -0.1539
  105OSM   H12S10639   4.772   4.613   4.912 -0.9670  0.2608  0.6060
  105OSM   H12T10640   4.823   4.775   4.965 -1.3127  1.8734  0.6676
  105OSM   C13S10641   4.781   4.743   4.755  0.3941  0.5211 -0.3037
  105OSM   H13S10642   4.890   4.734   4.735  0.1540  0.1467 -1.4675
  105OSM   H13T10643   4.764   4.852   4.740 -0.6851  0.2728 -0.9257
  105OSM   C14S10644   4.695   4.670   4.651 -0.2757  0.0974 -0.1508
  105OSM   H14S10645   4.618   4.739   4.609 -0.0147  0.1216 -0.5997
  105OSM   H14T10646   4.638   4.586   4.694  0.1713 -0.3641 -0.4574
  105OSM   C15S10647   4.774   4.608   4.541 -0.3257 -0.2977  0.5566
  105OSM   H15S10648   4.703   4.567   4.466 -0.1322 -1.4731  0.9975
  105OSM   H15T10649   4.835   4.522   4.577  1.8087  0.2780 -1.5660
  105OSM   C16S10650   4.865   4.705   4.461 -0.0010  0.1649  0.1225
  105OSM   H16S10651   4.933   4.641   4.401  0.1707  0.5177 -0.0635
  105OSM   H16T10652   4.919   4.777   4.527 -1.6430 -0.7693  2.5511
  105OSM   C17S10653   4.787   4.791   4.351  0.4286 -0.3840  0.0105
  105OSM   H17S10654   4.715   4.853   4.409  0.8427 -1.3552  1.6203
  105OSM   H17T10655   4.736   4.718   4.285  0.5646 -0.8831  0.4545
  105OSM   C18S10656   4.882   4.869   4.265  0.0097 -0.4860 -0.1551
  105OSM   H18S10657   4.912   4.962   4.318  1.9716 -1.7327  0.9931
  105OSM   H18T10658   4.846   4.906   4.166  0.5321  0.1773 -0.1015
  105OSM   H18U10659   4.972   4.807   4.243 -1.0930 -3.2249  2.6914
  105OSM    C1F10660   4.927   4.325   5.779  0.1481 -0.2089  0.4233
  105OSM     OF10661   4.905   4.236   5.857 -0.1521  0.2767  0.8584
  105OSM    C2F10662   5.023   4.313   5.666 -0.1115 -0.8071 -0.3224
  105OSM    H2F10663   4.971   4.289   5.571  1.4073 -1.1874 -1.0674
  105OSM    H2G10664   5.096   4.232   5.689  0.1692 -0.1930  1.0043
  105OSM    C3F10665   5.105   4.440   5.644  0.2649  0.7527  1.0716
  105OSM    H3F10666   5.163   4.469   5.735 -0.6797 -2.3988  2.7566
  105OSM    H3G10667   5.037   4.524   5.618 -0.8644 -1.0372 -1.9590
  105OSM    C4F10668   5.220   4.435   5.535 -0.2168 -0.2306  0.4696
  105OSM    H4F10669   5.272   4.533   5.527  1.9067 -1.2640  1.2388
  105OSM    H4G10670   5.171   4.420   5.436  1.6546  2.0093 -0.8843
  105OSM    C5F10671   5.309   4.311   5.553 -0.1265 -0.3831  0.2535
  105OSM    H5F10672   5.245   4.221   5.551  0.2144 -0.6768  2.1895
  105OSM    H5G10673   5.351   4.324   5.655 -0.8674  1.1283  0.3798
  105OSM    C6F10674   5.413   4.281   5.444 -0.0498  0.1476  0.0711
  105OSM    H6F10675   5.473   4.188   5.455 -1.2910 -0.9531 -2.2449
  105OSM    H6G10676   5.487   4.364   5.439  1.0302 -0.6509  2.0659
  105OSM    C7F10677   5.346   4.270   5.308 -0.3513 -0.0139  0.4969
  105OSM    H7F10678   5.307   4.362   5.260 -0.2090 -0.6633 -0.8917
  105OSM    H7G10679   5.262   4.199   5.325 -1.1480  1.1903  1.5889
  105OSM    C8F10680   5.446   4.212   5.204 -0.4168  0.0824 -0.6496
  105OSM    H8F10681   5.542   4.234   5.254  1.2976 -0.6132 -3.5496
  105OSM    H8G10682   5.447   4.277   5.114  0.6119  0.0638 -0.6458
  105OSM    C9F10683   5.421   4.064   5.168 -0.4105  0.1023 -0.4606
  105OSM    H9F10684   5.457   4.001   5.251 -0.4170  1.6012  0.6906
  105OSM   C10F10685   5.371   4.010   5.053  0.0599 -0.1055  0.7113
  105OSM   H10F10686   5.362   3.901   5.037  3.5103 -0.2046 -1.1915
  105OSM   C11F10687   5.321   4.081   4.932  0.3338  0.1246 -0.7565
  105OSM   H11F10688   5.313   4.190   4.947  1.0823  0.1916 -0.7922
  105OSM   H11G10689   5.217   4.045   4.920  1.0173 -1.8522 -0.9760
  105OSM   C12F10690   5.407   4.066   4.810  0.3948  0.2554  0.5320
  105OSM   H12F10691   5.427   3.960   4.783 -0.5567  0.3177 -0.4352
  105OSM   H12G10692   5.509   4.102   4.836  0.7357 -1.5555  1.8149
  105OSM   C13F10693   5.335   4.122   4.689 -0.0317 -0.2513  0.8030
  105OSM   H13F10694   5.333   4.233   4.698  0.0628  0.0512 -2.3630
  105OSM   H13G10695   5.232   4.079   4.689 -0.2881  0.2781  2.9803
  105OSM   C14F10696   5.410   4.090   4.561 -0.5872  0.7686  0.0692
  105OSM   H14F10697   5.519   4.082   4.581 -0.1948  1.8866 -1.5103
  105OSM   H14G10698   5.391   4.169   4.485 -1.2402  2.3885  1.8908
  105OSM   C15F10699   5.368   3.950   4.502 -0.2348 -0.3448  0.7912
  105OSM   H15F10700   5.262   3.958   4.471  0.0470  1.0392  0.1756
  105OSM   H15G10701   5.382   3.872   4.580  0.1494 -2.0099 -0.8956
  105OSM   C16F10702   5.441   3.925   4.374 -0.1593  0.4426  0.3098
  105OSM   H16F10703   5.550   3.909   4.392  0.3497  3.2699  0.0282
  105OSM   H16G10704   5.428   4.006   4.300 -0.8763 -0.5941 -0.7095
  105OSM   C17F10705   5.371   3.806   4.301 -0.5736  0.5998 -0.5444
  105OSM   H17F10706   5.431   3.786   4.210  0.8538  2.3102 -0.0109
  105OSM   H17G10707   5.270   3.838   4.267 -0.8312 -0.0091 -0.3690
  105OSM   C18F10708   5.359   3.676   4.382  0.8052 -0.5191  0.4870
  105OSM   H18F10709   5.447   3.659   4.448 -0.4944  0.1583  2.4432
  105OSM   H18G10710   5.359   3.588   4.313 -1.0117  0.8158 -1.2738
  105OSM   H18H10711   5.268   3.680   4.445  0.5130 -1.6854  0.1511
  106OSM      N10712   3.637   1.124   6.404  0.4485 -0.1377  0.2122
  106OSM    C1510713   3.628   1.156   6.263  0.2552 -0.2249 -0.1163
  106OSM   H15A10714   3.705   1.224   6.231 -1.4636  1.6370 -0.4403
  106OSM   H15B10715   3.534   1.209   6.249 -0.2194 -0.5593  1.7396
  106OSM   H15C10716   3.636   1.070   6.198  0.0264 -1.0382  0.9203
  106OSM    C1410717   3.604   1.241   6.486 -0.2684 -0.4009 -0.1561
  106OSM   H14A10718   3.504   1.277   6.472  0.6041  0.7879 -4.1009
  106OSM   H14B10719   3.659   1.329   6.456 -2.9719  2.6511  3.4393
  106OSM   H14C10720   3.621   1.230   6.592 -0.6401  3.8246  0.4368
  106OSM    C1310721   3.545   1.002   6.431 -0.0519 -0.7883  0.2311
  106OSM   H13A10722   3.439   1.013   6.410 -0.1447 -1.4045  0.3800
  106OSM   H13B10723   3.560   0.983   6.536 -0.0945  0.4923  0.4768
  106OSM   H13C10724   3.581   0.916   6.378  3.1563  0.1744  0.7566
  106OSM    C1210725   3.782   1.083   6.435 -0.4054  0.5136 -1.0973
  106OSM   H12A10726   3.798   1.063   6.541  0.2042  1.9687 -0.9113
  106OSM   H12B10727   3.850   1.161   6.403  0.3172 -0.4239 -1.8871
  106OSM    C1110728   3.821   0.957   6.359 -0.1258  0.3644  0.9220
  106OSM   H11A10729   3.765   0.936   6.265 -0.3788 -1.3144  1.4333
  106OSM   H11B10730   3.796   0.866   6.417 -0.4306  0.4242  0.8825
  106OSM      P10731   4.033   0.982   6.201 -0.2044 -0.3278 -0.0596
  106OSM    O1310732   4.036   1.127   6.186 -0.4580 -0.0212  0.4230
  106OSM    O1410733   4.161   0.915   6.199  0.1430  0.2151 -0.1200
  106OSM    O1110734   3.940   0.925   6.084  0.0887 -0.2332 -0.0789
  106OSM    O1210735   3.956   0.956   6.338  0.0941  0.4583 -0.0720
  106OSM    C1S10736   3.970   0.959   5.950 -0.1717 -0.3329 -0.0205
  106OSM    H1S10737   4.068   0.914   5.923 -0.4863 -2.9236  2.8519
  106OSM    H1T10738   3.982   1.069   5.943 -0.5399 -0.2474  0.6592
  106OSM     NF10739   3.908   0.937   5.707  0.0027  0.2199 -0.4935
  106OSM    HNF10740   3.865   0.992   5.636  0.5344 -0.5970 -1.4547
  106OSM    C2S10741   3.855   0.922   5.847  0.9888  0.9108 -0.3274
  106OSM    H2S10742   3.831   0.813   5.857 -0.1565  1.2301  0.5773
  106OSM    C3S10743   3.734   1.007   5.879  0.5109  0.0652  0.7369
  106OSM    H3S10744   3.751   1.113   5.850  0.3309 -0.3174 -0.7926
  106OSM     O310745   3.689   1.000   6.015  0.1985 -0.5209 -0.5220
  106OSM    HO310746   3.757   0.949   6.059 -1.3043  0.6885  3.4259
  106OSM    C4S10747   3.623   0.952   5.788  0.5867  0.0991  0.8909
  106OSM    H4S10748   3.581   0.855   5.819 -0.9319  0.3576 -0.3004
  106OSM    C5S10749   3.562   1.009   5.686 -0.6742 -0.1565 -0.0886
  106OSM    H5S10750   3.591   1.115   5.673  0.8027 -0.4119  1.0121
  106OSM    C6S10751   3.453   0.947   5.616  0.0416 -0.5097  0.1946
  106OSM    H6S10752   3.359   0.995   5.651  1.8172  0.9646  3.0927
  106OSM    H6T10753   3.446   0.836   5.625 -0.7330 -0.5344 -0.5507
  106OSM    C7S10754   3.462   0.977   5.464  0.2390 -0.0171  0.7231
  106OSM    H7S10755   3.505   1.077   5.443  1.7385 -0.6357  0.7510
  106OSM    H7T10756   3.359   0.966   5.425  0.5802  0.0207 -0.2020
  106OSM    C8S10757   3.546   0.868   5.397  0.2266  0.4578 -0.5797
  106OSM    H8S10758   3.505   0.766   5.412  2.3135 -0.1432  1.2560
  106OSM    H8T10759   3.647   0.868   5.443  1.4445  0.6701 -3.1685
  106OSM    C9S10760   3.560   0.906   5.250 -0.8920 -0.7510 -0.1480
  106OSM    H9S10761   3.634   0.844   5.195  0.6064  0.2662  0.6798
  106OSM    H9T10762   3.593   1.012   5.247  0.4976 -1.1971 -0.9722
  106OSM   C10S10763   3.436   0.901   5.165  0.0776  0.1223  0.2531
  106OSM   H10S10764   3.356   0.965   5.206  1.9501  1.6507  1.6294
  106OSM   H10T10765   3.401   0.796   5.165  1.3184 -0.2975  0.0193
  106OSM   C11S10766   3.456   0.947   5.020 -0.2767  0.0683 -0.1719
  106OSM   H11S10767   3.534   0.893   4.962 -0.0180  1.7766 -1.4593
  106OSM   H11T10768   3.483   1.055   5.017  0.2661 -0.1019 -3.1606
  106OSM   C12S10769   3.324   0.950   4.941 -0.3512 -0.4572  0.0874
  106OSM   H12S10770   3.250   0.993   5.012  0.9668  0.3971  0.9677
  106OSM   H12T10771   3.277   0.850   4.929 -0.4914 -0.4196  0.3367
  106OSM   C13S10772   3.333   1.019   4.807  0.4548 -0.9430  0.1020
  106OSM   H13S10773   3.399   0.952   4.747  1.4156  0.0536  0.0188
  106OSM   H13T10774   3.383   1.117   4.819  0.2968 -1.2549  3.7654
  106OSM   C14S10775   3.196   1.031   4.731 -0.4249  0.3782  0.4393
  106OSM   H14S10776   3.121   1.083   4.795 -1.0364  1.4804 -1.1399
  106OSM   H14T10777   3.165   0.924   4.726  0.4244  0.1052  0.8493
  106OSM   C15S10778   3.214   1.103   4.598  0.1563  0.0101 -0.7361
  106OSM   H15S10779   3.301   1.065   4.540  1.0780  2.1581 -0.8395
  106OSM   H15T10780   3.257   1.202   4.627  0.2034 -0.2194  0.0017
  106OSM   C16S10781   3.090   1.123   4.508  0.1049 -0.3448 -0.0917
  106OSM   H16S10782   3.121   1.184   4.420 -0.4716 -0.6931 -0.5393
  106OSM   H16T10783   3.023   1.185   4.570  0.2929  0.0035 -0.2349
  106OSM   C17S10784   3.026   0.998   4.468 -0.4778  0.2920  0.5335
  106OSM   H17S10785   2.933   1.012   4.409 -0.6802 -0.5397  0.6399
  106OSM   H17T10786   2.989   0.946   4.559  0.2727 -0.6722  0.2986
  106OSM   C18S10787   3.127   0.903   4.389 -0.4943 -0.3617  0.6374
  106OSM   H18S10788   3.057   0.826   4.350 -0.9754 -0.0454  0.8656
  106OSM   H18T10789   3.205   0.849   4.446 -0.0337 -0.9259 -0.5161
  106OSM   H18U10790   3.179   0.961   4.310  0.1687 -1.6416  0.1153
  106OSM    C1F10791   3.997   0.852   5.659 -0.0966 -0.6080 -0.7140
  106OSM     OF10792   4.017   0.744   5.704 -0.1997 -0.2686 -0.0226
  106OSM    C2F10793   4.064   0.886   5.530 -0.2024  0.7252 -0.2526
  106OSM    H2F10794   4.089   0.794   5.475 -1.0793  1.0091 -1.1270
  106OSM    H2G10795   4.162   0.932   5.558  0.5375 -0.3596 -1.0348
  106OSM    C3F10796   3.989   0.980   5.436  0.2225  0.2315  0.3178
  106OSM    H3F10797   3.981   1.086   5.470 -1.7465 -0.4466  2.0105
  106OSM    H3G10798   3.883   0.948   5.442  0.8419 -1.9548  0.0071
  106OSM    C4F10799   4.036   0.957   5.295  0.1373 -0.1714 -0.5717
  106OSM    H4F10800   4.047   0.849   5.271 -0.3561 -0.8708  2.1772
  106OSM    H4G10801   4.139   0.995   5.273  0.2168  0.0600  0.1854
  106OSM    C5F10802   3.944   1.037   5.190 -0.7440 -0.3949 -0.1843
  106OSM    H5F10803   3.955   1.147   5.207  0.8438 -0.3446 -1.4395
  106OSM    H5G10804   3.840   1.008   5.218 -0.2465 -0.2089  1.9350
  106OSM    C6F10805   3.989   1.006   5.045 -0.2896 -0.1532  0.5779
  106OSM    H6F10806   3.911   1.027   4.969 -1.1377  2.8699  2.2133
  106OSM    H6G10807   4.005   0.896   5.034 -0.3946  0.0396 -1.6806
  106OSM    C7F10808   4.117   1.084   5.009 -0.1247 -0.5123 -0.7334
  106OSM    H7F10809   4.182   1.067   5.098 -0.3078 -0.2942 -0.5574
  106OSM    H7G10810   4.093   1.190   4.987  1.8553  0.1617  0.2638
  106OSM    C8F10811   4.178   1.022   4.885 -0.3576  0.0925 -0.1030
  106OSM    H8F10812   4.196   0.913   4.899  2.8319  0.6609  0.5274
  106OSM    H8G10813   4.277   1.069   4.870 -0.6265  0.2994 -1.3265
  106OSM    C9F10814   4.102   1.041   4.756 -0.0966  0.3058  0.4693
  106OSM    H9F10815   4.032   0.957   4.744 -0.0660  0.3646 -0.1424
  106OSM   C10F10816   4.106   1.133   4.659 -0.1938  0.6050  0.0204
  106OSM   H10F10817   4.044   1.114   4.570  1.6404 -1.4575 -0.8620
  106OSM   C11F10818   4.207   1.239   4.654  0.0141 -0.3194  0.0505
  106OSM   H11F10819   4.307   1.201   4.623  0.2390  0.1599  0.1754
  106OSM   H11G10820   4.227   1.295   4.748 -2.7174  1.7190 -0.5249
  106OSM   C12F10821   4.155   1.344   4.552  0.4537 -0.5448  0.7385
  106OSM   H12F10822   4.133   1.299   4.453 -2.8873 -0.2572  1.2983
  106OSM   H12G10823   4.236   1.420   4.554  0.1408 -0.2311  1.8482
  106OSM   C13F10824   4.033   1.418   4.608  0.6992 -0.2210  0.0672
  106OSM   H13F10825   4.075   1.477   4.692  1.2514 -1.0872  0.4037
  106OSM   H13G10826   3.962   1.339   4.640  1.5461 -0.8442  0.4267
  106OSM   C14F10827   3.967   1.510   4.503 -0.2246 -0.4212 -0.3603
  106OSM   H14F10828   3.863   1.531   4.538 -0.0278  0.1856 -0.1500
  106OSM   H14G10829   3.950   1.455   4.407 -1.3330  0.3908 -0.6365
  106OSM   C15F10830   4.051   1.631   4.473  0.1204  0.5453 -0.0069
  106OSM   H15F10831   3.994   1.692   4.399  2.7401  1.7058 -1.1357
  106OSM   H15G10832   4.147   1.612   4.419  0.0624  4.5372 -1.7733
  106OSM   C16F10833   4.094   1.716   4.593  0.3085 -0.5207  0.0863
  106OSM   H16F10834   4.163   1.645   4.643 -1.9708 -1.6610  1.6876
  106OSM   H16G10835   4.011   1.725   4.666  0.2746  0.8221 -0.1176
  106OSM   C17F10836   4.162   1.849   4.562 -0.6532 -0.5937 -0.0316
  106OSM   H17F10837   4.234   1.830   4.481 -0.6695 -0.8009  0.0022
  106OSM   H17G10838   4.226   1.877   4.649  1.7568  1.7762 -2.4941
  106OSM   C18F10839   4.072   1.959   4.521 -0.5101  0.1284  0.0403
  106OSM   H18F10840   4.116   2.031   4.448  1.4838  0.5670  1.6356
  106OSM   H18G10841   4.046   2.013   4.614  0.3585  1.2733 -0.3586
  106OSM   H18H10842   3.980   1.912   4.481  0.2639 -2.6073  1.3085
  107OSM      N10843   4.153   6.088   6.476 -0.2306 -0.7054  0.4696
  107OSM    C1510844   4.287   6.170   6.488 -0.2189 -0.7223 -0.1349
  107OSM   H15A10845   4.349   6.139   6.405 -2.7826  0.3952 -2.5613
  107OSM   H15B10846   4.344   6.156   6.578  0.7189 -0.1400 -0.6349
  107OSM   H15C10847   4.266   6.276   6.482  0.7028 -0.6021 -1.3582
  107OSM    C1410848   4.120   6.093   6.328  0.3644 -0.2694  0.6081
  107OSM   H14A10849   4.090   6.192   6.298  0.6753 -0.3008  0.1970
  107OSM   H14B10850   4.028   6.044   6.299 -0.1294  1.3459 -0.6261
  107OSM   H14C10851   4.209   6.072   6.271  1.3688 -0.1681  2.1239
  107OSM    C1310852   4.172   5.943   6.501  0.3553  0.2680 -0.6194
  107OSM   H13A10853   4.245   5.903   6.431  1.5345  1.0384  0.1410
  107OSM   H13B10854   4.084   5.881   6.493 -0.1784  0.5267  2.6901
  107OSM   H13C10855   4.224   5.916   6.592 -0.7297 -1.3483 -0.4678
  107OSM    C1210856   4.039   6.128   6.571  0.4492  0.0550 -0.8375
  107OSM   H12A10857   4.061   6.110   6.675  0.9305 -1.3320 -1.1741
  107OSM   H12B10858   3.958   6.059   6.553  2.4519 -1.6591 -3.8905
  107OSM    C1110859   3.996   6.276   6.553 -0.1933  0.7186 -1.1135
  107OSM   H11A10860   4.073   6.355   6.567  0.5064 -0.1842  0.2850
  107OSM   H11B10861   3.924   6.314   6.628  0.6156 -1.7350  0.9668
  107OSM      P10862   3.800   6.239   6.384  0.1989 -0.2094  0.1665
  107OSM    O1310863   3.777   6.105   6.441  0.1039 -0.2843 -0.1582
  107OSM    O1410864   3.686   6.332   6.393  0.3851  0.1061 -0.6000
  107OSM    O1110865   3.839   6.212   6.230  0.2246 -0.2450  0.3109
  107OSM    O1210866   3.939   6.305   6.424  0.4327  0.0398 -0.3888
  107OSM    C1S10867   3.914   6.312   6.163 -0.0545  0.0708 -0.4065
  107OSM    H1S10868   4.015   6.303   6.209 -0.4637 -0.1347  0.4626
  107OSM    H1T10869   3.872   6.413   6.185  1.1835  0.5888 -0.3460
  107OSM     NF10870   4.016   6.386   5.955 -0.3331 -0.0495  0.0514
  107OSM    HNF10871   4.002   6.477   5.919  1.4026 -0.3512 -1.4489
  107OSM    C2S10872   3.913   6.302   6.003 -0.0348 -1.0758  0.6722
  107OSM    H2S10873   3.927   6.192   5.994  3.8100 -0.5522 -0.3432
  107OSM    C3S10874   3.770   6.345   5.949 -0.6270 -0.2601  0.9859
  107OSM    H3S10875   3.756   6.455   5.958  0.3755 -0.2787  3.1161
  107OSM     O310876   3.666   6.302   6.037  0.7312  0.8021 -0.0333
  107OSM    HO310877   3.707   6.263   6.114 -0.8487 -0.0784  0.3974
  107OSM    C4S10878   3.750   6.282   5.815 -0.1849 -1.2561 -0.0268
  107OSM    H4S10879   3.714   6.179   5.827  1.3621 -1.8219 -0.1448
  107OSM    C5S10880   3.763   6.338   5.693  0.0821  0.0198  0.3435
  107OSM    H5S10881   3.796   6.443   5.692 -1.0055  0.4001  1.6518
  107OSM    C6S10882   3.731   6.260   5.575 -0.3865 -0.3612 -1.1198
  107OSM    H6S10883   3.629   6.286   5.540 -0.2960  2.9003  0.8756
  107OSM    H6T10884   3.746   6.150   5.589 -0.2178 -0.1545  0.4179
  107OSM    C7S10885   3.829   6.292   5.464  0.0498 -0.9851  0.0286
  107OSM    H7S10886   3.932   6.273   5.501  0.2686 -0.6802 -0.4166
  107OSM    H7T10887   3.812   6.401   5.451 -0.5744 -0.8368  2.0065
  107OSM    C8S10888   3.798   6.222   5.332  0.0325 -0.3381 -1.2125
  107OSM    H8S10889   3.690   6.221   5.308 -0.3477  0.7283  0.3889
  107OSM    H8T10890   3.833   6.119   5.352  0.5352 -0.1563 -1.1525
  107OSM    C9S10891   3.870   6.284   5.218  0.1156  0.7977 -0.4881
  107OSM    H9S10892   3.834   6.234   5.125  1.4956 -0.3495 -0.4009
  107OSM    H9T10893   3.976   6.266   5.243 -0.5631 -0.4534  1.5695
  107OSM   C10S10894   3.859   6.437   5.199 -0.8627 -0.3171 -0.2310
  107OSM   H10S10895   3.924   6.475   5.281  0.7009  0.2083 -1.6856
  107OSM   H10T10896   3.755   6.474   5.200 -0.4436  0.9218 -1.3472
  107OSM   C11S10897   3.914   6.486   5.064 -0.3670  0.5572 -0.5163
  107OSM   H11S10898   4.015   6.445   5.046 -0.4613  0.0622  0.1097
  107OSM   H11T10899   3.931   6.594   5.082  0.7657  0.3654 -0.4219
  107OSM   C12S10900   3.822   6.473   4.946  0.1993  0.5852  0.2781
  107OSM   H12S10901   3.719   6.499   4.978 -0.2227 -0.5005 -0.1720
  107OSM   H12T10902   3.809   6.368   4.910 -1.7977  0.2744  1.7950
  107OSM   C13S10903   3.863   6.545   4.815  0.3068 -0.6865  0.3191
  107OSM   H13S10904   3.962   6.512   4.777  1.9302  1.9299  2.0635
  107OSM   H13T10905   3.876   6.652   4.843 -2.7633 -0.7026  2.0518
  107OSM   C14S10906   3.765   6.530   4.702 -0.0884 -0.5313 -0.6156
  107OSM   H14S10907   3.658   6.528   4.732 -0.1053 -0.7541 -0.6898
  107OSM   H14T10908   3.793   6.440   4.643  0.2120  0.0132 -1.3112
  107OSM   C15S10909   3.785   6.649   4.603  0.4163  0.7589 -0.5550
  107OSM   H15S10910   3.894   6.664   4.591  0.7207 -0.1215  0.9427
  107OSM   H15T10911   3.748   6.731   4.670 -1.5228 -0.0854 -0.5460
  107OSM   C16S10912   3.695   6.647   4.477 -0.5086 -0.2033  0.3793
  107OSM   H16S10913   3.593   6.605   4.492 -0.1131 -1.4953 -0.4187
  107OSM   H16T10914   3.738   6.593   4.390 -1.5841 -0.7429  0.1755
  107OSM   C17S10915   3.685   6.788   4.417 -0.5211  0.0052  0.7287
  107OSM   H17S10916   3.636   6.776   4.317 -1.2135 -0.0583  1.0746
  107OSM   H17T10917   3.788   6.829   4.409 -0.6905  0.7103  2.1353
  107OSM   C18S10918   3.590   6.878   4.492 -0.1164 -0.0272  0.6787
  107OSM   H18S10919   3.500   6.817   4.517 -0.7778  0.3381 -0.7694
  107OSM   H18T10920   3.562   6.961   4.424 -1.5433  0.6125  2.0107
  107OSM   H18U10921   3.645   6.914   4.582 -2.8914 -1.5595  3.0820
  107OSM    C1F10922   4.139   6.341   5.950 -0.0319  0.0619 -0.7280
  107OSM     OF10923   4.167   6.233   5.996  0.4784 -0.3769  0.0357
  107OSM    C2F10924   4.234   6.428   5.881  0.3092 -0.1466 -0.7666
  107OSM    H2F10925   4.295   6.476   5.961  0.1959 -1.6775  0.2849
  107OSM    H2G10926   4.181   6.516   5.841 -1.6085  1.3830  4.6692
  107OSM    C3F10927   4.311   6.346   5.778 -0.0964  0.0732 -0.6675
  107OSM    H3F10928   4.351   6.253   5.823  0.9103  0.1805 -1.3325
  107OSM    H3G10929   4.402   6.404   5.754 -0.3945  0.0848 -1.7952
  107OSM    C4F10930   4.242   6.322   5.644  0.3648  0.5033 -0.7013
  107OSM    H4F10931   4.215   6.419   5.595 -2.3671 -0.3145 -0.9020
  107OSM    H4G10932   4.150   6.261   5.639 -0.5552  1.8578 -0.7939
  107OSM    C5F10933   4.347   6.254   5.555  0.0864 -0.6002  0.7026
  107OSM    H5F10934   4.369   6.162   5.613 -1.7097 -1.7954 -0.4777
  107OSM    H5G10935   4.437   6.319   5.558 -1.0816  1.1167 -0.2106
  107OSM    C6F10936   4.309   6.229   5.409  0.5787 -0.3993 -0.1943
  107OSM    H6F10937   4.222   6.160   5.414  0.7502 -0.5470  0.9529
  107OSM    H6G10938   4.400   6.175   5.375  1.3693  0.3287  0.7313
  107OSM    C7F10939   4.271   6.352   5.318 -0.4337 -0.6681  0.2155
  107OSM    H7F10940   4.339   6.438   5.338 -0.9865 -0.0285 -0.6146
  107OSM    H7G10941   4.170   6.376   5.357 -1.4704 -3.1135 -0.8345
  107OSM    C8F10942   4.258   6.329   5.162 -0.0545 -0.2000  0.7296
  107OSM    H8F10943   4.203   6.418   5.124  1.8838  1.6955  2.2883
  107OSM    H8G10944   4.184   6.247   5.148  0.9368 -1.1212  0.8101
  107OSM    C9F10945   4.387   6.295   5.087  0.5778  0.0995 -0.8273
  107OSM    H9F10946   4.418   6.189   5.089 -1.1100 -0.4198  3.5283
  107OSM   C10F10947   4.453   6.379   5.007 -0.3114  0.3124 -0.6806
  107OSM   H10F10948   4.548   6.347   4.962  0.9992  0.7059  1.7571
  107OSM   C11F10949   4.421   6.527   4.989  0.2549 -0.0464 -0.8665
  107OSM   H11F10950   4.520   6.576   4.978  0.8629 -1.0223  0.2787
  107OSM   H11G10951   4.381   6.568   5.084  1.4583 -0.6003 -0.1122
  107OSM   C12F10952   4.327   6.576   4.873 -0.5157  0.1051 -0.1384
  107OSM   H12F10953   4.239   6.507   4.875  0.4519 -1.1991 -1.5287
  107OSM   H12G10954   4.381   6.568   4.776 -0.1820  1.1909 -0.0430
  107OSM   C13F10955   4.269   6.715   4.882 -0.5448 -0.2781  0.6158
  107OSM   H13F10956   4.227   6.723   4.985 -1.7989  1.4134 -0.0089
  107OSM   H13G10957   4.184   6.729   4.812  0.6224 -0.8949 -0.9565
  107OSM   C14F10958   4.364   6.825   4.836 -0.1312 -0.0528  0.3122
  107OSM   H14F10959   4.457   6.827   4.896  1.0963  1.8018 -1.5435
  107OSM   H14G10960   4.324   6.929   4.838  2.2139  1.1302 -4.2402
  107OSM   C15F10961   4.393   6.810   4.684 -0.3092 -0.7422 -0.0225
  107OSM   H15F10962   4.306   6.768   4.629 -1.3979 -0.0945  1.1972
  107OSM   H15G10963   4.483   6.747   4.664 -0.7912 -1.8329  1.1479
  107OSM   C16F10964   4.409   6.949   4.613 -0.1523  0.1457  0.8878
  107OSM   H16F10965   4.505   6.990   4.649  0.1124 -1.1836  1.6984
  107OSM   H16G10966   4.322   7.011   4.644  0.7175  1.8242  0.0365
  107OSM   C17F10967   4.422   6.949   4.457  0.0557 -0.0660 -0.4268
  107OSM   H17F10968   4.438   7.053   4.422  1.5852 -0.0241  0.3383
  107OSM   H17G10969   4.325   6.912   4.418 -0.7578  2.6835 -1.0638
  107OSM   C18F10970   4.533   6.858   4.403  0.1390  0.0670  0.3394
  107OSM   H18F10971   4.521   6.845   4.293 -1.4630 -1.3324  0.6643
  107OSM   H18G10972   4.509   6.755   4.437  1.0654 -0.5728 -0.9181
  107OSM   H18H10973   4.638   6.888   4.423  0.8520 -1.2705 -1.2438
  108OSM      N10974   5.298   2.102   6.452 -0.2105  0.3619 -0.3022
  108OSM    C1510975   5.162   2.124   6.521 -0.6480  0.1773 -0.1715
  108OSM   H15A10976   5.178   2.148   6.625 -1.4207  1.1615 -0.2841
  108OSM   H15B10977   5.096   2.038   6.518  2.7176 -2.4547 -2.2062
  108OSM   H15C10978   5.097   2.189   6.466 -0.2530 -0.4976 -1.4656
  108OSM    C1410979   5.378   2.019   6.539 -0.3120  0.4615 -0.1775
  108OSM   H14A10980   5.474   2.004   6.490  0.7574  1.4901  1.5486
  108OSM   H14B10981   5.338   1.926   6.575 -1.0890  0.6863 -0.4590
  108OSM   H14C10982   5.403   2.071   6.630  0.4620 -1.2626  0.6220
  108OSM    C1310983   5.279   2.030   6.313 -0.1277  0.6846 -0.1269
  108OSM   H13A10984   5.229   1.937   6.336 -1.0776  1.6114  1.6582
  108OSM   H13B10985   5.369   1.995   6.263  0.8727  1.1247  1.3376
  108OSM   H13C10986   5.223   2.091   6.243  1.6828 -0.7394 -2.9469
  108OSM    C1210987   5.363   2.237   6.437 -0.2145  0.4494  0.1364
  108OSM   H12A10988   5.287   2.297   6.387 -0.4307 -1.9522 -2.4982
  108OSM   H12B10989   5.448   2.239   6.371  0.0639  0.4909  0.4891
  108OSM    C1110990   5.398   2.312   6.564 -0.5950 -0.1680 -0.6698
  108OSM   H11A10991   5.469   2.253   6.626 -0.9991  1.0176  0.9405
  108OSM   H11B10992   5.309   2.314   6.630 -0.7528  2.5409 -0.9309
  108OSM      P10993   5.382   2.545   6.434  0.0250  0.5311  0.0940
  108OSM    O1310994   5.234   2.550   6.453  0.2686  0.2250 -0.3674
  108OSM    O1410995   5.459   2.666   6.433 -0.3614  0.0374 -0.2047
  108OSM    O1110996   5.409   2.472   6.287  0.3952  0.0961 -0.8195
  108OSM    O1210997   5.456   2.443   6.536  0.1056 -0.2451 -0.3495
  108OSM    C1S10998   5.546   2.445   6.246 -0.0443 -0.2538  0.1962
  108OSM    H1S10999   5.593   2.382   6.324 -0.7018 -5.1434 -3.1102
  108OSM    H1T11000   5.599   2.542   6.231  0.6632 -0.5748  0.6312
  108OSM     NF11001   5.669   2.277   6.108 -0.6794  0.3048  0.2617
  108OSM    HNF11002   5.755   2.314   6.075 -0.0045 -0.9420  0.5927
  108OSM    C2S11003   5.553   2.371   6.109 -0.4083  0.1691  0.2441
  108OSM    H2S11004   5.460   2.312   6.095 -0.8490  0.3633  2.1362
  108OSM    C3S11005   5.558   2.473   5.991 -0.4101 -0.0211  0.6906
  108OSM    H3S11006   5.646   2.541   5.997 -0.0889 -0.4259  0.5080
  108OSM     O311007   5.444   2.561   6.006  0.1391  0.1803 -0.2184
  108OSM    HO311008   5.381   2.524   6.068 -1.9194  2.5413 -0.7975
  108OSM    C4S11009   5.560   2.413   5.855 -0.4630 -0.5499  0.1295
  108OSM    H4S11010   5.462   2.377   5.822 -1.4112  1.4731  0.6696
  108OSM    C5S11011   5.672   2.399   5.777 -0.8689 -0.1592 -0.2335
  108OSM    H5S11012   5.762   2.445   5.821 -0.6685  1.0411 -1.8928
  108OSM    C6S11013   5.687   2.336   5.641  0.4176  0.1171  0.4439
  108OSM    H6S11014   5.777   2.272   5.649  0.6727  0.3640 -0.3741
  108OSM    H6T11015   5.707   2.401   5.553  0.7154 -0.0013  0.4235
  108OSM    C7S11016   5.569   2.245   5.603  0.0406  0.2593 -0.3773
  108OSM    H7S11017   5.492   2.313   5.560 -1.3083 -0.2151  1.2568
  108OSM    H7T11018   5.521   2.188   5.686  0.5818 -3.0133 -2.2051
  108OSM    C8S11019   5.608   2.148   5.498  0.2570  0.1260  0.6990
  108OSM    H8S11020   5.539   2.061   5.497  3.4500 -2.4984 -0.9812
  108OSM    H8T11021   5.708   2.102   5.517  0.5328 -0.0627 -1.1272
  108OSM    C9S11022   5.615   2.208   5.362  0.6837 -0.3660 -0.0612
  108OSM    H9S11023   5.701   2.275   5.340  1.7497 -1.1663  1.5673
  108OSM    H9T11024   5.522   2.263   5.338  0.7552 -0.4016 -0.4206
  108OSM   C10S11025   5.644   2.094   5.260  0.1241  0.9626  0.0810
  108OSM   H10S11026   5.553   2.030   5.263 -0.5346  1.8318 -1.0213
  108OSM   H10T11027   5.738   2.046   5.296  1.4839  1.1086 -3.0518
  108OSM   C11S11028   5.664   2.145   5.123 -0.1353 -0.1322 -0.1242
  108OSM   H11S11029   5.696   2.067   5.051 -0.7707  0.5054 -1.1164
  108OSM   H11T11030   5.744   2.222   5.124  1.1473 -1.4465 -0.2594
  108OSM   C12S11031   5.532   2.197   5.063  0.0768 -0.4674  0.3119
  108OSM   H12S11032   5.507   2.285   5.126 -1.6464 -0.1155 -0.8502
  108OSM   H12T11033   5.460   2.115   5.082  0.7428 -0.5627  2.6796
  108OSM   C13S11034   5.546   2.231   4.912 -0.2920 -0.0744 -0.2533
  108OSM   H13S11035   5.603   2.153   4.857  1.4916  1.2119 -0.2441
  108OSM   H13T11036   5.590   2.331   4.893  0.2261 -0.2050  0.2550
  108OSM   C14S11037   5.408   2.238   4.844 -0.9221  0.6681  0.4991
  108OSM   H14S11038   5.333   2.313   4.876 -1.1298  0.2182  1.0591
  108OSM   H14T11039   5.363   2.137   4.850  0.2107  0.2418  2.0860
  108OSM   C15S11040   5.425   2.258   4.694 -0.2237 -0.6795  0.8164
  108OSM   H15S11041   5.482   2.179   4.640 -0.3654 -0.7770  0.8118
  108OSM   H15T11042   5.472   2.359   4.688 -0.4540 -0.6397 -0.4210
  108OSM   C16S11043   5.289   2.278   4.638 -0.8377  0.3155  0.0248
  108OSM   H16S11044   5.279   2.372   4.580 -0.3255  0.6005  0.3945
  108OSM   H16T11045   5.220   2.304   4.720 -0.0789  0.6704  0.5572
  108OSM   C17S11046   5.236   2.162   4.560 -0.1619 -0.3007  0.3492
  108OSM   H17S11047   5.143   2.134   4.613  0.9644 -0.5724  2.2202
  108OSM   H17T11048   5.308   2.077   4.555  0.8224  0.6002 -1.4003
  108OSM   C18S11049   5.197   2.195   4.412 -0.4042 -0.7002  0.3540
  108OSM   H18S11050   5.156   2.105   4.362 -0.2250 -0.9489  0.6536
  108OSM   H18T11051   5.279   2.230   4.347 -0.7390 -1.3616 -0.4263
  108OSM   H18U11052   5.113   2.268   4.410  0.0903 -0.1532 -1.1952
  108OSM    C1F11053   5.673   2.171   6.192 -0.2903 -0.6562 -0.0387
  108OSM     OF11054   5.591   2.166   6.282 -0.3062 -0.1668  0.1057
  108OSM    C2F11055   5.782   2.070   6.173 -0.5706  0.6175 -0.4587
  108OSM    H2F11056   5.817   2.039   6.273 -2.9394 -2.3119 -0.4617
  108OSM    H2G11057   5.864   2.109   6.109  1.0737  1.1439  1.9533
  108OSM    C3F11058   5.722   1.937   6.111  0.1757 -0.0506 -0.1655
  108OSM    H3F11059   5.695   1.959   6.006  0.5261  0.5847 -0.1258
  108OSM    H3G11060   5.629   1.910   6.165  0.1329 -0.1124 -0.2701
  108OSM    C4F11061   5.818   1.817   6.114 -0.2946  0.0357 -0.6351
  108OSM    H4F11062   5.753   1.731   6.087 -2.0117  0.7835  1.0208
  108OSM    H4G11063   5.869   1.792   6.209  1.2584 -0.5992 -1.6128
  108OSM    C5F11064   5.930   1.822   6.017 -0.5484  0.3585  0.7413
  108OSM    H5F11065   6.012   1.891   6.048 -1.6636  1.8582  0.3991
  108OSM    H5G11066   5.888   1.884   5.934  1.7185  0.8569 -0.0760
  108OSM    C6F11067   5.973   1.682   5.994  0.3775  0.6205  0.0660
  108OSM    H6F11068   5.887   1.645   5.935  0.0807  0.3445  0.6638
  108OSM    H6G11069   5.965   1.623   6.088  0.3734 -2.5100 -1.8413
  108OSM    C7F11070   6.107   1.669   5.929  0.0232 -0.0158  0.1417
  108OSM    H7F11071   6.136   1.562   5.916  1.5989  0.2906  1.0584
  108OSM    H7G11072   6.172   1.725   5.999  0.6537  1.3459 -1.5209
  108OSM    C8F11073   6.132   1.730   5.785 -0.0882 -0.3981  0.2646
  108OSM    H8F11074   6.217   1.800   5.803 -0.0398 -0.0294 -1.3109
  108OSM    H8G11075   6.036   1.775   5.755  0.1981  0.2599  0.3296
  108OSM    C9F11076   6.180   1.640   5.674 -0.3315 -0.1933 -0.3148
  108OSM    H9F11077   6.237   1.555   5.715 -1.5525 -1.5480 -1.4026
  108OSM   C10F11078   6.151   1.647   5.544 -0.2751 -0.3155  0.2311
  108OSM   H10F11079   6.203   1.578   5.476 -2.1937 -0.5658 -1.0354
  108OSM   C11F11080   6.068   1.758   5.486  0.0098 -0.0608 -0.1885
  108OSM   H11F11081   6.096   1.844   5.551  0.6660 -1.0432  0.8595
  108OSM   H11G11082   5.959   1.738   5.495 -0.1603 -0.6346 -3.0071
  108OSM   C12F11083   6.105   1.786   5.336  0.4843 -0.0810 -0.3408
  108OSM   H12F11084   6.104   1.690   5.281  0.7417 -0.9059  1.0870
  108OSM   H12G11085   6.204   1.836   5.325  0.4831  0.5584  2.3227
  108OSM   C13F11086   6.011   1.892   5.269  0.0560  0.0509 -0.3339
  108OSM   H13F11087   6.024   1.991   5.317 -2.8811 -0.0550  0.7695
  108OSM   H13G11088   5.911   1.852   5.297 -0.0194  1.0768  0.9057
  108OSM   C14F11089   6.009   1.906   5.116 -0.0301  0.3286 -0.2422
  108OSM   H14F11090   6.107   1.950   5.087 -0.1189  1.6185  1.3341
  108OSM   H14G11091   5.930   1.980   5.089 -0.3991  0.2364  0.5560
  108OSM   C15F11092   5.996   1.770   5.043 -0.1780 -0.6441 -0.4322
  108OSM   H15F11093   5.911   1.713   5.087 -0.8484 -0.7920 -1.8999
  108OSM   H15G11094   6.094   1.720   5.059 -0.1072  0.9448  4.8300
  108OSM   C16F11095   5.970   1.794   4.889  0.1359  0.2886 -0.6064
  108OSM   H16F11096   6.015   1.893   4.864 -1.5637  0.8080 -1.7029
  108OSM   H16G11097   5.865   1.829   4.879 -0.2808 -1.5029 -2.6507
  108OSM   C17F11098   6.013   1.673   4.812 -0.7977 -0.2305 -0.3965
  108OSM   H17F11099   5.952   1.584   4.837 -1.4935  0.3680  0.0439
  108OSM   H17G11100   6.120   1.661   4.839 -0.8672  1.6631  0.7762
  108OSM   C18F11101   6.010   1.718   4.664  0.4618 -0.3257  0.3058
  108OSM   H18F11102   6.026   1.630   4.598  0.4458  0.9565 -1.4498
  108OSM   H18G11103   6.088   1.791   4.634 -1.0175  1.0261 -0.3779
  108OSM   H18H11104   5.907   1.749   4.635  1.0616 -0.9753 -2.6172
  109OSM      N11105   2.126   1.604   6.474  0.2109  0.1101  0.4470
  109OSM    C1511106   2.155   1.747   6.497 -0.1557 -0.3009 -0.7216
  109OSM   H15A11107   2.140   1.778   6.599  1.1855  1.6081 -1.0698
  109OSM   H15B11108   2.080   1.794   6.436 -0.7873 -0.4601 -0.0669
  109OSM   H15C11109   2.254   1.774   6.463  0.2810 -0.6235  0.2736
  109OSM    C1411110   2.189   1.504   6.573  0.0037  0.1405 -0.0791
  109OSM   H14A11111   2.160   1.402   6.549  0.3913 -0.0141  0.1053
  109OSM   H14B11112   2.160   1.528   6.674 -0.2870  0.2678 -0.1944
  109OSM   H14C11113   2.296   1.506   6.561  0.1806 -0.8466  1.2849
  109OSM    C1311114   1.975   1.588   6.495 -0.0389  0.9074  0.2488
  109OSM   H13A11115   1.958   1.625   6.596 -1.7416 -3.1599  1.5245
  109OSM   H13B11116   1.926   1.492   6.495 -0.0487  0.9017 -1.4361
  109OSM   H13C11117   1.918   1.640   6.419  1.3639  2.0961 -0.0114
  109OSM    C1211118   2.160   1.565   6.334 -0.1794 -0.5106  0.2920
  109OSM   H12A11119   2.264   1.585   6.312 -0.6815 -0.1298 -1.9245
  109OSM   H12B11120   2.100   1.628   6.270  0.5697 -0.5542 -0.4625
  109OSM    C1111121   2.126   1.425   6.290  0.4407 -0.0402 -0.5277
  109OSM   H11A11122   2.146   1.422   6.181  1.6147 -0.9150 -0.3084
  109OSM   H11B11123   2.019   1.402   6.308  0.8792 -2.7415 -1.1250
  109OSM      P11124   2.356   1.303   6.314 -0.2172  0.3467 -0.3702
  109OSM    O1311125   2.445   1.414   6.349 -0.1184 -0.2500 -0.1358
  109OSM    O1411126   2.386   1.170   6.371  0.1965 -0.5754  0.2425
  109OSM    O1111127   2.351   1.298   6.156  0.0196  0.2663 -0.0690
  109OSM    O1211128   2.211   1.334   6.357 -0.2892  0.3236  0.3599
  109OSM    C1S11129   2.465   1.332   6.080 -0.3796  0.6078  0.1906
  109OSM    H1S11130   2.555   1.312   6.141 -1.3471 -0.3710  1.3252
  109OSM    H1T11131   2.462   1.436   6.043 -0.3801 -0.4338 -2.8959
  109OSM     NF11132   2.590   1.244   5.878 -0.3970  0.4185  0.0060
  109OSM    HNF11133   2.594   1.317   5.810 -0.1636  1.7061  1.3628
  109OSM    C2S11134   2.468   1.234   5.951  0.0879  0.0961  0.0390
  109OSM    H2S11135   2.449   1.133   5.993  0.7175  0.5369  1.4326
  109OSM    C3S11136   2.350   1.274   5.856  0.5681  0.0243  0.2130
  109OSM    H3S11137   2.362   1.378   5.819  0.9694  0.6179  1.9588
  109OSM     O311138   2.220   1.271   5.916 -0.5248  0.6918  0.0798
  109OSM    HO311139   2.249   1.270   6.007  1.2253 -0.2672 -0.4703
  109OSM    C4S11140   2.346   1.179   5.736 -0.5251  0.2555 -0.0292
  109OSM    H4S11141   2.293   1.089   5.771  0.4097  0.1994  1.2449
  109OSM    C5S11142   2.383   1.214   5.610 -0.2417 -0.1362 -0.5018
  109OSM    H5S11143   2.431   1.311   5.591 -2.3036  1.0456  0.1624
  109OSM    C6S11144   2.388   1.120   5.495  0.0948  0.2226 -0.1181
  109OSM    H6S11145   2.438   1.026   5.524  0.5439  0.3280 -0.5514
  109OSM    H6T11146   2.443   1.176   5.417 -3.0524  0.6789 -2.0959
  109OSM    C7S11147   2.248   1.094   5.428 -0.0010  0.4143  0.6547
  109OSM    H7S11148   2.196   1.191   5.439  1.4696  1.0993  1.7652
  109OSM    H7T11149   2.192   1.016   5.485  3.7308 -4.0399 -1.3963
  109OSM    C8S11150   2.265   1.051   5.278 -0.4832 -0.0388 -0.2050
  109OSM    H8S11151   2.319   0.955   5.288  1.3325  1.0995  1.4910
  109OSM    H8T11152   2.333   1.119   5.222  1.1629 -0.6545  1.0129
  109OSM    C9S11153   2.144   1.023   5.197  0.0069 -0.4532 -0.3210
  109OSM    H9S11154   2.093   1.122   5.188  0.7627  0.0378  0.6831
  109OSM    H9T11155   2.070   0.953   5.240 -2.5557  2.5713  0.3469
  109OSM   C10S11156   2.173   0.984   5.050 -0.1918  0.0060 -0.0967
  109OSM   H10S11157   2.212   0.881   5.031  0.8362  0.4175 -0.2771
  109OSM   H10T11158   2.243   1.059   5.007  2.2195 -2.2151 -0.2320
  109OSM   C11S11159   2.055   0.999   4.955  0.6055 -0.5992  0.3884
  109OSM   H11S11160   2.012   1.100   4.965 -1.2403 -1.3943  0.7107
  109OSM   H11T11161   1.992   0.914   4.989  0.2465 -0.7225 -0.5747
  109OSM   C12S11162   2.097   0.952   4.816 -0.5530 -0.8230  0.1577
  109OSM   H12S11163   2.156   0.858   4.817  1.0492  0.0930 -2.3983
  109OSM   H12T11164   2.160   1.035   4.778 -3.3521  2.3590  2.1747
  109OSM   C13S11165   1.969   0.936   4.735 -0.3677 -0.3728  0.0332
  109OSM   H13S11166   1.917   1.033   4.724 -0.9691 -0.9132 -2.1998
  109OSM   H13T11167   1.899   0.876   4.798 -0.1965  0.3613  0.9294
  109OSM   C14S11168   1.991   0.866   4.600 -0.4014  0.1096  0.7451
  109OSM   H14S11169   2.010   0.758   4.611  1.3745  0.2268 -0.8674
  109OSM   H14T11170   2.064   0.914   4.531 -1.0448  0.1494  0.0784
  109OSM   C15S11171   1.852   0.852   4.527 -0.8804  0.2008  0.0516
  109OSM   H15S11172   1.786   0.780   4.580 -0.9021  1.5939  1.9622
  109OSM   H15T11173   1.882   0.800   4.434  0.7913  0.2488  0.5438
  109OSM   C16S11174   1.789   0.988   4.505  0.4934 -0.6289 -0.2681
  109OSM   H16S11175   1.873   1.059   4.484 -1.8071  2.3104  0.2488
  109OSM   H16T11176   1.739   1.037   4.591 -1.2622  0.2197 -1.7541
  109OSM   C17S11177   1.708   0.992   4.374  0.5276  0.3563 -0.8159
  109OSM   H17S11178   1.634   0.909   4.378 -0.3955  1.2095  0.2147
  109OSM   H17T11179   1.783   0.966   4.297 -0.2634  0.0520 -1.4969
  109OSM   C18S11180   1.648   1.131   4.349  0.5021  0.0304  0.0661
  109OSM   H18S11181   1.622   1.142   4.241 -0.2967 -0.4767  0.2047
  109OSM   H18T11182   1.721   1.213   4.366 -1.5150  1.7091  0.7657
  109OSM   H18U11183   1.551   1.142   4.401  1.0184  1.4211  0.7519
  109OSM    C1F11184   2.706   1.185   5.912  0.4612  0.5968  0.1638
  109OSM     OF11185   2.714   1.122   6.011 -0.2096  0.7277  0.4872
  109OSM    C2F11186   2.826   1.219   5.831 -0.0847  0.1961  0.9685
  109OSM    H2F11187   2.906   1.272   5.888 -1.7295 -0.1974  3.7345
  109OSM    H2G11188   2.795   1.274   5.740 -1.4621 -0.6168  0.9414
  109OSM    C3F11189   2.882   1.087   5.782 -0.5399 -0.6285 -0.0600
  109OSM    H3F11190   2.796   1.037   5.733 -1.3865  2.0038 -1.3488
  109OSM    H3G11191   2.924   1.033   5.869  1.1269 -0.9833 -1.0708
  109OSM    C4F11192   2.992   1.103   5.678  0.3037  0.0366 -0.4505
  109OSM    H4F11193   3.039   1.003   5.679 -2.1313 -1.1304  1.2301
  109OSM    H4G11194   3.058   1.185   5.714  1.2485 -0.4270 -1.1401
  109OSM    C5F11195   2.945   1.154   5.541 -0.8371  0.0430  0.5115
  109OSM    H5F11196   2.901   1.256   5.543 -0.8998  0.0576 -1.2553
  109OSM    H5G11197   2.867   1.081   5.512  0.0288 -0.6297 -0.1378
  109OSM    C6F11198   3.054   1.146   5.431 -0.8616 -0.2314  0.4452
  109OSM    H6F11199   3.005   1.128   5.332 -2.8098 -2.4114  1.7410
  109OSM    H6G11200   3.114   1.053   5.443 -0.0830  0.1206 -0.7087
  109OSM    C7F11201   3.144   1.267   5.429 -0.0262 -0.0018 -0.0082
  109OSM    H7F11202   3.194   1.259   5.527  2.5546 -1.0644 -1.3742
  109OSM    H7G11203   3.085   1.362   5.425 -0.8732 -0.4453  1.8469
  109OSM    C8F11204   3.253   1.279   5.315 -0.0998  0.4654  0.3411
  109OSM    H8F11205   3.280   1.176   5.284  2.0026  1.3953 -1.0167
  109OSM    H8G11206   3.343   1.325   5.361  1.2382 -1.4402 -0.3575
  109OSM    C9F11207   3.200   1.353   5.196  0.0431 -0.4293  0.6062
  109OSM    H9F11208   3.106   1.308   5.161 -0.6466 -0.1929  2.1115
  109OSM   C10F11209   3.238   1.474   5.144  0.4302  0.2210 -0.3366
  109OSM   H10F11210   3.191   1.504   5.049 -1.4098 -1.7723 -0.1059
  109OSM   C11F11211   3.350   1.553   5.195  0.4649 -0.2496 -0.0914
  109OSM   H11F11212   3.419   1.586   5.114  1.0022 -1.6731 -0.2226
  109OSM   H11G11213   3.421   1.495   5.258 -0.0370 -1.6309 -0.7829
  109OSM   C12F11214   3.309   1.682   5.274 -0.3129  0.0796 -0.0290
  109OSM   H12F11215   3.231   1.738   5.217 -1.9384 -1.0192  1.0624
  109OSM   H12G11216   3.394   1.753   5.282 -1.3495  1.3552 -0.2055
  109OSM   C13F11217   3.263   1.658   5.419 -0.7634  0.5574  0.0932
  109OSM   H13F11218   3.349   1.606   5.468  0.9561  1.7888 -1.5811
  109OSM   H13G11219   3.176   1.589   5.414 -0.1917 -0.1723  0.1565
  109OSM   C14F11220   3.250   1.785   5.501  0.0563 -0.1330 -0.9533
  109OSM   H14F11221   3.159   1.827   5.455  0.1928 -0.4075 -1.4804
  109OSM   H14G11222   3.339   1.851   5.492  2.4413 -2.9093  1.1701
  109OSM   C15F11223   3.214   1.763   5.656  0.7953  0.0976  0.1535
  109OSM   H15F11224   3.290   1.706   5.713 -0.0500 -0.8800  0.3112
  109OSM   H15G11225   3.112   1.722   5.672  0.0341  1.5455 -0.8420
  109OSM   C16F11226   3.206   1.899   5.731  0.4494  0.4751 -0.2253
  109OSM   H16F11227   3.136   1.963   5.673  2.3951  1.1253 -1.9126
  109OSM   H16G11228   3.308   1.942   5.734  0.0122  1.4342  1.2229
  109OSM   C17F11229   3.156   1.885   5.874 -0.2402 -0.3358  0.1730
  109OSM   H17F11230   3.203   1.789   5.906 -1.7903 -0.9523  0.6922
  109OSM   H17G11231   3.047   1.861   5.878 -0.1902 -0.8390 -1.1110
  109OSM   C18F11232   3.179   2.005   5.963  0.2618 -0.0642 -0.1511
  109OSM   H18F11233   3.283   2.041   5.945 -0.3654  2.1523  0.4290
  109OSM   H18G11234   3.168   1.982   6.071 -0.9240 -1.2676 -0.5237
  109OSM   H18H11235   3.113   2.089   5.933 -1.7963 -0.2500  3.5350
  110OSM      N11236   5.814   5.022   6.574  0.8578  0.5099  0.4425
  110OSM    C1511237   5.773   5.170   6.566 -0.3638 -0.6450  0.6292
  110OSM   H15A11238   5.753   5.213   6.663 -2.0628  0.1529 -0.0490
  110OSM   H15B11239   5.681   5.180   6.510  0.7168 -2.1074 -1.4556
  110OSM   H15C11240   5.850   5.237   6.532  0.3063 -0.5152  2.3905
  110OSM    C1411241   5.875   4.981   6.441 -0.1872  0.1435 -0.2929
  110OSM   H14A11242   5.960   5.045   6.421  0.1627  0.5667  2.4130
  110OSM   H14B11243   5.802   5.009   6.366 -1.7314 -2.3508  0.2195
  110OSM   H14C11244   5.915   4.881   6.434  0.5373  0.2516  1.9098
  110OSM    C1311245   5.918   5.020   6.685  0.3703 -0.2198 -0.1112
  110OSM   H13A11246   6.015   5.040   6.641  0.7805 -0.4526  0.6734
  110OSM   H13B11247   5.938   4.918   6.716 -0.8506 -0.7080 -0.9056
  110OSM   H13C11248   5.893   5.081   6.771  1.6414  1.0715 -0.6326
  110OSM    C1211249   5.699   4.934   6.612 -1.2895 -0.7718  0.3424
  110OSM   H12A11250   5.653   4.952   6.708 -2.0146 -2.3828  0.3309
  110OSM   H12B11251   5.727   4.831   6.631  2.5218 -0.2413 -1.9894
  110OSM    C1111252   5.589   4.926   6.505  0.0317  0.1719 -0.2390
  110OSM   H11A11253   5.602   5.018   6.444  1.1407 -0.3328 -0.7770
  110OSM   H11B11254   5.490   4.943   6.553 -0.1164 -0.7046 -0.2306
  110OSM      P11255   5.616   4.794   6.274  0.4854  0.0074  0.1448
  110OSM    O1311256   5.728   4.702   6.261  0.0883 -0.4528 -0.6110
  110OSM    O1411257   5.484   4.749   6.215  0.2662  0.0640 -0.1543
  110OSM    O1111258   5.652   4.935   6.214 -0.0489  0.7424  0.3786
  110OSM    O1211259   5.597   4.808   6.433 -0.3189 -0.4132  0.1345
  110OSM    C1S11260   5.683   4.939   6.077  0.4074 -0.0036 -0.5370
  110OSM    H1S11261   5.711   4.844   6.027  1.9169  0.6892 -1.0235
  110OSM    H1T11262   5.777   4.997   6.066  1.1682 -0.9977  0.6399
  110OSM     NF11263   5.631   4.997   5.843  0.4268 -0.5803 -0.2754
  110OSM    HNF11264   5.666   5.083   5.806 -0.2676  0.1039  0.6268
  110OSM    C2S11265   5.577   5.008   5.984  0.1087  0.1162  0.0225
  110OSM    H2S11266   5.483   4.950   5.976 -0.1705  0.5976 -0.2130
  110OSM    C3S11267   5.550   5.154   6.023  0.5097  0.2123 -0.1936
  110OSM    H3S11268   5.642   5.216   6.009  0.7978  0.1757  1.3540
  110OSM     O311269   5.532   5.171   6.164  0.0254 -0.1802  0.5453
  110OSM    HO311270   5.566   5.089   6.202  1.7252 -0.3927 -1.3307
  110OSM    C4S11271   5.437   5.215   5.948  0.6002  0.4880  0.5657
  110OSM    H4S11272   5.344   5.169   5.984  0.7766 -1.0922 -0.9221
  110OSM    C5S11273   5.450   5.320   5.857 -0.1107  0.7195 -0.3970
  110OSM    H5S11274   5.546   5.372   5.843 -0.7761  2.2746  0.7722
  110OSM    C6S11275   5.334   5.378   5.791  0.4411  1.1853  0.5483
  110OSM    H6S11276   5.319   5.488   5.802  0.2010  1.1658  0.4165
  110OSM    H6T11277   5.241   5.321   5.810  2.7322 -3.0567 -0.1991
  110OSM    C7S11278   5.339   5.335   5.632 -0.3749  0.1755 -0.8178
  110OSM    H7S11279   5.355   5.227   5.615 -0.7059 -0.1078  0.5585
  110OSM    H7T11280   5.422   5.390   5.583  0.8477 -0.2915  0.7005
  110OSM    C8S11281   5.215   5.359   5.546  0.2347  0.5159  0.0036
  110OSM    H8S11282   5.177   5.463   5.559  3.4825  1.5649  1.3857
  110OSM    H8T11283   5.137   5.296   5.595  0.6904 -0.9754 -1.1481
  110OSM    C9S11284   5.233   5.322   5.403  0.3688  0.8896  0.7115
  110OSM    H9S11285   5.139   5.362   5.359  0.6122  1.2789  0.5479
  110OSM    H9T11286   5.241   5.214   5.378 -0.4117  0.6888  1.2899
  110OSM   C10S11287   5.358   5.374   5.339 -0.0303  0.0362  0.5095
  110OSM   H10S11288   5.440   5.302   5.362  0.7324  0.3474 -1.1047
  110OSM   H10T11289   5.371   5.477   5.378 -3.7802  0.7549  0.0271
  110OSM   C11S11290   5.340   5.375   5.186 -0.2290 -0.1169 -0.4796
  110OSM   H11S11291   5.255   5.444   5.170  0.2399  1.0255  1.7053
  110OSM   H11T11292   5.314   5.274   5.148  0.8784 -0.5761 -0.0477
  110OSM   C12S11293   5.462   5.427   5.104 -0.5507 -0.2612  0.2151
  110OSM   H12S11294   5.550   5.359   5.106 -0.0670  0.3684  0.1510
  110OSM   H12T11295   5.489   5.527   5.142 -0.5851  0.0483 -0.5680
  110OSM   C13S11296   5.417   5.438   4.954 -0.1051 -0.0208 -0.1958
  110OSM   H13S11297   5.341   5.519   4.953  2.1045  2.1657  0.9702
  110OSM   H13T11298   5.359   5.345   4.934 -0.0590 -0.1577  0.2955
  110OSM   C14S11299   5.540   5.452   4.868 -0.0806 -0.2209  0.6370
  110OSM   H14S11300   5.580   5.349   4.871  0.6618  0.0020 -0.7756
  110OSM   H14T11301   5.625   5.520   4.893 -0.7176  0.9644 -0.3113
  110OSM   C15S11302   5.499   5.492   4.730 -0.3980 -0.0962  0.2995
  110OSM   H15S11303   5.478   5.601   4.729 -0.2422 -0.0530  1.2912
  110OSM   H15T11304   5.403   5.444   4.703 -0.5807  0.3959  0.0720
  110OSM   C16S11305   5.608   5.472   4.614  0.5325  0.2070 -0.5361
  110OSM   H16S11306   5.611   5.365   4.584  3.2001 -0.1547  0.9055
  110OSM   H16T11307   5.710   5.498   4.647 -0.2022 -0.1674  2.1416
  110OSM   C17S11308   5.592   5.568   4.496  0.5023 -0.4902  0.2746
  110OSM   H17S11309   5.667   5.542   4.418 -1.2452  1.8705 -2.2935
  110OSM   H17T11310   5.612   5.670   4.534 -0.4231 -0.5096  0.8229
  110OSM   C18S11311   5.453   5.564   4.432  0.3712  0.0640  0.5824
  110OSM   H18S11312   5.370   5.589   4.501 -1.3988 -0.8766 -1.1487
  110OSM   H18T11313   5.426   5.466   4.388  1.3942 -0.1977  0.5110
  110OSM   H18U11314   5.455   5.635   4.346 -0.7290 -0.1424  0.3767
  110OSM    C1F11315   5.660   4.892   5.773 -0.2418 -0.5463  0.0992
  110OSM     OF11316   5.625   4.786   5.817 -0.2615 -0.3625  0.0900
  110OSM    C2F11317   5.736   4.911   5.649  0.5292  0.8582 -0.1283
  110OSM    H2F11318   5.830   4.855   5.632  0.5330  1.5022 -2.4672
  110OSM    H2G11319   5.762   5.019   5.639  0.3776  0.8256 -0.9238
  110OSM    C3F11320   5.638   4.881   5.529 -0.8552 -0.1318  0.6183
  110OSM    H3F11321   5.549   4.949   5.528 -0.9099 -0.2278 -0.8293
  110OSM    H3G11322   5.603   4.776   5.530  0.0479 -0.4349 -0.2215
  110OSM    C4F11323   5.706   4.914   5.393  0.1600 -0.5458  0.3325
  110OSM    H4F11324   5.790   4.843   5.375 -0.6787 -1.1621 -1.2150
  110OSM    H4G11325   5.747   5.018   5.399 -4.5038  1.2871  3.1783
  110OSM    C5F11326   5.605   4.898   5.273 -0.4833  0.2378  0.7294
  110OSM    H5F11327   5.500   4.911   5.309  0.2732  1.2158  2.6421
  110OSM    H5G11328   5.620   4.791   5.245  0.8333  0.6798 -0.2945
  110OSM    C6F11329   5.631   4.995   5.156  0.6828 -0.0033 -0.4549
  110OSM    H6F11330   5.742   4.990   5.143  0.4530 -0.8241 -2.1595
  110OSM    H6G11331   5.610   5.097   5.196 -1.8100 -0.3616 -0.8076
  110OSM    C7F11332   5.552   4.955   5.030 -0.5175  0.2894 -0.0486
  110OSM    H7F11333   5.444   4.947   5.054 -0.0801 -0.4780  1.7381
  110OSM    H7G11334   5.591   4.859   4.992  1.6296  0.9007  0.5336
  110OSM    C8F11335   5.577   5.051   4.922 -0.3008 -0.2689 -0.1994
  110OSM    H8F11336   5.510   5.136   4.948 -0.8100  0.0426 -2.4606
  110OSM    H8G11337   5.543   4.999   4.830  0.5977 -0.3836 -0.4705
  110OSM    C9F11338   5.714   5.106   4.883 -0.1246 -0.2156 -0.0884
  110OSM    H9F11339   5.775   5.140   4.968  1.2013  1.1139 -1.5129
  110OSM   C10F11340   5.780   5.083   4.768 -0.1242 -0.8020  0.3653
  110OSM   H10F11341   5.876   5.134   4.750 -0.1918 -1.4246 -1.8662
  110OSM   C11F11342   5.726   5.008   4.648 -0.1305 -0.5957 -0.9110
  110OSM   H11F11343   5.620   5.031   4.625 -0.0606  0.5174 -0.1936
  110OSM   H11G11344   5.732   4.898   4.665  0.0503 -0.5336 -0.5628
  110OSM   C12F11345   5.796   5.031   4.513 -0.0289 -0.0991 -0.7320
  110OSM   H12F11346   5.756   4.963   4.435 -0.5701  2.4535 -2.7668
  110OSM   H12G11347   5.906   5.024   4.520 -0.0245  0.3489 -0.3552
  110OSM   C13F11348   5.774   5.179   4.459  0.3455 -0.3457  0.4916
  110OSM   H13F11349   5.834   5.246   4.525  0.2530  1.2321 -1.0123
  110OSM   H13G11350   5.665   5.199   4.457  0.6837  1.6583  1.4804
  110OSM   C14F11351   5.825   5.188   4.310 -0.5833  0.5042 -0.5379
  110OSM   H14F11352   5.765   5.108   4.261 -0.0862 -0.6603  0.7170
  110OSM   H14G11353   5.926   5.144   4.294 -0.9230 -0.5594  0.2458
  110OSM   C15F11354   5.804   5.329   4.253 -0.1368 -0.1541 -0.3161
  110OSM   H15F11355   5.889   5.394   4.284 -1.6798  1.7651 -0.0544
  110OSM   H15G11356   5.712   5.375   4.295 -0.1088 -0.0749 -0.3424
  110OSM   C16F11357   5.802   5.327   4.100 -0.2790  0.1988 -0.3668
  110OSM   H16F11358   5.765   5.428   4.071  1.4384  0.6910 -0.8786
  110OSM   H16G11359   5.726   5.250   4.075 -0.4827  0.1871  0.2620
  110OSM   C17F11360   5.938   5.283   4.055 -0.5466 -0.4587 -0.1479
  110OSM   H17F11361   5.977   5.194   4.108 -2.3149 -0.4080  1.3184
  110OSM   H17G11362   6.006   5.367   4.081  0.9562 -0.7344 -3.0514
  110OSM   C18F11363   5.936   5.272   3.901  0.3562  0.8130 -0.1320
  110OSM   H18F11364   6.029   5.242   3.846  0.1381 -0.8328  0.3570
  110OSM   H18G11365   5.915   5.368   3.848  1.4277  2.2762  2.0361
  110OSM   H18H11366   5.854   5.206   3.865  1.9209  0.1051 -2.5639
  111OSM      N11367   0.629   4.469   6.779 -0.1781 -0.4784 -0.0372
  111OSM    C1511368   0.730   4.370   6.739 -0.5063 -0.5624  0.2029
  111OSM   H15A11369   0.749   4.380   6.633 -1.2972 -0.4213  0.0680
  111OSM   H15B11370   0.704   4.265   6.735 -0.3575 -0.5717 -0.4884
  111OSM   H15C11371   0.823   4.387   6.791  1.3886 -1.7582 -2.6426
  111OSM    C1411372   0.492   4.444   6.715 -0.0115 -0.0602 -0.4547
  111OSM   H14A11373   0.461   4.341   6.711 -1.2392  0.3311 -1.3053
  111OSM   H14B11374   0.483   4.484   6.615  0.0352 -1.8872 -1.1994
  111OSM   H14C11375   0.414   4.500   6.765 -1.5155  0.0300 -2.8264
  111OSM    C1311376   0.602   4.465   6.926  0.1935  0.4871 -0.7690
  111OSM   H13A11377   0.576   4.363   6.948  0.2306  0.7256  0.4070
  111OSM   H13B11378   0.522   4.532   6.955  1.8725  1.5347  1.6434
  111OSM   H13C11379   0.693   4.487   6.981  0.8656 -1.6419 -1.0024
  111OSM    C1211380   0.664   4.615   6.748  0.2032  0.4688  0.5642
  111OSM   H12A11381   0.715   4.657   6.834 -1.2339  0.5321  1.4002
  111OSM   H12B11382   0.577   4.674   6.725  0.6039  0.6877 -0.4231
  111OSM    C1111383   0.745   4.632   6.615 -0.2624 -0.0833  0.4686
  111OSM   H11A11384   0.845   4.584   6.626  1.3251  2.8084 -0.8208
  111OSM   H11B11385   0.780   4.736   6.606  0.6557 -0.4336 -0.0726
  111OSM      P11386   0.726   4.519   6.385  0.2515  0.4184  0.0459
  111OSM    O1311387   0.820   4.427   6.443  0.2070  0.3787  0.1263
  111OSM    O1411388   0.623   4.474   6.286  0.8287  0.5628  0.3240
  111OSM    O1111389   0.800   4.639   6.310  0.0153 -0.3667 -0.0124
  111OSM    O1211390   0.650   4.589   6.505 -0.7509  0.1239  0.2146
  111OSM    C1S11391   0.737   4.771   6.307 -0.3097 -0.1440  0.0203
  111OSM    H1S11392   0.807   4.818   6.379 -1.0327  1.5699 -0.3698
  111OSM    H1T11393   0.632   4.775   6.345 -0.5010 -0.7553 -0.4362
  111OSM     NF11394   0.746   4.984   6.184 -0.1373  0.3543  0.2354
  111OSM    HNF11395   0.653   5.020   6.187 -0.3388 -0.2616  1.5912
  111OSM    C2S11396   0.746   4.839   6.164 -0.2136 -0.1407 -0.4254
  111OSM    H2S11397   0.842   4.803   6.121 -1.3296 -2.8908 -0.6730
  111OSM    C3S11398   0.625   4.798   6.070  1.2042  0.7237  0.1637
  111OSM    H3S11399   0.528   4.816   6.123  0.9342 -2.2327  0.7744
  111OSM     O311400   0.618   4.658   6.038  0.9316 -0.6735  0.1473
  111OSM    HO311401   0.635   4.621   6.125 -0.3168  0.3719  0.8574
  111OSM    C4S11402   0.629   4.871   5.940 -0.4464 -0.0738  0.6022
  111OSM    H4S11403   0.723   4.849   5.886  0.2981 -1.6712  2.4579
  111OSM    C5S11404   0.535   4.948   5.892 -0.2022 -1.4434  0.1504
  111OSM    H5S11405   0.454   4.974   5.962  1.1049 -1.7786  1.8195
  111OSM    C6S11406   0.537   5.018   5.761  0.7949 -0.2242 -0.1292
  111OSM    H6S11407   0.586   5.117   5.768  0.8911 -0.3075  0.3972
  111OSM    H6T11408   0.430   5.040   5.741  0.6861 -0.2429  0.4235
  111OSM    C7S11409   0.604   4.941   5.643 -0.0156  0.1152  0.1156
  111OSM    H7S11410   0.560   4.842   5.623 -1.2281  0.5047  0.8082
  111OSM    H7T11411   0.708   4.915   5.671  1.1200  3.0745 -1.0956
  111OSM    C8S11412   0.585   5.026   5.515 -0.4861 -0.4536 -0.2570
  111OSM    H8S11413   0.644   5.121   5.513 -1.2987  0.0479 -2.5984
  111OSM    H8T11414   0.481   5.066   5.520 -0.4084 -0.2675 -0.1208
  111OSM    C9S11415   0.606   4.954   5.376 -0.0252 -0.4016  0.3406
  111OSM    H9S11416   0.529   4.876   5.366 -1.1015  0.5103  1.4174
  111OSM    H9T11417   0.709   4.913   5.381  1.2497  2.6736  0.8444
  111OSM   C10S11418   0.593   5.046   5.252  0.3335 -0.5933  0.4824
  111OSM   H10S11419   0.692   5.094   5.241  0.0855 -0.4488 -1.2733
  111OSM   H10T11420   0.521   5.131   5.251  1.8110  0.7452  2.6829
  111OSM   C11S11421   0.573   4.958   5.124 -0.1372 -0.4743 -0.7347
  111OSM   H11S11422   0.465   4.941   5.108 -0.2103 -1.8293  0.9835
  111OSM   H11T11423   0.615   4.856   5.140  1.7719  0.5548  0.9972
  111OSM   C12S11424   0.637   5.020   5.000 -0.5301  0.8366 -0.2476
  111OSM   H12S11425   0.632   4.942   4.921  2.4225  1.2226 -0.8687
  111OSM   H12T11426   0.744   5.040   5.018 -0.3191 -2.4696  2.8326
  111OSM   C13S11427   0.565   5.147   4.962 -0.1069  0.2480 -0.1928
  111OSM   H13S11428   0.558   5.213   5.051 -1.1262  0.0093 -0.0915
  111OSM   H13T11429   0.462   5.119   4.930 -1.1535  2.1371  1.3909
  111OSM   C14S11430   0.640   5.216   4.845  0.4424 -0.0330  0.9385
  111OSM   H14S11431   0.587   5.311   4.824  1.2091 -0.1300 -1.6035
  111OSM   H14T11432   0.622   5.151   4.757 -1.0398 -0.2152  1.3700
  111OSM   C15S11433   0.788   5.224   4.865  0.0432 -0.4173  0.3294
  111OSM   H15S11434   0.840   5.127   4.852 -1.3964 -1.1450 -0.1779
  111OSM   H15T11435   0.815   5.249   4.970  2.4019 -0.5302 -0.2295
  111OSM   C16S11436   0.847   5.326   4.768  0.4458  0.3382  0.2922
  111OSM   H16S11437   0.957   5.328   4.787  0.9300  1.3520 -2.4624
  111OSM   H16T11438   0.806   5.428   4.782  0.1812  0.4548 -1.3130
  111OSM   C17S11439   0.827   5.281   4.618 -0.0938 -0.2687 -0.3907
  111OSM   H17S11440   0.718   5.265   4.608 -0.3757  0.4811  1.2501
  111OSM   H17T11441   0.882   5.185   4.608  0.8078  0.1218  0.6822
  111OSM   C18S11442   0.873   5.383   4.518 -0.5665 -1.3545  0.1638
  111OSM   H18S11443   0.808   5.470   4.544  0.4237 -0.0616 -1.5377
  111OSM   H18T11444   0.839   5.360   4.415  0.8232  1.2606 -0.9426
  111OSM   H18U11445   0.982   5.406   4.524 -0.5782 -1.4211  0.6649
  111OSM    C1F11446   0.847   5.055   6.233  0.0331  0.6946  0.4368
  111OSM     OF11447   0.942   4.990   6.281 -0.3365  0.4884  0.4398
  111OSM    C2F11448   0.846   5.195   6.233 -0.2692 -0.2450 -0.3035
  111OSM    H2F11449   0.852   5.218   6.341 -0.0939  1.9992 -0.7662
  111OSM    H2G11450   0.754   5.242   6.193 -0.7414 -2.2228 -1.5700
  111OSM    C3F11451   0.966   5.267   6.161  0.1434  0.7938  0.3957
  111OSM    H3F11452   1.058   5.234   6.214  2.2682  2.3020 -2.2606
  111OSM    H3G11453   0.965   5.376   6.183 -1.1074  0.6192  1.2840
  111OSM    C4F11454   0.976   5.233   6.011  0.7571  0.2141  0.0419
  111OSM    H4F11455   0.987   5.123   6.003  1.3708  0.1179  2.0004
  111OSM    H4G11456   1.077   5.266   5.978  0.5065  1.9352  0.9085
  111OSM    C5F11457   0.872   5.284   5.913 -0.3272  0.1173 -0.4326
  111OSM    H5F11458   0.875   5.395   5.923 -1.6078  0.2780 -1.6358
  111OSM    H5G11459   0.773   5.241   5.938 -1.0400  0.1359 -3.0711
  111OSM    C6F11460   0.914   5.244   5.767  0.7604 -0.8676 -0.7147
  111OSM    H6F11461   1.005   5.303   5.743  0.6195  1.5202  4.0019
  111OSM    H6G11462   0.836   5.276   5.696  0.4670  0.5381  0.2187
  111OSM    C7F11463   0.933   5.090   5.750  0.0972  0.2663 -0.6432
  111OSM    H7F11464   0.841   5.039   5.788  0.9043  0.7238  2.0628
  111OSM    H7G11465   1.021   5.051   5.806  0.3707 -2.1472 -2.6731
  111OSM    C8F11466   0.956   5.063   5.602 -0.1538  0.1301 -0.1458
  111OSM    H8F11467   1.033   5.127   5.555 -1.1235  1.0922 -0.4389
  111OSM    H8G11468   0.860   5.081   5.549 -0.5117  0.3190  0.5545
  111OSM    C9F11469   0.993   4.918   5.583 -0.3189 -0.3395 -0.0249
  111OSM    H9F11470   1.020   4.855   5.669 -2.6787 -2.2421 -0.6457
  111OSM   C10F11471   1.011   4.870   5.459  0.5645 -0.4167 -0.7749
  111OSM   H10F11472   1.044   4.765   5.458 -0.6759 -0.9573  3.5210
  111OSM   C11F11473   0.990   4.948   5.331 -0.5009 -0.7838  0.4889
  111OSM   H11F11474   1.026   5.053   5.339 -0.4068 -0.7893  0.1596
  111OSM   H11G11475   0.885   4.944   5.294 -0.3865  2.8205 -0.4080
  111OSM   C12F11476   1.066   4.893   5.212 -0.9538 -0.1193  0.2209
  111OSM   H12F11477   1.065   4.783   5.195 -0.7734  0.0404 -0.8335
  111OSM   H12G11478   1.172   4.913   5.240 -1.2518  1.4976  0.2281
  111OSM   C13F11479   1.049   4.963   5.080 -0.0965 -0.2353  0.2895
  111OSM   H13F11480   1.096   5.064   5.073  0.0407 -0.3074  0.1607
  111OSM   H13G11481   0.944   4.985   5.050  0.0347 -0.1396 -0.1172
  111OSM   C14F11482   1.106   4.870   4.971 -0.8987 -0.0598  0.0053
  111OSM   H14F11483   1.086   4.904   4.867  1.1778 -1.1245 -0.7741
  111OSM   H14G11484   1.063   4.768   4.977  0.4329 -0.6071  0.4843
  111OSM   C15F11485   1.263   4.848   4.973 -0.3811 -0.4561  0.2810
  111OSM   H15F11486   1.298   4.803   5.068  0.2884  0.8886  0.6737
  111OSM   H15G11487   1.310   4.948   4.968 -1.7357  0.1329 -1.2240
  111OSM   C16F11488   1.303   4.764   4.853  0.2499 -0.2517  0.2048
  111OSM   H16F11489   1.271   4.806   4.756  0.7068  0.8947  0.5494
  111OSM   H16G11490   1.255   4.664   4.866  1.5531 -1.1275 -1.4621
  111OSM   C17F11491   1.459   4.772   4.843  0.1237  0.9461  0.5761
  111OSM   H17F11492   1.505   4.722   4.931  1.0065 -0.4351 -0.6494
  111OSM   H17G11493   1.493   4.878   4.845  0.7319  0.7888 -0.7036
  111OSM   C18F11494   1.514   4.691   4.728  0.6373  0.3644  0.1127
  111OSM   H18F11495   1.448   4.603   4.717  1.5641 -0.4032  0.6455
  111OSM   H18G11496   1.618   4.655   4.743 -0.1133 -1.7811  0.3158
  111OSM   H18H11497   1.500   4.749   4.634 -1.4584  0.1006  0.2350
  112OSM      N11498   4.542   1.188   6.382  0.7415  0.2441  0.5577
  112OSM    C1511499   4.651   1.142   6.473 -0.5712  0.6048  0.3316
  112OSM   H15A11500   4.749   1.170   6.437 -0.2570 -0.3290  0.4482
  112OSM   H15B11501   4.650   1.034   6.480 -1.9945  0.5077 -1.0572
  112OSM   H15C11502   4.636   1.192   6.567 -1.7082  2.2341 -0.6736
  112OSM    C1411503   4.404   1.169   6.446 -0.2920 -0.4705  0.8344
  112OSM   H14A11504   4.322   1.216   6.395  0.1328  0.2584  0.8125
  112OSM   H14B11505   4.396   1.231   6.535 -1.4959  0.9779 -0.2556
  112OSM   H14C11506   4.393   1.066   6.475 -1.7308 -0.7225 -0.5850
  112OSM    C1311507   4.566   1.332   6.353 -0.3723  0.0558 -0.7619
  112OSM   H13A11508   4.563   1.392   6.442 -1.8090 -0.6222 -0.3346
  112OSM   H13B11509   4.499   1.379   6.282  0.3707  1.4511 -0.5502
  112OSM   H13C11510   4.667   1.353   6.322 -0.7416 -0.2655 -2.2374
  112OSM    C1211511   4.543   1.107   6.252  0.3199 -0.0416 -0.3635
  112OSM   H12A11512   4.642   1.123   6.212  1.1976 -1.7909  1.0460
  112OSM   H12B11513   4.484   1.154   6.174 -1.6809 -1.4317  0.2714
  112OSM    C1111514   4.505   0.952   6.256 -0.1897  0.3303  0.1121
  112OSM   H11A11515   4.507   0.906   6.155 -0.8011  0.4760  0.0335
  112OSM   H11B11516   4.398   0.935   6.280  0.5602 -2.3101  1.6936
  112OSM      P11517   4.737   0.833   6.309 -0.1755 -0.2859  0.0047
  112OSM    O1311518   4.843   0.921   6.369 -0.2311 -0.3347  0.4457
  112OSM    O1411519   4.744   0.692   6.342 -0.1721  0.6852  0.5202
  112OSM    O1111520   4.744   0.840   6.148 -0.0714 -0.3876  0.3805
  112OSM    O1211521   4.589   0.872   6.337  0.1548 -0.1095 -0.1556
  112OSM    C1S11522   4.862   0.805   6.078  0.8136 -0.1558  0.5133
  112OSM    H1S11523   4.872   0.695   6.075  1.4585 -0.0766 -0.5694
  112OSM    H1T11524   4.960   0.841   6.116  2.0370 -0.9199 -1.8263
  112OSM     NF11525   4.969   0.795   5.831 -0.5561  0.6907  0.7292
  112OSM    HNF11526   5.014   0.866   5.777  0.0345  0.1300  0.4853
  112OSM    C2S11527   4.853   0.835   5.918  0.4400 -1.1179  0.3316
  112OSM    H2S11528   4.767   0.777   5.879  0.1955 -1.1882  0.9679
  112OSM    C3S11529   4.823   0.988   5.899  0.3480  0.0929 -0.0204
  112OSM    H3S11530   4.906   1.044   5.946  1.2370 -1.8195  0.7520
  112OSM     O311531   4.704   1.037   5.961  0.1750  1.0131  0.9268
  112OSM    HO311532   4.671   0.974   6.026 -3.4068 -0.6421 -2.3079
  112OSM    C4S11533   4.818   1.022   5.748  0.3236  0.2134  0.8486
  112OSM    H4S11534   4.919   1.045   5.712  0.1509  0.8653  0.7676
  112OSM    C5S11535   4.708   1.027   5.673 -0.3835 -0.0909  0.4578
  112OSM    H5S11536   4.609   1.008   5.717 -1.7334  1.1483 -1.9359
  112OSM    C6S11537   4.718   1.068   5.525 -0.2463  0.1353  0.1114
  112OSM    H6S11538   4.720   1.178   5.514  1.0065 -0.0440 -1.7098
  112OSM    H6T11539   4.618   1.049   5.480  0.2724 -0.3273 -0.8739
  112OSM    C7S11540   4.813   0.989   5.436  0.3978 -0.0877 -0.1906
  112OSM    H7S11541   4.782   0.883   5.430  1.6761 -0.5948  1.6893
  112OSM    H7T11542   4.917   0.991   5.475  0.5149 -2.0563 -0.3828
  112OSM    C8S11543   4.819   1.053   5.295 -0.6006 -0.6169 -0.3122
  112OSM    H8S11544   4.851   1.159   5.302  0.6184 -0.9856 -0.2952
  112OSM    H8T11545   4.718   1.058   5.248 -0.5928 -1.2877 -0.4025
  112OSM    C9S11546   4.903   0.979   5.188  0.2715  0.7981  0.1513
  112OSM    H9S11547   4.859   0.876   5.184 -1.3058  1.4769 -0.5704
  112OSM    H9T11548   5.010   0.975   5.218  0.0616 -0.7625  0.7892
  112OSM   C10S11549   4.885   1.047   5.054  0.9972 -0.4260 -0.0636
  112OSM   H10S11550   4.980   1.056   4.998 -0.0553  0.2150 -1.7514
  112OSM   H10T11551   4.836   1.145   5.073  1.9974 -0.4504  2.9393
  112OSM   C11S11552   4.783   0.977   4.958  0.8470 -0.4803 -0.6587
  112OSM   H11S11553   4.681   1.015   4.980  0.9812 -0.2520 -0.4372
  112OSM   H11T11554   4.787   0.867   4.965 -3.1274 -0.7767 -1.6463
  112OSM   C12S11555   4.805   1.018   4.812 -0.7612 -0.4222  0.7254
  112OSM   H12S11556   4.907   0.988   4.778 -1.3581 -2.3799  0.5611
  112OSM   H12T11557   4.792   1.128   4.811 -3.3439 -0.7024 -0.2671
  112OSM   C13S11558   4.698   0.956   4.713  0.3420  0.0071 -0.2957
  112OSM   H13S11559   4.593   0.982   4.740  0.0613 -1.4400  0.0515
  112OSM   H13T11560   4.719   0.847   4.710 -1.9354 -0.4384 -1.3773
  112OSM   C14S11561   4.728   1.018   4.576 -0.3492 -0.2204  0.1481
  112OSM   H14S11562   4.757   1.124   4.593  0.8669 -0.6174  0.5627
  112OSM   H14T11563   4.631   1.016   4.520 -0.8800  1.6374  0.9647
  112OSM   C15S11564   4.831   0.938   4.503  0.1963  0.1185 -0.0670
  112OSM   H15S11565   4.808   0.830   4.513  1.8772 -0.3516 -1.0996
  112OSM   H15T11566   4.928   0.969   4.548 -0.6322  1.9035  0.5755
  112OSM   C16S11567   4.841   0.977   4.353  0.4844 -0.5151  0.2006
  112OSM   H16S11568   4.849   1.087   4.342 -2.5554 -0.4408 -1.6977
  112OSM   H16T11569   4.746   0.941   4.308  0.2200 -0.3492  0.6155
  112OSM   C17S11570   4.964   0.922   4.287 -0.2706  0.3791  0.0262
  112OSM   H17S11571   4.970   0.812   4.277  1.0647  0.5032 -0.7433
  112OSM   H17T11572   5.059   0.945   4.341  0.6030 -0.1187 -1.2566
  112OSM   C18S11573   4.969   0.979   4.138  0.5407  0.5708  0.6081
  112OSM   H18S11574   5.033   0.916   4.073  1.0283  0.1758  1.4555
  112OSM   H18T11575   5.001   1.084   4.152 -0.3876  0.9025  0.2471
  112OSM   H18U11576   4.867   0.988   4.095  0.8246  3.7982  0.5319
  112OSM    C1F11577   4.992   0.669   5.812  0.0167  0.1215  0.5048
  112OSM     OF11578   4.963   0.580   5.893  0.3043 -0.0159  0.7918
  112OSM    C2F11579   5.056   0.629   5.673 -0.3343  0.0479  0.2255
  112OSM    H2F11580   5.072   0.520   5.678  0.0781  0.1851  2.1473
  112OSM    H2G11581   5.149   0.686   5.650 -1.6170  1.6710 -1.1260
  112OSM    C3F11582   4.956   0.650   5.552 -0.3205  0.4890  0.3658
  112OSM    H3F11583   4.954   0.759   5.530  0.5009  0.2104 -1.1544
  112OSM    H3G11584   4.852   0.624   5.581 -0.6924  2.0418  0.4836
  112OSM    C4F11585   5.010   0.576   5.433  1.1679  0.0527  0.8273
  112OSM    H4F11586   4.941   0.590   5.347  0.0166 -1.9816  1.3928
  112OSM    H4G11587   5.024   0.466   5.449  2.9337  0.3572  1.4985
  112OSM    C5F11588   5.153   0.626   5.391  0.3241  0.6222 -0.5537
  112OSM    H5F11589   5.226   0.618   5.474  2.3385 -0.5733 -2.4065
  112OSM    H5G11590   5.159   0.736   5.371  0.7587  1.1709  2.3730
  112OSM    C6F11591   5.204   0.550   5.265 -1.0804 -0.3139 -0.4512
  112OSM    H6F11592   5.123   0.534   5.191 -0.7070 -1.7203 -0.5768
  112OSM    H6G11593   5.238   0.449   5.296  1.1988  0.4172 -0.4529
  112OSM    C7F11594   5.326   0.625   5.196 -0.0601 -0.2157  0.4503
  112OSM    H7F11595   5.365   0.567   5.109 -0.6164  0.4473 -0.2477
  112OSM    H7G11596   5.409   0.629   5.269  0.1333 -0.7407  0.2608
  112OSM    C8F11597   5.295   0.767   5.148 -0.7579  0.1874 -0.0732
  112OSM    H8F11598   5.259   0.823   5.237  0.5024  2.4546 -0.9337
  112OSM    H8G11599   5.213   0.765   5.073  0.4480  0.0812 -1.4107
  112OSM    C9F11600   5.426   0.831   5.101  0.2188  0.5332  0.2478
  112OSM    H9F11601   5.483   0.876   5.183  1.4936  0.5864 -0.6526
  112OSM   C10F11602   5.465   0.847   4.976  0.6342 -0.2706  0.5190
  112OSM   H10F11603   5.566   0.883   4.948  0.4326 -1.1837 -1.4494
  112OSM   C11F11604   5.378   0.810   4.860 -0.8043 -0.1869  0.3424
  112OSM   H11F11605   5.291   0.749   4.892 -1.6674 -0.2083 -1.9875
  112OSM   H11G11606   5.425   0.732   4.797  0.5763  0.9538 -0.0704
  112OSM   C12F11607   5.341   0.929   4.769  0.6270  0.1879  0.0662
  112OSM   H12F11608   5.364   1.032   4.804  0.2765 -0.2993  1.7646
  112OSM   H12G11609   5.231   0.928   4.751  0.5687  2.6278  0.1182
  112OSM   C13F11610   5.405   0.927   4.627 -0.0168 -0.0654  0.8378
  112OSM   H13F11611   5.516   0.927   4.634  0.1569 -0.2360 -1.5478
  112OSM   H13G11612   5.388   1.022   4.573  3.3246 -0.0040 -0.2237
  112OSM   C14F11613   5.345   0.815   4.549 -0.2301 -0.0430  0.2669
  112OSM   H14F11614   5.235   0.815   4.558 -0.4444  0.3813 -2.0146
  112OSM   H14G11615   5.374   0.715   4.588  2.8911  0.3413 -0.9150
  112OSM   C15F11616   5.386   0.819   4.398 -0.3220  0.7353 -0.4692
  112OSM   H15F11617   5.497   0.808   4.401 -0.3070  1.1381  0.8040
  112OSM   H15G11618   5.356   0.921   4.368 -0.9887  0.6086 -0.2344
  112OSM   C16F11619   5.309   0.715   4.319  0.2867 -0.3867 -0.9029
  112OSM   H16F11620   5.205   0.752   4.331  0.6398  0.1232  0.6832
  112OSM   H16G11621   5.305   0.612   4.360  1.3143  0.3576  1.1653
  112OSM   C17F11622   5.336   0.712   4.170 -0.1150 -0.3368  0.2432
  112OSM   H17F11623   5.436   0.673   4.141 -0.1356  1.3233 -2.2550
  112OSM   H17G11624   5.323   0.813   4.126  1.3390  0.3956  1.4702
  112OSM   C18F11625   5.241   0.611   4.103  0.1113  0.0328  0.0715
  112OSM   H18F11626   5.264   0.590   3.996  1.8297 -2.9191  0.9838
  112OSM   H18G11627   5.136   0.647   4.106  0.2877  0.4463  1.3139
  112OSM   H18H11628   5.257   0.518   4.161  1.5617 -1.0379 -1.9565
  113OSM      N11629   0.045   3.061   6.608 -0.0286 -0.7435  0.1633
  113OSM    C1511630   0.143   3.142   6.681 -0.2228  0.0006  0.0145
  113OSM   H15A11631   0.120   3.247   6.691  0.2330  0.1090 -0.0512
  113OSM   H15B11632   0.237   3.151   6.627  0.9809 -0.5386  1.9798
  113OSM   H15C11633   0.171   3.111   6.780  0.0212  1.0054  0.2682
  113OSM    C1411634   0.046   2.918   6.646  0.3603  0.3179  0.0165
  113OSM   H14A11635   0.127   2.861   6.602 -0.9609 -1.4830 -0.1067
  113OSM   H14B11636  -0.036   2.861   6.606  1.5058 -0.7805 -0.7847
  113OSM   H14C11637   0.042   2.923   6.754  2.2087 -1.0134  0.1763
  113OSM    C1311638  -0.090   3.105   6.652 -0.7714 -0.0404  0.1650
  113OSM   H13A11639  -0.103   3.212   6.645  1.1787  0.1650 -0.7556
  113OSM   H13B11640  -0.110   3.094   6.757  0.9574 -4.2481  0.1494
  113OSM   H13C11641  -0.163   3.047   6.598  0.2232 -0.5328 -0.6761
  113OSM    C1211642   0.062   3.081   6.452  0.3642 -0.2105  0.2585
  113OSM   H12A11643   0.029   3.178   6.417  1.3582 -0.3242 -1.0288
  113OSM   H12B11644  -0.008   3.008   6.414 -0.5522  0.2134  1.1040
  113OSM    C1111645   0.201   3.039   6.390 -0.1389 -1.0190  0.6654
  113OSM   H11A11646   0.188   3.038   6.280 -2.7625 -1.1322  0.9378
  113OSM   H11B11647   0.239   2.938   6.419 -0.8425 -0.2681  4.5152
  113OSM      P11648   0.296   3.286   6.363  0.7098  0.2188  0.0741
  113OSM    O1311649   0.173   3.300   6.277  0.4980 -0.2034 -0.7142
  113OSM    O1411650   0.314   3.382   6.478 -0.0041  0.1007 -0.2193
  113OSM    O1111651   0.434   3.284   6.278  0.3534 -0.4159  0.3430
  113OSM    O1211652   0.301   3.138   6.424 -0.4380  0.2641  0.0061
  113OSM    C1S11653   0.456   3.186   6.173  0.6146  0.1713 -0.4241
  113OSM    H1S11654   0.389   3.099   6.187 -0.8229  1.3384  0.1001
  113OSM    H1T11655   0.558   3.147   6.193  0.8790  1.7755  1.4574
  113OSM     NF11656   0.481   3.131   5.945 -0.1654  0.4324  0.3807
  113OSM    HNF11657   0.580   3.118   5.940 -0.0739  1.8021 -1.6521
  113OSM    C2S11658   0.443   3.243   6.027  0.1732  0.5776 -0.4767
  113OSM    H2S11659   0.337   3.272   6.007  0.6682  2.9279  0.1124
  113OSM    C3S11660   0.538   3.364   5.999 -0.1152  0.0042 -0.1361
  113OSM    H3S11661   0.641   3.322   6.004 -0.2895 -0.4238 -0.1341
  113OSM     O311662   0.516   3.460   6.105 -0.7034  0.3344 -0.2214
  113OSM    HO311663   0.460   3.414   6.167 -0.3386 -0.8828 -0.7943
  113OSM    C4S11664   0.513   3.436   5.869  0.8453 -0.1686 -0.0191
  113OSM    H4S11665   0.424   3.500   5.864 -0.1890 -1.6083 -0.2470
  113OSM    C5S11666   0.595   3.424   5.762  0.0614  0.3457 -0.1546
  113OSM    H5S11667   0.664   3.340   5.756  0.4880  0.6873 -0.0320
  113OSM    C6S11668   0.590   3.496   5.620  0.0552 -0.3135 -0.6443
  113OSM    H6S11669   0.685   3.550   5.604  0.7688 -0.6905  2.0358
  113OSM    H6T11670   0.495   3.554   5.611 -0.7774 -1.4249  0.7055
  113OSM    C7S11671   0.581   3.394   5.502  0.2848 -0.5135 -0.3901
  113OSM    H7S11672   0.561   3.449   5.408  2.1695  1.7513  0.4717
  113OSM    H7T11673   0.498   3.323   5.519 -1.2462  1.4262  0.4034
  113OSM    C8S11674   0.715   3.316   5.487  0.5068 -0.2737  0.5612
  113OSM    H8S11675   0.716   3.242   5.570 -0.6452 -0.2855  0.5681
  113OSM    H8T11676   0.801   3.377   5.521  0.3846  0.0874  0.2186
  113OSM    C9S11677   0.726   3.232   5.360  0.1829 -0.4467  0.1523
  113OSM    H9S11678   0.636   3.167   5.371  0.3361 -0.6515  0.1886
  113OSM    H9T11679   0.812   3.162   5.358  0.9949  0.5095  1.1566
  113OSM   C10S11680   0.707   3.303   5.225  0.2516  0.3147  0.5535
  113OSM   H10S11681   0.801   3.359   5.207 -0.4706  1.1789 -0.5731
  113OSM   H10T11682   0.634   3.385   5.241  0.7558  0.6331  1.2573
  113OSM   C11S11683   0.680   3.210   5.106 -0.1180 -0.4883  0.4385
  113OSM   H11S11684   0.584   3.157   5.122 -1.5257  2.1154  0.8443
  113OSM   H11T11685   0.756   3.128   5.110  0.1026 -0.2999  0.1668
  113OSM   C12S11686   0.674   3.283   4.975  0.4123  0.8919  0.1290
  113OSM   H12S11687   0.592   3.357   4.981 -1.0309 -0.3250 -3.3527
  113OSM   H12T11688   0.653   3.214   4.890  1.9388  1.6093 -0.8537
  113OSM   C13S11689   0.803   3.376   4.943  0.0357 -0.6121 -0.1666
  113OSM   H13S11690   0.892   3.318   4.974  1.9025  1.0690 -2.2407
  113OSM   H13T11691   0.800   3.476   4.992  0.3417  0.7433 -2.8408
  113OSM   C14S11692   0.802   3.415   4.795 -0.2515  0.4039  0.9426
  113OSM   H14S11693   0.709   3.470   4.767  0.0996  0.0413 -0.9707
  113OSM   H14T11694   0.805   3.321   4.737  0.8965 -0.0610  1.7354
  113OSM   C15S11695   0.918   3.502   4.750  0.7191  0.7078  0.6895
  113OSM   H15S11696   1.015   3.459   4.782  1.1407  0.0951 -1.3194
  113OSM   H15T11697   0.906   3.607   4.782 -2.3187  1.0945 -1.4518
  113OSM   C16S11698   0.927   3.501   4.598 -0.0345 -0.3209 -0.3119
  113OSM   H16S11699   0.946   3.398   4.561  2.0781 -0.3343  0.7207
  113OSM   H16T11700   1.025   3.547   4.571  0.2036  0.1465  1.3110
  113OSM   C17S11701   0.812   3.568   4.515  0.0465  0.6991 -0.0678
  113OSM   H17S11702   0.718   3.510   4.506  0.2662  0.0682  1.5551
  113OSM   H17T11703   0.863   3.562   4.417  1.6303 -3.1511  0.8988
  113OSM   C18S11704   0.784   3.715   4.542 -0.0342  0.0668  0.0877
  113OSM   H18S11705   0.701   3.753   4.479  1.7456  0.0985 -2.3257
  113OSM   H18T11706   0.864   3.790   4.524 -0.9956  1.0174 -0.2968
  113OSM   H18U11707   0.756   3.733   4.647 -2.6034 -0.0349 -0.5512
  113OSM    C1F11708   0.398   3.029   5.922  0.2967  0.2834  0.4310
  113OSM     OF11709   0.276   3.046   5.928  0.3355 -0.5729 -0.5162
  113OSM    C2F11710   0.450   2.892   5.900 -0.1572 -0.2502  0.2070
  113OSM    H2F11711   0.365   2.823   5.918 -0.6304  0.2346 -0.1089
  113OSM    H2G11712   0.532   2.872   5.971 -1.2076 -1.6574  1.0479
  113OSM    C3F11713   0.506   2.883   5.758 -0.0749 -0.0427 -0.4153
  113OSM    H3F11714   0.565   2.789   5.750  2.1418  1.1774  0.9837
  113OSM    H3G11715   0.576   2.969   5.745  1.4679 -1.1986  0.1028
  113OSM    C4F11716   0.393   2.875   5.652  0.7020  0.0504 -0.3717
  113OSM    H4F11717   0.311   2.942   5.685  1.3477  1.2203 -1.1050
  113OSM    H4G11718   0.359   2.769   5.646 -1.4625  0.5562  2.0456
  113OSM    C5F11719   0.440   2.916   5.509 -0.4925  0.0253 -0.5914
  113OSM    H5F11720   0.545   2.879   5.505 -0.5039 -0.2910  1.5491
  113OSM    H5G11721   0.429   3.026   5.494  1.7965  0.4710  0.6789
  113OSM    C6F11722   0.374   2.832   5.392  0.2697 -0.1254  0.7106
  113OSM    H6F11723   0.270   2.866   5.373  0.1658 -0.6454  0.3304
  113OSM    H6G11724   0.364   2.728   5.428  0.2667 -0.2060  0.4807
  113OSM    C7F11725   0.453   2.841   5.260  0.3990  0.4273  0.5396
  113OSM    H7F11726   0.554   2.798   5.278  0.1917 -0.6884 -0.8463
  113OSM    H7G11727   0.466   2.946   5.226  2.0309  1.0971  3.0592
  113OSM    C8F11728   0.390   2.761   5.144 -0.4110 -0.0683  0.4610
  113OSM    H8F11729   0.286   2.796   5.131 -0.1477  0.4756 -0.2004
  113OSM    H8G11730   0.384   2.654   5.175 -2.3157  0.1222  0.7986
  113OSM    C9F11731   0.476   2.767   5.020 -0.2972  0.6647 -0.6573
  113OSM    H9F11732   0.549   2.686   5.008 -1.0023  0.0977 -1.1621
  113OSM   C10F11733   0.466   2.860   4.924  0.4573 -0.5080  0.1861
  113OSM   H10F11734   0.538   2.864   4.841 -0.6440 -2.5191 -0.9013
  113OSM   C11F11735   0.369   2.980   4.928 -0.0340  0.8583  0.5225
  113OSM   H11F11736   0.436   3.068   4.936 -1.8369  2.3601 -0.5645
  113OSM   H11G11737   0.295   2.980   5.011 -2.1606 -0.3977 -1.3229
  113OSM   C12F11738   0.280   3.015   4.798 -0.3929 -0.4511 -0.3294
  113OSM   H12F11739   0.187   3.058   4.840 -0.7573 -1.3462 -0.2067
  113OSM   H12G11740   0.252   2.926   4.738  0.6164 -0.8987 -0.1494
  113OSM   C13F11741   0.358   3.123   4.718  0.4582 -0.2572  0.1726
  113OSM   H13F11742   0.374   3.215   4.778 -0.7582 -1.6091  2.6382
  113OSM   H13G11743   0.295   3.153   4.632  0.0772  1.2029  0.9503
  113OSM   C14F11744   0.484   3.087   4.649  0.8399 -0.0201 -0.2220
  113OSM   H14F11745   0.462   2.994   4.592 -2.5048  0.0826  0.7729
  113OSM   H14G11746   0.564   3.052   4.717  0.5887  0.3788  0.2783
  113OSM   C15F11747   0.545   3.207   4.571 -1.1702 -0.3655 -0.2492
  113OSM   H15F11748   0.572   3.279   4.650  0.5863 -0.0931 -1.0755
  113OSM   H15G11749   0.457   3.258   4.526 -0.8972  0.6237  0.3286
  113OSM   C16F11750   0.653   3.164   4.470  0.6427  0.4639 -0.3945
  113OSM   H16F11751   0.679   3.247   4.401 -0.8675  0.7995 -0.5752
  113OSM   H16G11752   0.604   3.083   4.411 -1.6795  0.3157  1.6730
  113OSM   C17F11753   0.780   3.109   4.529 -0.0554 -0.3775  0.2714
  113OSM   H17F11754   0.738   3.015   4.571  1.0019 -0.8826  0.2140
  113OSM   H17G11755   0.834   3.169   4.605 -0.3749 -1.1183  1.0801
  113OSM   C18F11756   0.886   3.064   4.426  0.1229  0.5664  0.1145
  113OSM   H18F11757   0.971   3.004   4.466  0.0819  0.3969 -0.0523
  113OSM   H18G11758   0.916   3.151   4.365  1.5044  0.6722  0.9265
  113OSM   H18H11759   0.836   3.003   4.348  0.5601  0.9018 -0.4280
  114OSM      N11760   6.284   2.703   6.268  0.0040 -0.0632  0.1951
  114OSM    C1511761   6.257   2.589   6.361  0.2366 -0.3370 -0.3727
  114OSM   H15A11762   6.164   2.535   6.355 -0.5400  0.9364 -0.1306
  114OSM   H15B11763   6.262   2.628   6.461 -1.0464  2.4025 -1.3175
  114OSM   H15C11764   6.325   2.509   6.336  0.7259  0.0461 -0.2823
  114OSM    C1411765   6.249   2.656   6.128  0.0891  0.1512  0.4460
  114OSM   H14A11766   6.154   2.606   6.122  1.1828 -1.8866 -0.5901
  114OSM   H14B11767   6.323   2.582   6.099 -1.1546 -2.2423  3.2115
  114OSM   H14C11768   6.236   2.736   6.056 -0.6098 -0.1539  0.2274
  114OSM    C1311769   6.195   2.816   6.316 -0.1543 -0.2805 -0.0952
  114OSM   H13A11770   6.199   2.838   6.422  1.1738  0.0363 -0.2084
  114OSM   H13B11771   6.092   2.803   6.286  0.3306 -1.1673 -1.4224
  114OSM   H13C11772   6.225   2.907   6.268  2.3020 -1.7602 -1.4482
  114OSM    C1211773   6.437   2.746   6.267  0.6108 -0.4827 -0.8307
  114OSM   H12A11774   6.469   2.779   6.365  0.6651  2.8419 -1.8842
  114OSM   H12B11775   6.451   2.828   6.198 -0.0695  0.8759  0.6123
  114OSM    C1111776   6.537   2.637   6.227  0.9939 -0.3430 -0.1674
  114OSM   H11A11777   6.636   2.686   6.242  1.2340 -1.0637  0.6998
  114OSM   H11B11778   6.540   2.626   6.117 -1.3357  0.6081 -0.3435
  114OSM      P11779   6.645   2.408   6.276  0.0362 -0.5410  0.0936
  114OSM    O1311780   6.775   2.472   6.289 -0.5001 -0.3409  0.1735
  114OSM    O1411781   6.611   2.294   6.360  0.2230  0.0901  0.7796
  114OSM    O1111782   6.617   2.384   6.121 -0.2414 -0.1249 -0.2415
  114OSM    O1211783   6.534   2.516   6.307 -0.5167  0.2921  0.0302
  114OSM    C1S11784   6.509   2.301   6.083 -0.0833 -0.3472 -0.0507
  114OSM    H1S11785   6.419   2.328   6.143 -0.8715 -1.7186 -0.6150
  114OSM    H1T11786   6.547   2.199   6.105  2.7187  0.8575  0.9123
  114OSM     NF11787   6.366   2.238   5.887  0.3386  0.3963  0.6319
  114OSM    HNF11788   6.394   2.154   5.841  2.4689  0.0571  2.4735
  114OSM    C2S11789   6.477   2.323   5.933  0.2156 -0.2974  0.2304
  114OSM    H2S11790   6.453   2.431   5.925  0.8872 -0.0150  1.8279
  114OSM    C3S11791   6.608   2.312   5.845 -0.1443  0.2847 -0.5245
  114OSM    H3S11792   6.684   2.239   5.880 -0.1954 -0.2971 -1.6282
  114OSM     O311793   6.685   2.431   5.849 -0.0576 -0.5482 -0.0021
  114OSM    HO311794   6.722   2.437   5.937  0.6307  1.3403 -0.4086
  114OSM    C4S11795   6.576   2.311   5.704  0.4527 -1.0747 -0.3178
  114OSM    H4S11796   6.514   2.395   5.667  1.2831 -0.0547  0.5549
  114OSM    C5S11797   6.611   2.217   5.620  0.5966 -0.0900  0.1561
  114OSM    H5S11798   6.679   2.140   5.661  0.0463 -0.5457  0.2305
  114OSM    C6S11799   6.582   2.220   5.473  0.2100  0.4073  0.0392
  114OSM    H6S11800   6.498   2.152   5.445 -1.5229  2.7792 -0.6543
  114OSM    H6T11801   6.677   2.191   5.422  0.2289  0.2091  0.1865
  114OSM    C7S11802   6.553   2.362   5.417  0.1557  0.2952  0.4741
  114OSM    H7S11803   6.637   2.430   5.441 -0.6028  0.9046  1.4153
  114OSM    H7T11804   6.458   2.397   5.463 -0.2903  3.4726 -2.6501
  114OSM    C8S11805   6.531   2.362   5.263  0.8616  0.3538  0.0967
  114OSM    H8S11806   6.443   2.296   5.244  0.5859  1.0274 -1.0082
  114OSM    H8T11807   6.599   2.310   5.192  0.8045  2.8137 -1.8344
  114OSM    C9S11808   6.477   2.504   5.209 -0.0436 -0.2767  0.2118
  114OSM    H9S11809   6.563   2.572   5.227 -0.6783  0.4558  0.5129
  114OSM    H9T11810   6.395   2.539   5.275 -0.0670  1.3490 -0.6530
  114OSM   C10S11811   6.447   2.496   5.056  0.3159 -0.6127  0.4400
  114OSM   H10S11812   6.347   2.448   5.046  0.3132 -0.3535 -0.7589
  114OSM   H10T11813   6.530   2.433   5.019  1.1621 -0.8216  2.6165
  114OSM   C11S11814   6.453   2.634   4.987 -0.3075  0.2674  0.1350
  114OSM   H11S11815   6.453   2.616   4.878 -1.5015 -0.3859  0.2293
  114OSM   H11T11816   6.532   2.705   5.020 -2.1475  0.7715  3.7031
  114OSM   C12S11817   6.322   2.704   5.025 -0.4273  0.1726  0.1202
  114OSM   H12S11818   6.334   2.814   5.012  0.1372  0.1016  0.0558
  114OSM   H12T11819   6.309   2.702   5.135 -0.5110  1.8624  0.1535
  114OSM   C13S11820   6.203   2.638   4.950 -0.9989  0.1063  0.0006
  114OSM   H13S11821   6.191   2.529   4.964  0.0276 -0.3315 -2.3555
  114OSM   H13T11822   6.214   2.653   4.841 -0.4703 -0.4139 -0.0158
  114OSM   C14S11823   6.074   2.701   4.997  0.3699 -0.8545 -0.1856
  114OSM   H14S11824   6.082   2.701   5.108  3.6771 -0.0931 -0.3549
  114OSM   H14T11825   5.994   2.628   4.971 -0.0431 -0.3358 -0.3693
  114OSM   C15S11826   6.047   2.839   4.940  0.0203  0.2956 -0.5079
  114OSM   H15S11827   6.040   2.832   4.830  0.1665 -0.8494 -0.4502
  114OSM   H15T11828   6.129   2.909   4.967  0.3624 -0.0922 -0.5382
  114OSM   C16S11829   5.909   2.895   4.984  0.6354  0.2130  0.0597
  114OSM   H16S11830   5.901   2.895   5.095  0.8341 -1.5390  0.0883
  114OSM   H16T11831   5.834   2.832   4.932  1.8031 -2.7813  1.8417
  114OSM   C17S11832   5.891   3.036   4.927 -0.1025 -0.0317  0.4207
  114OSM   H17S11833   5.908   3.032   4.818 -2.6376 -0.3528  0.0210
  114OSM   H17T11834   5.978   3.099   4.957  0.3933  0.6304 -2.2655
  114OSM   C18S11835   5.756   3.107   4.955  0.0131  0.3022  0.5311
  114OSM   H18S11836   5.673   3.041   4.925 -0.0289  0.7532 -0.3535
  114OSM   H18T11837   5.749   3.200   4.895  0.0662 -0.3207 -0.4492
  114OSM   H18U11838   5.751   3.124   5.065  0.2844 -0.2357  0.6274
  114OSM    C1F11839   6.245   2.252   5.934 -0.0773  0.2590  0.1850
  114OSM     OF11840   6.211   2.347   6.002 -0.0984  0.0034 -0.3021
  114OSM    C2F11841   6.154   2.131   5.913 -0.1857  0.3478 -0.2627
  114OSM    H2F11842   6.091   2.120   6.004  0.8068 -0.2836  0.3544
  114OSM    H2G11843   6.212   2.036   5.905 -1.1614 -0.3188  0.4833
  114OSM    C3F11844   6.058   2.165   5.792  0.3783  0.0188  0.7178
  114OSM    H3F11845   5.999   2.259   5.804  1.9965  1.1081  0.2279
  114OSM    H3G11846   5.981   2.085   5.789 -0.4064  0.7943 -0.1015
  114OSM    C4F11847   6.133   2.187   5.659  0.2573  0.2252 -0.2571
  114OSM    H4F11848   6.166   2.090   5.616 -0.3831 -0.3797  0.5821
  114OSM    H4G11849   6.212   2.264   5.672  0.6361 -0.5401  2.2928
  114OSM    C5F11850   6.038   2.241   5.545 -0.1368 -0.0734  0.0510
  114OSM    H5F11851   5.999   2.331   5.598 -1.4329 -0.7193  0.2216
  114OSM    H5G11852   5.956   2.169   5.522 -1.5252  1.6033 -0.3212
  114OSM    C6F11853   6.125   2.269   5.422  0.1195  0.2644  0.6544
  114OSM    H6F11854   6.201   2.189   5.406  0.5685  1.0410 -1.2627
  114OSM    H6G11855   6.181   2.365   5.426  0.7711 -0.0093 -1.3045
  114OSM    C7F11856   6.030   2.275   5.305  0.2721 -0.5661  0.1708
  114OSM    H7F11857   5.963   2.356   5.340  0.2913 -0.3415 -0.3151
  114OSM    H7G11858   5.962   2.187   5.297 -1.6409  0.7543  1.4498
  114OSM    C8F11859   6.102   2.331   5.179  0.7286 -0.2517  0.4020
  114OSM    H8F11860   6.178   2.257   5.148  1.2037 -0.7388  2.6382
  114OSM    H8G11861   6.153   2.427   5.200  0.9073 -0.2878  0.1289
  114OSM    C9F11862   6.003   2.364   5.069 -0.1044  1.0296 -0.2334
  114OSM    H9F11863   5.928   2.440   5.096 -0.1544  0.7387  0.4629
  114OSM   C10F11864   6.001   2.307   4.943 -0.2967 -0.0123 -0.1608
  114OSM   H10F11865   5.930   2.350   4.871 -0.6206 -0.4584 -0.1122
  114OSM   C11F11866   6.094   2.205   4.887  0.2476  0.0721  0.1334
  114OSM   H11F11867   6.047   2.126   4.825 -0.4353  0.5931 -0.0167
  114OSM   H11G11868   6.139   2.145   4.969 -1.7186 -0.3817  0.9079
  114OSM   C12F11869   6.200   2.260   4.800 -0.2872 -0.7606  0.2884
  114OSM   H12F11870   6.267   2.174   4.777  2.1727  0.7322  1.6386
  114OSM   H12G11871   6.259   2.341   4.848  0.4425 -1.0511 -0.1095
  114OSM   C13F11872   6.148   2.313   4.664  0.6323 -0.0463 -0.7784
  114OSM   H13F11873   6.072   2.393   4.677 -2.2343 -2.2122 -3.5908
  114OSM   H13G11874   6.088   2.233   4.616 -2.1449  2.9957 -2.6366
  114OSM   C14F11875   6.259   2.369   4.570 -0.2729  0.1183  0.1635
  114OSM   H14F11876   6.311   2.449   4.627 -2.4787  1.8135 -0.1270
  114OSM   H14G11877   6.211   2.401   4.475 -0.2972  0.0670  0.1587
  114OSM   C15F11878   6.356   2.263   4.511 -0.1172 -0.2569  0.9733
  114OSM   H15F11879   6.299   2.174   4.478  0.4518 -0.0520 -0.6118
  114OSM   H15G11880   6.415   2.234   4.601  0.7863  1.3059  0.9090
  114OSM   C16F11881   6.440   2.323   4.401 -0.1006 -0.1126 -0.3796
  114OSM   H16F11882   6.476   2.422   4.437 -3.0392 -0.4997  4.0616
  114OSM   H16G11883   6.371   2.344   4.317  2.4084  2.1115 -1.9570
  114OSM   C17F11884   6.546   2.226   4.351  0.2613  0.5717 -0.5900
  114OSM   H17F11885   6.613   2.220   4.440  0.4718  1.2529 -0.6950
  114OSM   H17G11886   6.607   2.270   4.270 -0.2234  2.1521 -0.1249
  114OSM   C18F11887   6.511   2.082   4.317  0.1019 -0.1553 -0.0227
  114OSM   H18F11888   6.477   2.025   4.406 -1.9282  1.5136  0.3143
  114OSM   H18G11889   6.595   2.026   4.273  1.6051  1.9539  0.0891
  114OSM   H18H11890   6.424   2.081   4.247 -0.7231 -0.1743  0.9936
  115OSM      N11891   6.361   5.237   6.528 -0.2712  0.5806  0.0127
  115OSM    C1511892   6.396   5.360   6.599 -0.6383  0.6237 -0.7923
  115OSM   H15A11893   6.502   5.355   6.615 -0.7435  0.7944 -0.0086
  115OSM   H15B11894   6.350   5.369   6.697  0.2478 -0.1343 -0.3042
  115OSM   H15C11895   6.369   5.451   6.549 -0.6124  2.2252  2.0024
  115OSM    C1411896   6.409   5.114   6.600 -0.4462  0.3321 -0.2296
  115OSM   H14A11897   6.348   5.108   6.689 -0.8028  3.8715 -0.1864
  115OSM   H14B11898   6.511   5.117   6.634  0.4097 -0.8601 -2.5791
  115OSM   H14C11899   6.396   5.025   6.540  0.1654 -0.9107  1.4164
  115OSM    C1311900   6.214   5.236   6.516 -1.0058 -1.0798 -0.2839
  115OSM   H13A11901   6.166   5.210   6.610  0.0342 -1.9819  0.0005
  115OSM   H13B11902   6.187   5.152   6.454  0.0856 -1.8546  0.2730
  115OSM   H13C11903   6.175   5.324   6.468  0.8481  0.1679  0.4682
  115OSM    C1211904   6.426   5.232   6.394  0.2093  0.2517 -0.0130
  115OSM   H12A11905   6.534   5.234   6.398  0.2767  1.6667 -1.8641
  115OSM   H12B11906   6.406   5.323   6.339 -0.2203 -1.6469 -3.1765
  115OSM    C1111907   6.375   5.130   6.297 -0.1806  0.1136 -0.4269
  115OSM   H11A11908   6.386   5.031   6.345  0.9960  0.8279  0.8059
  115OSM   H11B11909   6.446   5.143   6.212 -0.8980  1.0521 -0.8997
  115OSM      P11910   6.171   5.043   6.174  0.3150 -0.1261  0.1912
  115OSM    O1311911   6.124   4.928   6.251  0.4232 -0.5323  0.5329
  115OSM    O1411912   6.072   5.119   6.091 -0.5120 -0.0465 -0.0133
  115OSM    O1111913   6.292   5.006   6.084  0.1592 -0.0788  0.1083
  115OSM    O1211914   6.240   5.151   6.257 -0.3123  0.1062 -0.8045
  115OSM    C1S11915   6.280   4.902   5.984 -0.9103 -0.2704 -0.2808
  115OSM    H1S11916   6.175   4.884   5.952 -0.9740 -2.3571  1.0710
  115OSM    H1T11917   6.333   4.809   6.012  0.8279  1.2782  1.8080
  115OSM     NF11918   6.312   4.872   5.731 -1.0169 -0.4769 -0.6422
  115OSM    HNF11919   6.374   4.804   5.693  1.0650  0.7084  0.5206
  115OSM    C2S11920   6.352   4.955   5.853 -0.9714  1.0133 -0.5271
  115OSM    H2S11921   6.318   5.059   5.833  0.6451  1.1663 -2.5885
  115OSM    C3S11922   6.509   4.957   5.879  0.4415  0.0205  0.6326
  115OSM    H3S11923   6.541   4.852   5.895  0.8418  0.0249 -0.0920
  115OSM     O311924   6.549   5.035   5.994 -0.1220 -0.4110 -0.3870
  115OSM    HO311925   6.469   5.070   6.033 -0.1596  0.1913 -1.0036
  115OSM    C4S11926   6.573   5.005   5.753 -0.3841 -0.1985 -0.0036
  115OSM    H4S11927   6.540   5.104   5.718  0.5236 -1.0517 -3.4802
  115OSM    C5S11928   6.670   4.944   5.689 -0.0922  0.4697  0.0703
  115OSM    H5S11929   6.696   4.843   5.725 -0.3609 -0.1275 -1.3512
  115OSM    C6S11930   6.738   4.990   5.565  0.0049  0.3648 -0.3445
  115OSM    H6S11931   6.828   4.925   5.559 -0.4677 -0.3529  0.3539
  115OSM    H6T11932   6.789   5.087   5.586  1.3129 -0.3024 -0.3562
  115OSM    C7S11933   6.648   4.986   5.445 -0.0777  0.5835 -0.3055
  115OSM    H7S11934   6.700   5.039   5.362  1.6624 -1.1596 -0.3755
  115OSM    H7T11935   6.547   5.026   5.466  0.2516  2.1928 -1.6730
  115OSM    C8S11936   6.636   4.838   5.400 -0.7811 -0.2382  0.1532
  115OSM    H8S11937   6.590   4.779   5.481 -0.7514  1.2845  1.2984
  115OSM    H8T11938   6.740   4.798   5.397 -1.4369 -2.0098  0.5283
  115OSM    C9S11939   6.564   4.814   5.268  0.8618  0.8604  0.6317
  115OSM    H9S11940   6.479   4.886   5.269  0.0041 -0.1538  1.1393
  115OSM    H9T11941   6.520   4.715   5.245  1.2564  1.2407 -1.9336
  115OSM   C10S11942   6.652   4.839   5.145 -0.5522  0.1440  0.2414
  115OSM   H10S11943   6.743   4.775   5.148  0.8068  2.0610  1.3623
  115OSM   H10T11944   6.679   4.946   5.157  1.9041 -0.2623 -1.1967
  115OSM   C11S11945   6.589   4.824   5.008 -0.4643  0.2602  0.3146
  115OSM   H11S11946   6.497   4.886   4.994 -0.0190  0.6179 -1.1418
  115OSM   H11T11947   6.554   4.720   4.992  0.3719 -0.0798  0.6788
  115OSM   C12S11948   6.691   4.872   4.906  0.0775 -0.4494 -1.0087
  115OSM   H12S11949   6.784   4.811   4.914  0.2650 -0.2011 -1.2455
  115OSM   H12T11950   6.710   4.977   4.937  1.2206 -0.9968  0.2049
  115OSM   C13S11951   6.637   4.865   4.767  0.1357  0.1036  0.6481
  115OSM   H13S11952   6.713   4.905   4.697 -1.5503 -0.6662 -1.7000
  115OSM   H13T11953   6.551   4.935   4.753 -0.9454 -1.3137  0.0543
  115OSM   C14S11954   6.589   4.732   4.709 -0.7581  0.4475  0.1276
  115OSM   H14S11955   6.493   4.701   4.757  0.1390 -1.3186  0.8166
  115OSM   H14T11956   6.668   4.656   4.724 -2.6357 -1.7987 -1.0353
  115OSM   C15S11957   6.566   4.740   4.558 -0.1462  0.2602  0.8345
  115OSM   H15S11958   6.640   4.797   4.499  1.2735 -1.4103  0.9538
  115OSM   H15T11959   6.478   4.804   4.534  0.4245  1.7965  2.6927
  115OSM   C16S11960   6.556   4.610   4.474 -0.0776  0.5306  0.0128
  115OSM   H16S11961   6.466   4.566   4.522  0.0587  1.1520  0.8551
  115OSM   H16T11962   6.642   4.540   4.482  0.6785  1.3162 -1.1512
  115OSM   C17S11963   6.523   4.629   4.320  0.4946 -0.4331  0.0964
  115OSM   H17S11964   6.451   4.713   4.319  0.5077 -0.3558  2.2850
  115OSM   H17T11965   6.482   4.542   4.264  1.3553 -0.9392  0.2315
  115OSM   C18S11966   6.643   4.680   4.235  0.2405  0.2943  0.2674
  115OSM   H18S11967   6.723   4.602   4.233 -0.6721 -0.6478  0.1437
  115OSM   H18T11968   6.690   4.766   4.286  0.7307  0.9036 -1.1824
  115OSM   H18U11969   6.623   4.713   4.131  0.7047  0.1031  0.1119
  115OSM    C1F11970   6.194   4.878   5.678 -0.3079 -0.4904  0.3928
  115OSM     OF11971   6.122   4.971   5.709  0.4853 -0.3071  0.1420
  115OSM    C2F11972   6.154   4.777   5.574  0.1905  1.0234  0.4440
  115OSM    H2F11973   6.077   4.712   5.621 -0.5114  0.2645 -1.7212
  115OSM    H2G11974   6.237   4.713   5.539 -2.8565 -1.3177 -2.8300
  115OSM    C3F11975   6.095   4.845   5.448 -0.2049  0.5574 -0.5155
  115OSM    H3F11976   6.027   4.926   5.482 -0.3115  1.2320 -2.2697
  115OSM    H3G11977   6.038   4.767   5.393  2.0538 -2.0709  0.7600
  115OSM    C4F11978   6.195   4.904   5.350 -0.2774  0.2892 -0.4815
  115OSM    H4F11979   6.263   4.824   5.314 -2.3151 -0.8999 -1.7497
  115OSM    H4G11980   6.244   4.992   5.397  1.7809  0.0060 -2.0128
  115OSM    C5F11981   6.123   4.951   5.229  0.2830  0.3703  0.4254
  115OSM    H5F11982   6.056   5.027   5.274  0.3267  0.3305  0.5594
  115OSM    H5G11983   6.063   4.862   5.198  0.9050  0.0265  0.1916
  115OSM    C6F11984   6.208   5.014   5.120 -0.2302  0.1640  0.4059
  115OSM    H6F11985   6.274   4.929   5.091 -0.0123 -0.6914  3.2375
  115OSM    H6G11986   6.283   5.085   5.162  2.1701 -2.5265  0.8259
  115OSM    C7F11987   6.136   5.075   5.001  0.2281 -0.8701  0.4944
  115OSM    H7F11988   6.092   5.170   5.038  2.4711  1.1038 -1.6638
  115OSM    H7G11989   6.046   5.025   4.959  0.5381 -0.1329 -1.1209
  115OSM    C8F11990   6.237   5.112   4.892 -0.3656 -0.0125 -0.0889
  115OSM    H8F11991   6.301   5.025   4.864  0.0876 -0.0273  0.9694
  115OSM    H8G11992   6.310   5.177   4.944 -0.0392 -1.3936  1.2011
  115OSM    C9F11993   6.162   5.179   4.778 -0.4670  0.7075  0.5275
  115OSM    H9F11994   6.115   5.275   4.804 -0.1788  1.1497 -0.6032
  115OSM   C10F11995   6.149   5.135   4.649 -0.2489 -0.1284 -0.3972
  115OSM   H10F11996   6.098   5.206   4.582  0.0080  0.1974 -0.2522
  115OSM   C11F11997   6.201   5.011   4.588  0.3160  0.6362 -0.5856
  115OSM   H11F11998   6.109   4.956   4.560  0.5590  0.6276 -1.3657
  115OSM   H11G11999   6.258   4.945   4.657 -0.7701  0.5220  0.2289
  115OSM   C12F12000   6.281   5.032   4.460  0.6412 -0.0826 -0.9333
  115OSM   H12F12001   6.333   4.937   4.436  1.6265  0.4028 -0.7381
  115OSM   H12G12002   6.368   5.101   4.475  1.3726 -1.2923  0.4445
  115OSM   C13F12003   6.209   5.069   4.328 -0.7314 -0.4255  0.2550
  115OSM   H13F12004   6.171   5.174   4.336 -1.8101 -0.8698  1.0339
  115OSM   H13G12005   6.124   4.999   4.320 -0.5335 -0.6857  0.4229
  115OSM   C14F12006   6.291   5.067   4.199  0.0753  0.3862  0.0422
  115OSM   H14F12007   6.217   5.084   4.118 -0.4360 -0.6910  0.2817
  115OSM   H14G12008   6.328   4.964   4.184 -1.7420 -0.3115  0.2453
  115OSM   C15F12009   6.392   5.184   4.209 -0.6608  0.1191  0.5480
  115OSM   H15F12010   6.466   5.170   4.291  1.0279  2.1870 -0.5951
  115OSM   H15G12011   6.343   5.281   4.229  0.3534  1.6086 -3.6269
  115OSM   C16F12012   6.483   5.203   4.086  0.4378 -0.0546 -0.1362
  115OSM   H16F12013   6.527   5.101   4.080  1.5554  0.3432  1.1380
  115OSM   H16G12014   6.559   5.283   4.103  0.4650  1.0819 -4.7672
  115OSM   C17F12015   6.404   5.245   3.958 -0.6452  0.1188 -0.1988
  115OSM   H17F12016   6.401   5.356   3.952 -2.8607  0.1632  0.9349
  115OSM   H17G12017   6.296   5.225   3.976 -0.9641 -0.4458 -2.5590
  115OSM   C18F12018   6.461   5.174   3.836  0.2301  0.2075  0.2259
  115OSM   H18F12019   6.391   5.187   3.751  0.3886 -1.1740 -0.1379
  115OSM   H18G12020   6.488   5.072   3.874  4.3241  1.2629  0.3964
  115OSM   H18H12021   6.553   5.235   3.822 -0.4732  0.8308 -1.8299
  116OSM      N12022   6.177   1.780   6.561 -0.5189 -0.1128  0.6909
  116OSM    C1512023   6.284   1.875   6.614  0.0978  0.2264  0.6006
  116OSM   H15A12024   6.243   1.973   6.632 -0.7589 -0.3796  2.0408
  116OSM   H15B12025   6.359   1.888   6.538  0.3487 -2.2250  0.3726
  116OSM   H15C12026   6.331   1.848   6.707 -0.6563 -0.1847  0.8682
  116OSM    C1412027   6.225   1.635   6.549 -0.2392  0.7190 -0.2029
  116OSM   H14A12028   6.154   1.576   6.493 -1.4267  0.6701  1.3352
  116OSM   H14B12029   6.238   1.589   6.645 -1.8601  0.6258 -0.0290
  116OSM   H14C12030   6.317   1.625   6.492  0.0412  2.5636 -0.1182
  116OSM    C1312031   6.058   1.784   6.659  0.2844  0.1909  0.1594
  116OSM   H13A12032   5.972   1.727   6.629  0.4064  0.4896 -0.7917
  116OSM   H13B12033   6.031   1.886   6.683  1.1340 -0.0015  2.0798
  116OSM   H13C12034   6.084   1.738   6.753  2.6233  2.9470  0.9208
  116OSM    C1212035   6.121   1.830   6.424 -0.1892  0.1452 -1.2087
  116OSM   H12A12036   6.105   1.936   6.437 -0.0818  0.0684 -0.4134
  116OSM   H12B12037   6.020   1.794   6.421 -0.6260  1.1440  0.7262
  116OSM    C1112038   6.194   1.788   6.297 -0.8511  0.5901  0.3274
  116OSM   H11A12039   6.140   1.832   6.211  2.3209  2.5033 -0.7833
  116OSM   H11B12040   6.208   1.679   6.282 -0.1418  0.6699  0.3640
  116OSM      P12041   6.380   1.949   6.208 -0.1263 -0.3838  0.2190
  116OSM    O1312042   6.293   2.068   6.206 -0.5084 -0.7458 -0.5150
  116OSM    O1412043   6.519   1.972   6.238  0.2905  0.4899  0.0171
  116OSM    O1112044   6.378   1.867   6.074  0.0970  0.4311  0.9647
  116OSM    O1212045   6.325   1.845   6.304 -0.0036 -0.6519 -0.0559
  116OSM    C1S12046   6.477   1.755   6.055  0.3196 -0.3137 -0.1314
  116OSM    H1S12047   6.429   1.663   6.093 -1.4265  1.4031  2.0120
  116OSM    H1T12048   6.566   1.767   6.120  0.1121  1.1776 -0.0845
  116OSM     NF12049   6.605   1.614   5.898  0.1074 -0.2587  0.5178
  116OSM    HNF12050   6.702   1.619   5.922  0.0969 -3.7089  1.4415
  116OSM    C2S12051   6.529   1.734   5.907  0.3686 -0.7022 -0.1903
  116OSM    H2S12052   6.438   1.728   5.845  0.1985 -0.2984  0.0197
  116OSM    C3S12053   6.606   1.855   5.860  0.3846 -0.2384  0.2570
  116OSM    H3S12054   6.692   1.874   5.928 -1.0217  0.9687  1.7160
  116OSM     O312055   6.529   1.974   5.859  0.0426 -0.0523 -0.2138
  116OSM    HO312056   6.453   1.936   5.905  1.4461 -1.7131  0.7838
  116OSM    C4S12057   6.650   1.838   5.717 -0.4773  0.0560 -0.1198
  116OSM    H4S12058   6.567   1.833   5.645 -0.5917 -1.7580  0.1146
  116OSM    C5S12059   6.773   1.819   5.669  0.6871 -0.6792 -0.2430
  116OSM    H5S12060   6.855   1.797   5.740  0.2506 -1.6797 -0.0300
  116OSM    C6S12061   6.803   1.815   5.519 -0.8493 -0.1190  0.0233
  116OSM    H6S12062   6.899   1.867   5.496 -0.7191  0.8124  2.5112
  116OSM    H6T12063   6.717   1.842   5.454  0.0034  1.1346 -0.5971
  116OSM    C7S12064   6.837   1.666   5.489  0.5117  0.9501 -0.3273
  116OSM    H7S12065   6.767   1.595   5.538  0.0532  1.2990 -0.4692
  116OSM    H7T12066   6.937   1.644   5.532  0.8143 -2.1314 -2.4067
  116OSM    C8S12067   6.844   1.642   5.331 -0.1539 -0.8223 -0.3358
  116OSM    H8S12068   6.936   1.585   5.305  1.0616  0.8358  0.2875
  116OSM    H8T12069   6.858   1.743   5.289  0.8605 -0.7884  0.0750
  116OSM    C9S12070   6.720   1.584   5.269  0.2602  0.3649  0.4941
  116OSM    H9S12071   6.687   1.488   5.314 -0.3964  0.8159  0.9942
  116OSM    H9T12072   6.745   1.552   5.166 -1.5146  0.4276  0.0298
  116OSM   C10S12073   6.601   1.677   5.263 -0.1464 -0.2003  0.4823
  116OSM   H10S12074   6.622   1.777   5.219  2.4297 -0.4824  0.9896
  116OSM   H10T12075   6.575   1.698   5.369 -0.0811 -2.1719  0.9166
  116OSM   C11S12076   6.476   1.616   5.199  0.3082  0.2527  0.3045
  116OSM   H11S12077   6.406   1.698   5.172 -0.9941 -0.9298  0.0363
  116OSM   H11T12078   6.428   1.543   5.267 -0.0798  0.2456  0.0271
  116OSM   C12S12079   6.490   1.539   5.068 -0.5026 -0.0257  0.1254
  116OSM   H12S12080   6.550   1.449   5.093  0.9445  0.2057 -2.4011
  116OSM   H12T12081   6.541   1.603   4.994  0.6094 -1.3055 -0.2390
  116OSM   C13S12082   6.355   1.493   5.015  0.6391  0.2113  0.4045
  116OSM   H13S12083   6.300   1.588   5.003  1.7961  0.9746  1.0388
  116OSM   H13T12084   6.299   1.433   5.090 -0.1712  0.7864  0.2603
  116OSM   C14S12085   6.361   1.412   4.883 -0.1739  0.3470 -0.4722
  116OSM   H14S12086   6.439   1.333   4.891  0.3936  1.0371  1.1616
  116OSM   H14T12087   6.398   1.479   4.803  1.5238 -3.9210 -3.4547
  116OSM   C15S12088   6.223   1.359   4.854  0.6248  0.0445 -0.3633
  116OSM   H15S12089   6.148   1.440   4.866  0.2223 -0.4969  0.9016
  116OSM   H15T12090   6.193   1.276   4.922 -0.7973  0.0886 -0.9143
  116OSM   C16S12091   6.215   1.309   4.712 -0.1696  0.9371  0.6477
  116OSM   H16S12092   6.308   1.254   4.686 -0.8647  0.7086 -1.4449
  116OSM   H16T12093   6.220   1.400   4.649  0.0088  0.7976  0.4588
  116OSM   C17S12094   6.090   1.223   4.682 -0.1023  0.0568  0.0612
  116OSM   H17S12095   5.998   1.281   4.707  0.5681  0.7758  0.8901
  116OSM   H17T12096   6.086   1.135   4.750  1.0006 -1.6956 -2.0948
  116OSM   C18S12097   6.078   1.183   4.534 -0.0539 -0.1223 -0.3608
  116OSM   H18S12098   5.995   1.115   4.506 -0.4153  0.0749  0.2140
  116OSM   H18T12099   6.181   1.163   4.497  0.3144  0.3637  0.3759
  116OSM   H18U12100   6.062   1.277   4.477  0.6180  0.2378  0.0339
  116OSM    C1F12101   6.549   1.495   5.904  0.2668 -0.5521 -0.3305
  116OSM     OF12102   6.424   1.482   5.905 -0.3217  0.1608 -0.2764
  116OSM    C2F12103   6.634   1.376   5.911 -0.6127  0.9210 -0.2535
  116OSM    H2F12104   6.563   1.291   5.906 -1.0067  1.1161  1.7238
  116OSM    H2G12105   6.702   1.373   5.999  1.9780  1.0621 -2.1915
  116OSM    C3F12106   6.742   1.372   5.796  0.1487  0.6481 -0.2880
  116OSM    H3F12107   6.826   1.443   5.811 -1.3879  3.0718 -2.5626
  116OSM    H3G12108   6.704   1.382   5.692 -1.0288 -0.6728 -0.0009
  116OSM    C4F12109   6.808   1.236   5.794  0.9470  1.1550 -0.4137
  116OSM    H4F12110   6.725   1.162   5.799  0.3575  1.5938 -2.8055
  116OSM    H4G12111   6.873   1.237   5.884  0.8540 -1.6353 -0.2648
  116OSM    C5F12112   6.900   1.203   5.678 -0.0759 -0.4022 -0.0590
  116OSM    H5F12113   6.955   1.108   5.696 -1.2839 -1.1008  0.0407
  116OSM    H5G12114   6.977   1.279   5.655  0.9004 -0.7529  1.9179
  116OSM    C6F12115   6.826   1.184   5.537  0.5831 -0.3797 -0.7716
  116OSM    H6F12116   6.766   1.273   5.505  0.6946 -0.7636 -2.0752
  116OSM    H6G12117   6.756   1.099   5.547 -0.2614  0.3451 -0.4939
  116OSM    C7F12118   6.918   1.150   5.424 -0.2888  0.0657  0.5124
  116OSM    H7F12119   6.861   1.073   5.368  3.2865 -2.8184  0.7070
  116OSM    H7G12120   7.010   1.092   5.446 -0.2440 -0.2129 -0.4051
  116OSM    C8F12121   6.951   1.263   5.320 -0.4872  0.0576 -0.2447
  116OSM    H8F12122   6.975   1.347   5.389 -0.1652 -0.6697  0.5377
  116OSM    H8G12123   6.853   1.295   5.278 -0.1711 -0.0792 -1.1001
  116OSM    C9F12124   7.060   1.230   5.218 -0.2682  0.4641  0.2249
  116OSM    H9F12125   7.151   1.190   5.267  1.3127  1.5604 -1.7559
  116OSM   C10F12126   7.058   1.246   5.088  0.2954 -0.3406 -0.1407
  116OSM   H10F12127   7.151   1.225   5.033 -0.4564  1.2478 -2.0558
  116OSM   C11F12128   6.949   1.300   5.002  0.2831 -0.4488  0.1149
  116OSM   H11F12129   6.977   1.402   4.969  1.1627 -0.4946  0.6923
  116OSM   H11G12130   6.848   1.306   5.049  0.8260  1.3683  1.1021
  116OSM   C12F12131   6.905   1.218   4.879 -0.4448 -0.0713  0.6225
  116OSM   H12F12132   6.898   1.107   4.889 -2.7512  0.1044  1.2820
  116OSM   H12G12133   6.991   1.229   4.809 -0.4158 -0.8334  0.5282
  116OSM   C13F12134   6.770   1.255   4.831  0.1874 -0.2162  0.1339
  116OSM   H13F12135   6.760   1.365   4.841  2.5105  0.0592 -0.4220
  116OSM   H13G12136   6.697   1.196   4.891 -0.4391  0.1762 -0.2364
  116OSM   C14F12137   6.756   1.220   4.685 -0.7298  0.6653 -0.2893
  116OSM   H14F12138   6.786   1.115   4.667 -0.2622  0.4975  1.4038
  116OSM   H14G12139   6.823   1.291   4.632  0.1727 -2.0931 -3.0498
  116OSM   C15F12140   6.617   1.269   4.629  0.1037  0.0953  0.1159
  116OSM   H15F12141   6.591   1.364   4.679 -2.3257 -1.1118  1.2798
  116OSM   H15G12142   6.536   1.201   4.663 -1.4806  0.9358 -1.8875
  116OSM   C16F12143   6.606   1.282   4.473 -0.7629 -0.8781  0.1520
  116OSM   H16F12144   6.653   1.199   4.415  0.2166  0.7524 -1.4736
  116OSM   H16G12145   6.659   1.375   4.441 -3.8553  0.7600 -0.3444
  116OSM   C17F12146   6.461   1.260   4.412  0.9858 -0.0677  0.4962
  116OSM   H17F12147   6.401   1.337   4.464 -0.3784  1.1188 -2.7243
  116OSM   H17G12148   6.404   1.167   4.432  1.5207 -0.4258  0.3780
  116OSM   C18F12149   6.457   1.285   4.259 -0.0409  0.1657  0.6705
  116OSM   H18F12150   6.495   1.385   4.231 -0.9866  0.0254 -1.2010
  116OSM   H18G12151   6.356   1.263   4.218 -0.0646 -0.5836  1.1203
  116OSM   H18H12152   6.525   1.215   4.206 -0.3385 -0.3275  0.9335
  117OSM      N12153   0.373   5.410   6.604 -1.1537 -1.2652 -0.6534
  117OSM    C1512154   0.289   5.517   6.656 -0.2762  0.0089  0.1377
  117OSM   H15A12155   0.232   5.503   6.746 -0.1292  2.1746  0.5980
  117OSM   H15B12156   0.226   5.549   6.574 -0.1918 -1.8177 -0.6709
  117OSM   H15C12157   0.349   5.603   6.681 -0.2999  0.3938 -1.0882
  117OSM    C1412158   0.450   5.366   6.722 -0.6624 -0.1734 -0.1783
  117OSM   H14A12159   0.509   5.451   6.754 -0.1805  0.1594 -1.8848
  117OSM   H14B12160   0.519   5.288   6.695 -1.8896 -1.2263 -0.2855
  117OSM   H14C12161   0.383   5.328   6.796 -0.1658  1.4293  1.1331
  117OSM    C1312162   0.284   5.293   6.566 -1.6184  0.0043 -0.2393
  117OSM   H13A12163   0.235   5.319   6.474 -0.1069  2.1697 -0.4585
  117OSM   H13B12164   0.216   5.272   6.648  0.0443 -1.5174  0.7903
  117OSM   H13C12165   0.341   5.203   6.549 -2.6625 -1.0653  1.6538
  117OSM    C1212166   0.454   5.449   6.489  0.4702  0.4280  0.4922
  117OSM   H12A12167   0.527   5.523   6.516  1.9324 -1.3222  1.4773
  117OSM   H12B12168   0.390   5.494   6.415  1.1119 -0.2366 -0.4884
  117OSM    C1112169   0.541   5.340   6.421 -0.0329 -0.0644  0.1635
  117OSM   H11A12170   0.610   5.301   6.499 -0.1321  0.9135  0.7495
  117OSM   H11B12171   0.606   5.394   6.348 -0.5691  1.2696  0.6518
  117OSM      P12172   0.391   5.239   6.220  0.0927 -0.5334 -0.2929
  117OSM    O1312173   0.412   5.117   6.137  0.4260 -0.4572 -0.3744
  117OSM    O1412174   0.254   5.271   6.250  0.1555  0.3928 -0.1795
  117OSM    O1112175   0.456   5.359   6.151  0.0023  0.6885  0.1721
  117OSM    O1212176   0.472   5.238   6.353 -0.6079  0.4250 -0.4935
  117OSM    C1S12177   0.477   5.362   6.008 -0.4117  0.0408 -0.5013
  117OSM    H1S12178   0.388   5.324   5.952  1.2544 -1.5798 -2.1251
  117OSM    H1T12179   0.560   5.298   5.973 -1.1173  0.7235 -3.6379
  117OSM     NF12180   0.543   5.495   5.818  0.1052  0.7849  0.4148
  117OSM    HNF12181   0.638   5.489   5.788 -0.0969 -0.5369 -0.0030
  117OSM    C2S12182   0.508   5.506   5.957 -0.5551 -0.1689 -0.6216
  117OSM    H2S12183   0.415   5.565   5.975  0.4508  1.2769 -0.1237
  117OSM    C3S12184   0.622   5.577   6.035 -0.6213  0.5743 -0.8615
  117OSM    H3S12185   0.702   5.501   6.022  0.2041  0.9837  1.5310
  117OSM     O312186   0.601   5.596   6.177 -0.4106 -0.3211  0.0729
  117OSM    HO312187   0.540   5.527   6.202  0.0499 -0.2232  1.4947
  117OSM    C4S12188   0.656   5.699   5.962  0.0919  0.1030  0.7306
  117OSM    H4S12189   0.737   5.686   5.889 -0.5289 -1.1842  0.2644
  117OSM    C5S12190   0.597   5.815   5.984  0.4460 -0.3625  0.0203
  117OSM    H5S12191   0.508   5.820   6.049  1.3720  2.3297  1.1610
  117OSM    C6S12192   0.624   5.935   5.903 -0.1625  0.2857 -0.0302
  117OSM    H6S12193   0.654   6.016   5.973 -2.9548  0.8897  0.5233
  117OSM    H6T12194   0.533   5.964   5.846  0.4885  0.7312 -0.8636
  117OSM    C7S12195   0.730   5.928   5.794 -0.3118 -0.0131 -0.4380
  117OSM    H7S12196   0.710   5.839   5.730 -0.6898 -1.0578  1.0899
  117OSM    H7T12197   0.830   5.920   5.841 -1.1846  0.0334  1.4878
  117OSM    C8S12198   0.727   6.050   5.707 -0.2413 -0.6780  0.3584
  117OSM    H8S12199   0.760   6.133   5.773  0.2732 -0.0406 -0.6824
  117OSM    H8T12200   0.623   6.071   5.674 -0.2152 -2.6018 -1.0645
  117OSM    C9S12201   0.824   6.049   5.587  0.7846  0.3983  0.0013
  117OSM    H9S12202   0.923   6.008   5.615  0.6946 -0.2541 -0.6222
  117OSM    H9T12203   0.835   6.153   5.550 -0.2468  0.0136 -1.4543
  117OSM   C10S12204   0.771   5.968   5.463  0.4180  0.0415  0.0123
  117OSM   H10S12205   0.697   6.030   5.408 -0.5991 -2.2583 -1.3333
  117OSM   H10T12206   0.716   5.875   5.489  1.3991 -1.3263 -2.6193
  117OSM   C11S12207   0.874   5.922   5.357 -0.4070  0.2859 -0.3159
  117OSM   H11S12208   0.948   5.856   5.406  0.0546  1.0743  0.0652
  117OSM   H11T12209   0.938   6.006   5.324  1.6559 -0.5421  1.4169
  117OSM   C12S12210   0.802   5.853   5.246 -0.3110 -0.2167  0.6018
  117OSM   H12S12211   0.709   5.909   5.223  0.9909  1.5007 -0.6056
  117OSM   H12T12212   0.763   5.756   5.282 -0.5905 -1.4522 -2.8791
  117OSM   C13S12213   0.899   5.826   5.130  0.4210  0.1503  0.3978
  117OSM   H13S12214   0.985   5.768   5.170  0.5692 -1.1310 -1.7329
  117OSM   H13T12215   0.927   5.929   5.099  0.6367  0.1917  0.7251
  117OSM   C14S12216   0.844   5.754   5.008 -0.0590 -0.2367  0.4021
  117OSM   H14S12217   0.749   5.795   4.968  1.4447  0.6602 -2.4501
  117OSM   H14T12218   0.842   5.649   5.043 -1.7078 -0.3121  0.0893
  117OSM   C15S12219   0.945   5.773   4.891 -1.2749  0.9885  0.7388
  117OSM   H15S12220   1.019   5.692   4.907 -1.1398  0.5053 -2.1242
  117OSM   H15T12221   0.992   5.873   4.897  1.1091  0.0186 -1.1258
  117OSM   C16S12222   0.906   5.750   4.744 -0.1050 -0.3019  0.3897
  117OSM   H16S12223   0.841   5.831   4.704  0.8913 -0.2947 -1.2705
  117OSM   H16T12224   0.841   5.660   4.729 -0.6020  0.1091  0.0427
  117OSM   C17S12225   1.030   5.741   4.666 -0.4112  0.0117 -0.1906
  117OSM   H17S12226   1.073   5.638   4.671  1.5061  0.8522  2.5726
  117OSM   H17T12227   1.101   5.806   4.721  0.2866 -1.9402  1.3133
  117OSM   C18S12228   1.021   5.795   4.519 -0.0428 -0.7821  0.1513
  117OSM   H18S12229   0.986   5.900   4.526  1.2371 -0.4047  1.0750
  117OSM   H18T12230   0.945   5.743   4.456  0.9566 -3.4910  1.1154
  117OSM   H18U12231   1.119   5.794   4.467 -0.1670 -1.6512 -0.0803
  117OSM    C1F12232   0.452   5.467   5.731  0.0411 -0.2350  0.1505
  117OSM     OF12233   0.334   5.480   5.765 -0.1014  0.6547 -0.4496
  117OSM    C2F12234   0.503   5.441   5.590 -0.3748  0.4865 -0.0018
  117OSM    H2F12235   0.427   5.374   5.542  1.2915 -0.7175 -1.0250
  117OSM    H2G12236   0.597   5.385   5.610 -0.6531 -0.1438 -0.4281
  117OSM    C3F12237   0.524   5.564   5.504  0.5425 -0.2655 -0.0838
  117OSM    H3F12238   0.577   5.528   5.414 -1.3590 -0.5333 -1.1104
  117OSM    H3G12239   0.592   5.638   5.552  0.7249  0.4506 -1.4269
  117OSM    C4F12240   0.388   5.636   5.467 -0.2349  0.2652 -0.1059
  117OSM    H4F12241   0.340   5.688   5.552 -1.6426 -0.6781 -0.3081
  117OSM    H4G12242   0.319   5.554   5.436 -1.2916  1.5307 -1.1661
  117OSM    C5F12243   0.399   5.737   5.351 -0.5420  0.5911  0.0379
  117OSM    H5F12244   0.478   5.811   5.376  0.6026 -0.4263 -0.5044
  117OSM    H5G12245   0.302   5.784   5.325 -1.9879 -2.8187 -1.0347
  117OSM    C6F12246   0.438   5.669   5.225  0.5473 -0.3752 -0.2031
  117OSM    H6F12247   0.424   5.558   5.227 -0.4623 -0.2798 -1.3107
  117OSM    H6G12248   0.547   5.685   5.213  0.2723  0.9645 -0.9282
  117OSM    C7F12249   0.361   5.721   5.100 -0.5949  0.1869  1.0216
  117OSM    H7F12250   0.380   5.830   5.104 -0.5572  0.1263  2.9896
  117OSM    H7G12251   0.252   5.703   5.099 -0.7930  1.2974  1.7847
  117OSM    C8F12252   0.433   5.673   4.976 -0.5553 -0.4034  0.2595
  117OSM    H8F12253   0.538   5.710   4.971 -0.4633 -0.7402 -0.3529
  117OSM    H8G12254   0.388   5.731   4.893 -1.6424 -0.3233  0.8971
  117OSM    C9F12255   0.416   5.522   4.952 -0.2191 -0.2273  0.1814
  117OSM    H9F12256   0.439   5.459   5.039  0.9472  0.2030  0.1888
  117OSM   C10F12257   0.362   5.467   4.844  0.2643 -0.9214  0.2246
  117OSM   H10F12258   0.347   5.359   4.860 -2.3404 -0.7629 -0.9068
  117OSM   C11F12259   0.309   5.520   4.714 -0.5483 -0.1299 -0.0104
  117OSM   H11F12260   0.250   5.610   4.741 -1.0127 -0.6857  0.8300
  117OSM   H11G12261   0.249   5.439   4.669 -2.0249  1.1186 -0.3240
  117OSM   C12F12262   0.436   5.555   4.629  0.6838  0.4843  0.7603
  117OSM   H12F12263   0.504   5.470   4.609 -0.0645  0.3045 -1.0703
  117OSM   H12G12264   0.498   5.629   4.684 -1.8434  1.0220  3.0158
  117OSM   C13F12265   0.386   5.616   4.493 -0.3683  0.5817 -0.2655
  117OSM   H13F12266   0.317   5.555   4.431 -1.2159  1.4546 -0.2056
  117OSM   H13G12267   0.471   5.640   4.426  1.3160 -1.9028  0.9288
  117OSM   C14F12268   0.305   5.750   4.513 -0.1203  0.4250  0.1055
  117OSM   H14F12269   0.353   5.797   4.601  3.4022 -2.5207 -0.1704
  117OSM   H14G12270   0.200   5.727   4.540  0.1037 -0.5622  0.1231
  117OSM   C15F12271   0.306   5.846   4.388 -0.4315 -0.2670 -0.7645
  117OSM   H15F12272   0.254   5.797   4.303  0.4572 -2.7001  0.0652
  117OSM   H15G12273   0.411   5.832   4.355  0.3906  0.4781  1.4496
  117OSM   C16F12274   0.255   5.989   4.413  0.5398  0.9391 -0.2547
  117OSM   H16F12275   0.326   6.053   4.357  0.9810  0.6353 -0.0455
  117OSM   H16G12276   0.253   6.020   4.520  0.0976 -1.8162  0.5766
  117OSM   C17F12277   0.116   6.017   4.369 -0.0012 -0.0902 -0.4807
  117OSM   H17F12278   0.091   6.121   4.400 -2.6635 -0.8730  0.1177
  117OSM   H17G12279   0.047   5.950   4.425 -0.1969 -0.5871 -1.3012
  117OSM   C18F12280   0.080   6.009   4.223 -0.1703  0.2135  0.5974
  117OSM   H18F12281   0.162   6.048   4.159 -1.5520  2.2574  0.0011
  117OSM   H18G12282  -0.000   6.077   4.186  0.1769  0.0566 -0.4610
  117OSM   H18H12283   0.052   5.903   4.205 -0.2199  0.1388  1.1154
  118OSM      N12284   7.245   3.949   6.812  0.0190  0.1229 -0.4859
  118OSM    C1512285   7.268   4.067   6.910  0.2938  0.0384  1.2202
  118OSM   H15A12286   7.205   4.149   6.879  0.3397  0.7094  2.8690
  118OSM   H15B12287   7.374   4.087   6.912  0.1076  1.2308  0.1201
  118OSM   H15C12288   7.247   4.037   7.011 -0.7093 -1.3872  0.6114
  118OSM    C1412289   7.343   3.843   6.843  0.2205 -0.6539  0.1247
  118OSM   H14A12290   7.440   3.890   6.840 -0.4431  0.8863  1.4275
  118OSM   H14B12291   7.340   3.763   6.771  0.2811  0.3058 -0.9639
  118OSM   H14C12292   7.333   3.813   6.947  0.7332  0.9321  0.6418
  118OSM    C1312293   7.102   3.906   6.833  0.5334  0.1940 -0.3070
  118OSM   H13A12294   7.040   3.994   6.842  0.7851  0.4084 -0.6206
  118OSM   H13B12295   7.094   3.856   6.928 -0.7920  0.3791 -0.3205
  118OSM   H13C12296   7.074   3.848   6.746 -2.7760 -1.2408  1.6598
  118OSM    C1212297   7.267   3.985   6.661  0.4462 -0.7880 -0.3036
  118OSM   H12A12298   7.370   4.004   6.635 -0.0914  1.8755 -0.6360
  118OSM   H12B12299   7.206   4.071   6.638 -0.0190 -0.9179  0.4366
  118OSM    C1112300   7.233   3.882   6.554 -0.3437 -0.1525 -0.4756
  118OSM   H11A12301   7.296   3.794   6.577 -2.8117 -1.7428  0.2756
  118OSM   H11B12302   7.270   3.909   6.452 -1.7121 -0.0071 -0.9410
  118OSM      P12303   7.051   3.715   6.484  0.0152 -0.0339  0.2641
  118OSM    O1312304   7.103   3.601   6.559  0.4136  0.2683  0.2735
  118OSM    O1412305   6.901   3.716   6.472  0.5552 -0.2948 -0.2785
  118OSM    O1112306   7.121   3.721   6.337 -0.3773  0.1370  0.1224
  118OSM    O1212307   7.096   3.846   6.553  0.1262  0.4552 -0.2724
  118OSM    C1S12308   7.097   3.817   6.242 -0.1319  0.0859  0.3145
  118OSM    H1S12309   7.071   3.910   6.296 -2.6547  0.5965 -1.7073
  118OSM    H1T12310   7.014   3.785   6.176 -0.4854 -0.2177  0.9045
  118OSM     NF12311   7.185   3.965   6.064 -0.0513  0.1777  0.0484
  118OSM    HNF12312   7.209   3.941   5.970  0.4718 -2.0039  0.7240
  118OSM    C2S12313   7.221   3.855   6.159  0.1627  1.0864  0.4977
  118OSM    H2S12314   7.314   3.879   6.216  1.7546  0.9032 -1.9257
  118OSM    C3S12315   7.261   3.730   6.073 -0.4574 -0.1165  0.8251
  118OSM    H3S12316   7.175   3.710   6.005  1.7004 -0.3358 -1.9687
  118OSM     O312317   7.287   3.612   6.144  0.5230 -0.2346 -0.3956
  118OSM    HO312318   7.245   3.632   6.228  3.1131 -0.3594  0.9717
  118OSM    C4S12319   7.388   3.764   5.994  0.1469  0.1721  0.5412
  118OSM    H4S12320   7.376   3.754   5.885 -0.1170  2.3686  0.3319
  118OSM    C5S12321   7.517   3.778   6.044  0.4824 -0.9254 -0.0959
  118OSM    H5S12322   7.533   3.750   6.149  1.0051 -1.3821 -0.2977
  118OSM    C6S12323   7.644   3.803   5.966  0.1052 -0.1879  0.5809
  118OSM    H6S12324   7.721   3.730   6.000  0.1108  0.6570  2.4345
  118OSM    H6T12325   7.682   3.905   5.991 -1.4249  0.2395  1.1672
  118OSM    C7S12326   7.627   3.820   5.816  0.5298 -0.3755  0.1120
  118OSM    H7S12327   7.562   3.908   5.798 -2.3502 -2.4244  0.1370
  118OSM    H7T12328   7.594   3.722   5.775 -0.7383  0.3105 -0.5164
  118OSM    C8S12329   7.759   3.847   5.742 -0.5928  0.2888 -0.7806
  118OSM    H8S12330   7.825   3.764   5.775 -1.5791  0.5906  2.0663
  118OSM    H8T12331   7.803   3.939   5.784  1.6041 -1.4040  0.7067
  118OSM    C9S12332   7.744   3.849   5.592  0.3168 -0.4471 -0.1532
  118OSM    H9S12333   7.698   3.944   5.556  2.1437 -0.2541 -2.1206
  118OSM    H9T12334   7.675   3.770   5.553 -0.3857 -0.7597  1.6545
  118OSM   C10S12335   7.874   3.839   5.512 -0.1019  0.1934  1.0521
  118OSM   H10S12336   7.951   3.769   5.552  1.1641  0.8438 -0.1918
  118OSM   H10T12337   7.920   3.940   5.513  1.7844 -0.6441  1.3587
  118OSM   C11S12338   7.837   3.800   5.367  0.2526  0.0627  0.3523
  118OSM   H11S12339   7.756   3.870   5.338  0.8807  1.2573  1.3790
  118OSM   H11T12340   7.813   3.692   5.373 -2.1032  0.6166  1.1706
  118OSM   C12S12341   7.961   3.803   5.269 -0.5572  0.3926  0.1934
  118OSM   H12S12342   8.047   3.747   5.312 -1.3079 -0.4321  0.6354
  118OSM   H12T12343   8.002   3.906   5.254 -0.0621  0.1379 -0.2036
  118OSM   C13S12344   7.927   3.734   5.135 -0.4576  0.2296 -0.3169
  118OSM   H13S12345   7.885   3.633   5.152  2.3942 -0.5497  2.6125
  118OSM   H13T12346   8.027   3.718   5.089 -0.1745  0.0912  0.3369
  118OSM   C14S12347   7.845   3.828   5.044  0.8636 -0.4101  0.3439
  118OSM   H14S12348   7.870   3.933   5.068  0.4967 -0.0782 -0.7184
  118OSM   H14T12349   7.741   3.811   5.079  0.8874 -0.0987  0.5691
  118OSM   C15S12350   7.860   3.809   4.896  0.0127 -1.0232  0.1358
  118OSM   H15S12351   7.960   3.770   4.866  2.2496  1.6329  3.8051
  118OSM   H15T12352   7.855   3.911   4.853 -0.1379 -1.4072 -0.7795
  118OSM   C16S12353   7.750   3.713   4.843  0.2826 -0.1412 -0.8961
  118OSM   H16S12354   7.650   3.744   4.879  1.2659  0.5300  1.3607
  118OSM   H16T12355   7.771   3.609   4.879 -1.2363 -0.2713 -0.3652
  118OSM   C17S12356   7.738   3.698   4.691 -0.2230 -0.0326 -1.0235
  118OSM   H17S12357   7.679   3.611   4.655  0.2345 -0.1021 -1.6362
  118OSM   H17T12358   7.840   3.678   4.652 -0.2927 -2.0754 -0.2233
  118OSM   C18S12359   7.668   3.820   4.618 -0.1008  0.7715  0.0436
  118OSM   H18S12360   7.709   3.914   4.661  2.1275  0.5304 -1.5079
  118OSM   H18T12361   7.557   3.819   4.628 -0.0697 -0.4837  0.3508
  118OSM   H18U12362   7.704   3.822   4.513 -0.0750  0.2961  0.0447
  118OSM    C1F12363   7.145   4.080   6.104 -0.4229  0.0497  0.2477
  118OSM     OF12364   7.156   4.099   6.224 -0.2968  0.5693 -0.0304
  118OSM    C2F12365   7.089   4.177   6.004 -0.2016  0.0802 -0.0867
  118OSM    H2F12366   7.009   4.240   6.049  0.4605  1.2692 -0.5484
  118OSM    H2G12367   7.046   4.116   5.922  3.0094 -0.1212 -1.6921
  118OSM    C3F12368   7.204   4.272   5.955  0.6050  0.1138 -0.3506
  118OSM    H3F12369   7.265   4.289   6.046 -1.0744 -2.3876  1.3198
  118OSM    H3G12370   7.172   4.374   5.925 -1.5679 -0.0661  1.1930
  118OSM    C4F12371   7.306   4.212   5.848 -0.5922 -0.3865  0.5936
  118OSM    H4F12372   7.347   4.119   5.891  1.2721  0.0563 -0.1452
  118OSM    H4G12373   7.391   4.282   5.831 -1.5337 -0.1339 -3.8456
  118OSM    C5F12374   7.254   4.173   5.706  0.1027 -0.0835  0.6465
  118OSM    H5F12375   7.256   4.259   5.635 -2.0512  0.2697  0.9539
  118OSM    H5G12376   7.150   4.135   5.715 -0.0199  0.2964  0.8501
  118OSM    C6F12377   7.337   4.070   5.631  0.2234  0.4779 -0.8779
  118OSM    H6F12378   7.327   3.979   5.694  2.7368  1.6443  1.3247
  118OSM    H6G12379   7.444   4.103   5.632  0.3846 -0.0511  0.9748
  118OSM    C7F12380   7.286   4.037   5.499  0.0702  0.3995  0.8755
  118OSM    H7F12381   7.178   4.061   5.495  0.1218  1.3295  3.9031
  118OSM    H7G12382   7.303   3.927   5.487 -0.3706  0.4309 -0.0637
  118OSM    C8F12383   7.354   4.124   5.394  0.3968  0.1453  0.5698
  118OSM    H8F12384   7.460   4.091   5.392  0.0991 -0.7423 -1.6041
  118OSM    H8G12385   7.349   4.232   5.420 -0.9014 -0.4310  2.9221
  118OSM    C9F12386   7.305   4.097   5.254  0.5694 -0.2984 -0.1232
  118OSM    H9F12387   7.199   4.119   5.235  0.9925  0.7134 -1.4016
  118OSM   C10F12388   7.370   4.022   5.167 -0.2869 -0.5407  0.4095
  118OSM   H10F12389   7.323   4.010   5.068 -1.1448 -1.9172  0.9510
  118OSM   C11F12390   7.504   3.953   5.179 -0.1161  0.4871  0.0623
  118OSM   H11F12391   7.520   3.873   5.104 -2.0261  0.9630 -0.8922
  118OSM   H11G12392   7.530   3.918   5.281  2.1570  1.7139 -0.0645
  118OSM   C12F12393   7.609   4.050   5.145 -0.3062 -0.8122 -0.3120
  118OSM   H12F12394   7.706   4.009   5.181  0.2210  0.4351 -0.3063
  118OSM   H12G12395   7.599   4.140   5.208  2.8763  0.2316 -1.2071
  118OSM   C13F12396   7.627   4.079   4.991  0.1623  0.0699 -0.4106
  118OSM   H13F12397   7.605   3.995   4.923  1.5860  0.5047 -1.4311
  118OSM   H13G12398   7.731   4.097   4.956  0.9322  0.3679  1.9246
  118OSM   C14F12399   7.551   4.201   4.944  0.2848 -0.8626  0.6027
  118OSM   H14F12400   7.569   4.283   5.016  3.4822 -1.2876  0.3487
  118OSM   H14G12401   7.441   4.182   4.946 -0.0389  0.4378 -2.7625
  118OSM   C15F12402   7.592   4.241   4.794 -0.3490  0.5830 -0.1221
  118OSM   H15F12403   7.688   4.187   4.786  0.0137  0.8491  2.0397
  118OSM   H15G12404   7.619   4.348   4.783 -2.6775  1.3451  1.0853
  118OSM   C16F12405   7.500   4.194   4.680  0.7247 -0.6899 -0.0379
  118OSM   H16F12406   7.391   4.197   4.704  0.9333 -0.1694  0.8633
  118OSM   H16G12407   7.504   4.084   4.669 -0.8142 -0.8966  1.3036
  118OSM   C17F12408   7.532   4.279   4.553 -1.2191 -0.0753 -0.0457
  118OSM   H17F12409   7.595   4.366   4.583  1.7502 -2.3067  0.4140
  118OSM   H17G12410   7.440   4.322   4.506 -2.0328  0.4965  1.9761
  118OSM   C18F12411   7.629   4.208   4.457  0.0610 -0.0538 -0.1631
  118OSM   H18F12412   7.603   4.246   4.356 -1.5162  1.6579  0.8534
  118OSM   H18G12413   7.605   4.099   4.457 -1.3819  0.2519  0.4914
  118OSM   H18H12414   7.738   4.225   4.472  0.4435 -1.5739 -1.1120
  119OSM      N12415   3.727   0.140   6.611  0.0354 -0.8535  0.2919
  119OSM    C1512416   3.588   0.070   6.608 -0.0377 -0.3237  0.4980
  119OSM   H15A12417   3.513   0.111   6.675  0.3488  2.6030 -0.7825
  119OSM   H15B12418   3.599  -0.035   6.631  0.1347 -1.1934 -3.2358
  119OSM   H15C12419   3.549   0.072   6.508 -1.4645 -0.8022  1.0350
  119OSM    C1412420   3.788   0.121   6.745  0.6667  0.2387  0.0705
  119OSM   H14A12421   3.880   0.178   6.737  0.3827  0.6558 -0.2214
  119OSM   H14B12422   3.820   0.020   6.767 -1.6023 -0.7658 -1.0872
  119OSM   H14C12423   3.728   0.139   6.833 -1.1742  0.9233 -1.2807
  119OSM    C1312424   3.810   0.059   6.518  0.2277 -0.0785 -0.3227
  119OSM   H13A12425   3.908   0.095   6.491  0.4516  0.1141  0.7277
  119OSM   H13B12426   3.757   0.043   6.425 -1.8883  2.5530  0.3507
  119OSM   H13C12427   3.821  -0.037   6.566  0.2762 -0.7547 -1.6497
  119OSM    C1212428   3.713   0.292   6.577 -0.0557 -0.2116  0.1184
  119OSM   H12A12429   3.652   0.342   6.651 -1.2705  0.5003 -1.3558
  119OSM   H12B12430   3.661   0.308   6.484  0.4260 -0.3486 -0.1771
  119OSM    C1112431   3.847   0.373   6.570  0.2014 -0.7959 -0.0157
  119OSM   H11A12432   3.911   0.385   6.660  0.3974  0.1794 -0.2844
  119OSM   H11B12433   3.817   0.479   6.557 -0.3281 -0.5891  2.5340
  119OSM      P12434   3.896   0.375   6.310 -0.3831  0.0678  0.1402
  119OSM    O1312435   3.894   0.521   6.302 -0.9730  0.2761 -0.1673
  119OSM    O1412436   3.987   0.302   6.222 -0.1689  0.0327  0.4073
  119OSM    O1112437   3.740   0.320   6.291  0.1761 -0.3235 -0.5547
  119OSM    O1212438   3.933   0.337   6.463  0.3141  0.0156 -0.3248
  119OSM    C1S12439   3.712   0.195   6.225 -0.2187  0.0603 -0.3714
  119OSM    H1S12440   3.641   0.129   6.280 -0.7677  0.8687 -0.0995
  119OSM    H1T12441   3.798   0.124   6.227  0.3427  0.6972 -1.5974
  119OSM     NF12442   3.750   0.124   5.992  0.3004  0.7452 -0.1912
  119OSM    HNF12443   3.829   0.168   5.952 -0.2293  0.3989 -1.6451
  119OSM    C2S12444   3.658   0.201   6.077  0.4379  0.2219  0.6175
  119OSM    H2S12445   3.560   0.150   6.075  0.5904 -0.0128 -1.0883
  119OSM    C3S12446   3.630   0.347   6.039  0.6989  0.6632 -0.0805
  119OSM    H3S12447   3.724   0.403   6.061  1.3377 -0.6780  0.6372
  119OSM     O312448   3.527   0.409   6.111 -0.2951 -0.3392  0.2911
  119OSM    HO312449   3.504   0.342   6.176  2.3799 -2.3211 -0.7450
  119OSM    C4S12450   3.598   0.353   5.897 -0.1982  0.0717  0.7513
  119OSM    H4S12451   3.530   0.275   5.859  0.4422  0.2936 -0.9190
  119OSM    C5S12452   3.651   0.438   5.808  0.4202 -0.3011  0.3431
  119OSM    H5S12453   3.717   0.519   5.843 -0.7474 -0.6091  3.4171
  119OSM    C6S12454   3.596   0.439   5.666 -0.1455  0.7666  0.2766
  119OSM    H6S12455   3.502   0.499   5.657  0.8925  2.1805 -1.6127
  119OSM    H6T12456   3.577   0.333   5.640  0.6702  0.1716  2.0269
  119OSM    C7S12457   3.705   0.492   5.568 -0.3543 -0.3135 -0.1978
  119OSM    H7S12458   3.804   0.458   5.605 -0.4565 -1.0305 -0.5546
  119OSM    H7T12459   3.701   0.599   5.594 -1.8981 -0.8818  2.0296
  119OSM    C8S12460   3.685   0.469   5.418  0.2363  0.2426 -0.1226
  119OSM    H8S12461   3.585   0.510   5.391  0.7460 -0.0095 -2.4316
  119OSM    H8T12462   3.677   0.363   5.385  4.1101 -0.4117  0.8250
  119OSM    C9S12463   3.786   0.542   5.326 -0.3429  0.1302  0.4716
  119OSM    H9S12464   3.882   0.488   5.343 -0.3315  0.5926  1.9378
  119OSM    H9T12465   3.789   0.648   5.360 -0.7721  0.3921 -0.2918
  119OSM   C10S12466   3.746   0.543   5.177  0.7150 -0.2302  0.1352
  119OSM   H10S12467   3.649   0.594   5.165  0.2874 -1.4393 -1.6720
  119OSM   H10T12468   3.735   0.439   5.139 -0.1863  0.3141 -1.0925
  119OSM   C11S12469   3.861   0.611   5.092 -0.0669 -0.1491 -0.3404
  119OSM   H11S12470   3.956   0.569   5.131  0.9124  2.5036  0.2316
  119OSM   H11T12471   3.873   0.715   5.129 -1.5344  0.2038 -0.8070
  119OSM   C12S12472   3.847   0.569   4.941  0.7864 -0.6629 -0.3564
  119OSM   H12S12473   3.742   0.597   4.919  0.6285 -1.8092 -1.1052
  119OSM   H12T12474   3.857   0.460   4.921 -0.9388 -0.9515  0.3083
  119OSM   C13S12475   3.924   0.649   4.840 -0.5812  0.4120  0.2376
  119OSM   H13S12476   4.032   0.624   4.837 -0.8959 -1.0908  0.9105
  119OSM   H13T12477   3.921   0.758   4.859 -1.7839  0.8820 -2.4900
  119OSM   C14S12478   3.879   0.622   4.700 -0.6026  0.3735 -0.1403
  119OSM   H14S12479   3.862   0.513   4.685 -4.7881  0.7547  1.1731
  119OSM   H14T12480   3.960   0.655   4.631  0.6737  2.4294  2.2498
  119OSM   C15S12481   3.751   0.685   4.644 -0.3674 -0.3067  0.1550
  119OSM   H15S12482   3.660   0.657   4.700 -0.4753 -2.6643 -1.1225
  119OSM   H15T12483   3.739   0.634   4.546  1.3359 -3.5291  1.5747
  119OSM   C16S12484   3.751   0.844   4.620  0.5584 -0.6150 -1.0311
  119OSM   H16S12485   3.852   0.860   4.577  0.6271  2.5914  0.2013
  119OSM   H16T12486   3.750   0.890   4.721  1.5418 -2.8197  0.0282
  119OSM   C17S12487   3.626   0.900   4.543 -0.1250 -0.3277  0.0064
  119OSM   H17S12488   3.536   0.866   4.600  0.0987 -0.8134  0.0639
  119OSM   H17T12489   3.618   0.869   4.437  0.6742  2.2682 -0.8623
  119OSM   C18S12490   3.608   1.058   4.546  0.0898 -0.3560  0.1385
  119OSM   H18S12491   3.505   1.083   4.515 -0.0886  0.5477  1.3782
  119OSM   H18T12492   3.689   1.099   4.481  0.2356  0.9486  1.1131
  119OSM   H18U12493   3.611   1.098   4.650  0.9841 -0.7599  0.2726
  119OSM    C1F12494   3.738  -0.014   5.986 -0.0335  0.9812  0.3043
  119OSM     OF12495   3.663  -0.070   6.061  1.2807  0.6243  0.5604
  119OSM    C2F12496   3.815  -0.079   5.876 -0.7471  0.0280 -0.1767
  119OSM    H2F12497   3.858  -0.170   5.923 -0.5291  0.5302  0.6054
  119OSM    H2G12498   3.899  -0.017   5.837 -2.1078 -0.3794 -3.9046
  119OSM    C3F12499   3.731  -0.127   5.754 -1.0003  0.0215  0.0998
  119OSM    H3F12500   3.652  -0.197   5.791 -1.1209  0.2280  0.2378
  119OSM    H3G12501   3.782  -0.181   5.672 -0.4878  0.3150  0.2186
  119OSM    C4F12502   3.666  -0.003   5.687 -0.1147  0.8080 -0.2964
  119OSM    H4F12503   3.753   0.058   5.655  1.4348 -1.4551 -0.5596
  119OSM    H4G12504   3.596   0.055   5.751 -0.1769 -1.4713  1.7779
  119OSM    C5F12505   3.581  -0.037   5.563 -0.0475  0.2950  0.2684
  119OSM    H5F12506   3.484  -0.084   5.590  0.3839 -1.7710 -1.5523
  119OSM    H5G12507   3.637  -0.104   5.495 -0.9394  0.8421 -1.0427
  119OSM    C6F12508   3.543   0.087   5.476  0.1836  0.0952  0.0707
  119OSM    H6F12509   3.632   0.144   5.442  1.0359 -0.1540  1.8181
  119OSM    H6G12510   3.486   0.157   5.540 -1.1469  0.1066 -1.0852
  119OSM    C7F12511   3.453   0.054   5.355  0.3699  0.5185 -0.6602
  119OSM    H7F12512   3.365  -0.011   5.376  1.6123 -1.0254 -0.1602
  119OSM    H7G12513   3.518   0.008   5.278 -1.0809 -1.5975 -0.6693
  119OSM    C8F12514   3.395   0.188   5.303 -0.5354 -0.3173  0.0539
  119OSM    H8F12515   3.461   0.276   5.317 -1.9364  0.3627  2.8070
  119OSM    H8G12516   3.313   0.214   5.373  0.8704 -0.2748  1.7539
  119OSM    C9F12517   3.351   0.185   5.164  0.2216 -0.1582 -0.9579
  119OSM    H9F12518   3.249   0.144   5.160  0.7315 -1.4251 -1.2470
  119OSM   C10F12519   3.426   0.202   5.053  0.1723  0.4744 -0.3912
  119OSM   H10F12520   3.369   0.194   4.959  0.5312 -1.6235 -0.4350
  119OSM   C11F12521   3.577   0.226   5.036 -0.0501  0.1419  0.4629
  119OSM   H11F12522   3.635   0.227   5.131  1.9351 -0.1966 -0.7086
  119OSM   H11G12523   3.595   0.328   4.994 -1.2147  0.6581  1.1868
  119OSM   C12F12524   3.638   0.127   4.936 -0.5655 -0.3294 -0.6776
  119OSM   H12F12525   3.626   0.022   4.971 -1.0039  0.5998  2.0229
  119OSM   H12G12526   3.748   0.142   4.939 -0.6543  0.1575  0.4779
  119OSM   C13F12527   3.588   0.143   4.797  0.0969 -1.1604 -1.0840
  119OSM   H13F12528   3.477   0.137   4.796  0.1034 -1.4632  0.2888
  119OSM   H13G12529   3.620   0.052   4.741 -0.8830 -0.8277 -2.1986
  119OSM   C14F12530   3.651   0.262   4.728  0.5321 -0.0695  0.2001
  119OSM   H14F12531   3.756   0.272   4.762  0.7705  0.5346 -0.6912
  119OSM   H14G12532   3.593   0.354   4.751 -1.1034 -0.6547 -1.4326
  119OSM   C15F12533   3.670   0.256   4.576 -0.0267 -0.1183  0.0612
  119OSM   H15F12534   3.730   0.167   4.546  0.0628  0.0293 -0.2042
  119OSM   H15G12535   3.743   0.335   4.546 -0.6255  0.8779  1.1921
  119OSM   C16F12536   3.542   0.244   4.489 -0.0787  0.2997 -0.3112
  119OSM   H16F12537   3.464   0.239   4.567  1.0779 -2.2293  0.7484
  119OSM   H16G12538   3.539   0.148   4.434 -0.3846 -0.9387  1.8021
  119OSM   C17F12539   3.514   0.366   4.394 -0.0021  0.5028  0.3446
  119OSM   H17F12540   3.548   0.337   4.292 -0.7209 -0.6567  0.4216
  119OSM   H17G12541   3.572   0.445   4.446 -2.5098 -0.1571  4.3531
  119OSM   C18F12542   3.364   0.402   4.382 -0.4404 -0.0269  0.4336
  119OSM   H18F12543   3.316   0.341   4.303 -0.9463  2.2042 -1.0184
  119OSM   H18G12544   3.349   0.506   4.345 -0.9349 -0.3674 -0.3167
  119OSM   H18H12545   3.320   0.383   4.482 -3.1718  0.6950 -0.5926
  120OSM      N12546   6.014   5.943   6.185  0.5214  0.0223 -0.5886
  120OSM    C1512547   5.929   5.964   6.308  0.2684  0.8421 -0.5176
  120OSM   H15A12548   5.935   6.066   6.341 -1.2593  0.7803 -0.0302
  120OSM   H15B12549   5.955   5.892   6.384 -1.1970  2.4133  1.5010
  120OSM   H15C12550   5.825   5.949   6.283 -0.4470  0.2308  2.6653
  120OSM    C1412551   5.971   5.822   6.120  0.1424  0.3731 -0.8579
  120OSM   H14A12552   5.863   5.817   6.114  0.0414  1.8433 -0.3288
  120OSM   H14B12553   6.002   5.740   6.184 -1.8225  0.6015  0.4130
  120OSM   H14C12554   6.025   5.795   6.031  0.5873 -3.6830  0.5355
  120OSM    C1312555   5.987   6.052   6.089  0.0142  0.0968 -0.5587
  120OSM   H13A12556   6.010   6.148   6.132  1.3251 -0.1604 -0.6671
  120OSM   H13B12557   5.884   6.041   6.058  0.4089  1.4527 -2.5154
  120OSM   H13C12558   6.055   6.038   6.006  1.5237  0.1537  0.6541
  120OSM    C1212559   6.160   5.938   6.230 -0.4155  0.2752  0.0584
  120OSM   H12A12560   6.172   6.025   6.293 -0.5149  0.9336 -0.8246
  120OSM   H12B12561   6.225   5.958   6.146  0.0883  0.4756  0.4966
  120OSM    C1112562   6.197   5.818   6.320 -0.8827 -1.0132  0.1622
  120OSM   H11A12563   6.119   5.812   6.399  0.5465 -0.4794  1.6340
  120OSM   H11B12564   6.294   5.834   6.370 -0.6174 -1.6719 -0.1408
  120OSM      P12565   6.227   5.559   6.311  0.5355  0.3438 -0.0505
  120OSM    O1312566   6.328   5.583   6.420  0.3765  0.2456 -0.0491
  120OSM    O1412567   6.108   5.489   6.359  0.4843 -0.3108  0.3494
  120OSM    O1112568   6.289   5.468   6.201 -0.6201  0.4878 -0.3995
  120OSM    O1212569   6.186   5.701   6.242 -0.0916  0.9221 -0.2273
  120OSM    C1S12570   6.394   5.509   6.107  0.1850 -0.2331  0.2244
  120OSM    H1S12571   6.490   5.483   6.157  0.4576  2.4574  1.1992
  120OSM    H1T12572   6.393   5.619   6.091  1.0008 -0.2049  0.3276
  120OSM     NF12573   6.473   5.477   5.880 -0.3134  0.4438 -0.5666
  120OSM    HNF12574   6.450   5.542   5.809  0.6604  0.1018 -1.2069
  120OSM    C2S12575   6.375   5.431   5.972  0.9998 -0.5161 -0.7420
  120OSM    H2S12576   6.393   5.324   5.993 -1.3001 -0.1781  3.4073
  120OSM    C3S12577   6.225   5.446   5.918  1.0174 -0.0748  0.2093
  120OSM    H3S12578   6.206   5.555   5.905 -0.9679 -0.0832  2.7718
  120OSM     O312579   6.119   5.396   5.997 -0.3508  0.6031  0.1144
  120OSM    HO312580   6.159   5.369   6.080  0.7493 -1.3096 -0.9960
  120OSM    C4S12581   6.236   5.394   5.778 -0.5135 -1.0256  0.0295
  120OSM    H4S12582   6.263   5.287   5.776 -1.1146 -1.1920  0.6604
  120OSM    C5S12583   6.204   5.466   5.669 -0.5271 -0.1921  0.4089
  120OSM    H5S12584   6.167   5.568   5.685 -2.7977 -0.9496  0.1652
  120OSM    C6S12585   6.206   5.414   5.527  0.2984 -0.0391  0.1490
  120OSM    H6S12586   6.146   5.477   5.459  2.1812  1.0645 -0.5421
  120OSM    H6T12587   6.153   5.317   5.513 -1.1084  1.0017 -1.9110
  120OSM    C7S12588   6.346   5.402   5.457 -0.3380 -0.3392 -0.2409
  120OSM    H7S12589   6.415   5.343   5.521 -2.8354 -2.4667  0.6025
  120OSM    H7T12590   6.381   5.507   5.453  0.6835 -0.6807 -0.3992
  120OSM    C8S12591   6.340   5.340   5.317 -0.0044 -0.8196  0.1307
  120OSM    H8S12592   6.277   5.249   5.307 -1.7375  0.4633 -1.1549
  120OSM    H8T12593   6.440   5.301   5.288 -0.4784 -0.7737 -1.6572
  120OSM    C9S12594   6.282   5.450   5.218  0.4178 -0.1444  0.6917
  120OSM    H9S12595   6.194   5.502   5.263 -0.9887 -1.9314  0.0790
  120OSM    H9T12596   6.251   5.400   5.124  1.4582 -1.3252  0.9602
  120OSM   C10S12597   6.378   5.562   5.177  0.1211  0.2621 -0.0941
  120OSM   H10S12598   6.470   5.508   5.146  0.6167  0.7749  0.4602
  120OSM   H10T12599   6.394   5.624   5.268 -0.3456 -1.7707  1.4203
  120OSM   C11S12600   6.345   5.654   5.061  0.3810 -0.3620 -0.3671
  120OSM   H11S12601   6.257   5.719   5.080 -0.0674 -0.4139 -2.1655
  120OSM   H11T12602   6.312   5.588   4.978  2.9552  0.6717 -2.3061
  120OSM   C12S12603   6.470   5.736   5.009 -0.0240 -0.3602  1.2270
  120OSM   H12S12604   6.546   5.661   4.979 -0.2584 -0.8223  1.7784
  120OSM   H12T12605   6.512   5.795   5.094  3.0439 -0.7304  0.0014
  120OSM   C13S12606   6.447   5.818   4.882  0.0221  0.2443  0.3371
  120OSM   H13S12607   6.390   5.764   4.803 -0.0890  2.2935 -1.0374
  120OSM   H13T12608   6.550   5.830   4.843 -0.2313  4.2949  0.6632
  120OSM   C14S12609   6.392   5.961   4.911  0.5152 -0.0934 -0.4535
  120OSM   H14S12610   6.433   5.985   5.011  4.9015  1.4832 -2.5206
  120OSM   H14T12611   6.282   5.947   4.923  0.1474  1.2254 -2.0946
  120OSM   C15S12612   6.414   6.075   4.810 -0.4200  0.1165  0.2845
  120OSM   H15S12613   6.371   6.043   4.713  3.0526 -2.8097 -0.3586
  120OSM   H15T12614   6.524   6.069   4.804 -0.4944  0.4132 -1.4532
  120OSM   C16S12615   6.355   6.210   4.854  0.0434 -0.1278 -0.0738
  120OSM   H16S12616   6.392   6.232   4.957  1.2750 -2.2964 -0.0301
  120OSM   H16T12617   6.245   6.208   4.862 -0.1372  0.7473 -2.1027
  120OSM   C17S12618   6.399   6.320   4.765  0.5740 -0.4252  0.2369
  120OSM   H17S12619   6.361   6.419   4.800 -0.5935 -0.5831 -0.5349
  120OSM   H17T12620   6.354   6.314   4.664 -0.6848 -3.9169  0.9376
  120OSM   C18S12621   6.550   6.333   4.750  0.5436 -0.2148 -0.4992
  120OSM   H18S12622   6.598   6.313   4.848  0.7903 -1.9867 -0.9578
  120OSM   H18T12623   6.558   6.435   4.705 -0.8087 -0.1556 -0.6202
  120OSM   H18U12624   6.579   6.261   4.670 -0.4814  0.0507 -1.1102
  120OSM    C1F12625   6.598   5.450   5.897  0.4701 -0.3095 -0.4017
  120OSM     OF12626   6.633   5.393   6.003 -0.3448  0.1296  0.0289
  120OSM    C2F12627   6.697   5.505   5.800  0.1098 -0.8412 -0.0704
  120OSM    H2F12628   6.798   5.502   5.846  0.1789 -1.0718 -0.2367
  120OSM    H2G12629   6.661   5.606   5.773  0.8462 -0.6924 -0.5098
  120OSM    C3F12630   6.700   5.422   5.672  0.1021  0.0582 -0.2320
  120OSM    H3F12631   6.601   5.410   5.624  0.3470  1.2215 -1.0336
  120OSM    H3G12632   6.732   5.319   5.701  2.3371  1.4313  2.4283
  120OSM    C4F12633   6.802   5.489   5.577 -0.3727  0.2348  0.4556
  120OSM    H4F12634   6.896   5.496   5.636  0.0927  0.2717 -0.2827
  120OSM    H4G12635   6.765   5.588   5.543  0.0219  0.2916  0.1847
  120OSM    C5F12636   6.844   5.417   5.449 -0.1245 -0.0979 -0.2376
  120OSM    H5F12637   6.911   5.333   5.479  1.1176  0.8928 -0.2019
  120OSM    H5G12638   6.903   5.475   5.375  1.9514 -2.1540 -0.2447
  120OSM    C6F12639   6.738   5.365   5.351  0.1712  0.1044  0.0688
  120OSM    H6F12640   6.670   5.441   5.307 -0.2796 -0.3609 -0.0392
  120OSM    H6G12641   6.665   5.302   5.407 -4.8987  2.2737 -3.6859
  120OSM    C7F12642   6.789   5.292   5.221  0.5809  0.1592  0.1813
  120OSM    H7F12643   6.694   5.240   5.196  1.3629 -1.3495  0.2852
  120OSM    H7G12644   6.877   5.228   5.246  0.7175  0.4686  0.5042
  120OSM    C8F12645   6.814   5.390   5.101  0.4979 -0.3924 -0.6277
  120OSM    H8F12646   6.895   5.458   5.134 -0.7020  0.3592  0.8026
  120OSM    H8G12647   6.724   5.454   5.096 -1.4125 -2.9441  0.0322
  120OSM    C9F12648   6.855   5.314   4.976 -0.5466  0.0130 -0.4591
  120OSM    H9F12649   6.962   5.292   4.973 -0.3477  1.0206 -1.0219
  120OSM   C10F12650   6.773   5.257   4.882 -0.5624 -0.4142 -1.2638
  120OSM   H10F12651   6.822   5.204   4.798  1.6530  0.2120 -0.4089
  120OSM   C11F12652   6.625   5.245   4.872 -0.0061  0.1692  0.5937
  120OSM   H11F12653   6.581   5.234   4.973  1.7996 -0.7533  1.3019
  120OSM   H11G12654   6.600   5.146   4.827  0.7164  0.2719 -0.0343
  120OSM   C12F12655   6.552   5.356   4.786  0.2714  0.1797 -0.2625
  120OSM   H12F12656   6.585   5.458   4.815  1.0656 -0.2083  0.1893
  120OSM   H12G12657   6.442   5.342   4.801  0.7364 -1.3309  1.9545
  120OSM   C13F12658   6.594   5.350   4.638 -0.4914  0.2946 -0.2293
  120OSM   H13F12659   6.513   5.282   4.604 -0.6205  1.0510 -1.4513
  120OSM   H13G12660   6.697   5.310   4.627  0.7138  2.6746  1.9151
  120OSM   C14F12661   6.557   5.477   4.566  0.2922 -0.0960  0.2349
  120OSM   H14F12662   6.640   5.548   4.586  1.6171 -1.7211  0.6798
  120OSM   H14G12663   6.457   5.518   4.591  0.5009 -1.1938  2.9735
  120OSM   C15F12664   6.537   5.438   4.417  0.4836 -0.5559  0.5943
  120OSM   H15F12665   6.452   5.367   4.406  0.5532 -0.1921 -2.5042
  120OSM   H15G12666   6.633   5.389   4.389  0.8942  1.8589 -2.5000
  120OSM   C16F12667   6.519   5.564   4.329  0.2135 -0.6614  0.1242
  120OSM   H16F12668   6.589   5.644   4.359 -1.4925  1.6243 -1.8045
  120OSM   H16G12669   6.420   5.604   4.361  0.0532 -1.1940  0.3082
  120OSM   C17F12670   6.513   5.548   4.179 -0.8301 -0.0476  0.4998
  120OSM   H17F12671   6.424   5.484   4.161 -1.1675  0.6287 -0.3065
  120OSM   H17G12672   6.603   5.494   4.144 -2.6230 -1.5629 -1.9834
  120OSM   C18F12673   6.484   5.684   4.108 -0.4605 -0.9315  0.3366
  120OSM   H18F12674   6.427   5.766   4.159 -0.6820 -0.0137 -1.3604
  120OSM   H18G12675   6.433   5.676   4.010 -0.3137 -1.2412  0.2885
  120OSM   H18H12676   6.578   5.735   4.079 -1.9740  2.1619  0.5635
  121OSM      N12677   5.655   7.204   6.374  0.1927  0.5225  0.2170
  121OSM    C1512678   5.606   7.059   6.356  0.1225  0.3000  0.5464
  121OSM   H15A12679   5.566   7.023   6.449 -2.4983  1.3707 -0.0939
  121OSM   H15B12680   5.684   6.991   6.326 -0.0404 -0.0935  1.0258
  121OSM   H15C12681   5.535   7.060   6.274  1.7373 -1.3326 -0.9099
  121OSM    C1412682   5.566   7.271   6.477  0.2937  0.0159 -0.2003
  121OSM   H14A12683   5.545   7.372   6.442  1.7597 -0.1887 -1.7278
  121OSM   H14B12684   5.604   7.283   6.577 -1.1610 -2.0996  0.6290
  121OSM   H14C12685   5.470   7.225   6.496  0.1433  0.6983  0.7217
  121OSM    C1312686   5.792   7.196   6.432 -0.6846  0.0969  0.2113
  121OSM   H13A12687   5.861   7.119   6.398 -0.2484 -0.1272  1.5883
  121OSM   H13B12688   5.796   7.193   6.540  3.0719 -0.1540  0.1431
  121OSM   H13C12689   5.860   7.277   6.409 -2.3174  2.0701  2.1749
  121OSM    C1212690   5.665   7.269   6.238 -0.2899  0.1684  0.9833
  121OSM   H12A12691   5.564   7.275   6.199  0.5186  2.0248 -0.9320
  121OSM   H12B12692   5.725   7.206   6.174  1.0844  0.8889  1.5421
  121OSM    C1112693   5.727   7.410   6.223  0.5575 -0.6350  0.1503
  121OSM   H11A12694   5.732   7.431   6.114  0.9239 -3.3749 -0.3923
  121OSM   H11B12695   5.835   7.414   6.246  0.6760  0.7227 -0.5950
  121OSM      P12696   5.503   7.560   6.243 -0.0759 -0.3098 -0.3911
  121OSM    O1312697   5.414   7.450   6.252 -0.1152  0.1927 -0.3238
  121OSM    O1412698   5.474   7.685   6.320  0.0865  0.2695  0.5311
  121OSM    O1112699   5.547   7.581   6.091  0.1666  0.0731  0.0645
  121OSM    O1212700   5.647   7.506   6.295  0.4213  0.2473  0.5848
  121OSM    C1S12701   5.589   7.706   6.040 -0.7745  0.8056 -0.3006
  121OSM    H1S12702   5.668   7.757   6.100 -0.5649  1.9657 -1.5398
  121OSM    H1T12703   5.500   7.772   6.034 -0.9589  0.5497 -0.3707
  121OSM     NF12704   5.731   7.789   5.842  0.4417  0.2742 -0.0432
  121OSM    HNF12705   5.688   7.862   5.789  0.7931 -0.8699 -1.9562
  121OSM    C2S12706   5.641   7.681   5.892  0.0545  0.0599 -0.2118
  121OSM    H2S12707   5.700   7.587   5.896 -1.9022 -1.2066 -0.5205
  121OSM    C3S12708   5.527   7.642   5.796 -0.1422 -0.8014  0.7443
  121OSM    H3S12709   5.459   7.728   5.781  1.9704  0.4349 -2.4696
  121OSM     O312710   5.458   7.525   5.838 -0.3345  0.8205 -0.2923
  121OSM    HO312711   5.482   7.519   5.931 -2.7896 -0.2029  0.3190
  121OSM    C4S12712   5.575   7.600   5.660 -0.2087 -0.3893 -0.1706
  121OSM    H4S12713   5.660   7.530   5.663  0.1516  0.0744  0.7208
  121OSM    C5S12714   5.537   7.661   5.539 -0.3203  0.1423 -0.6216
  121OSM    H5S12715   5.458   7.737   5.541 -0.3321  0.1992 -2.6261
  121OSM    C6S12716   5.594   7.627   5.404 -1.0054  0.2833 -0.1080
  121OSM    H6S12717   5.514   7.610   5.329  0.8658 -1.9288 -1.6469
  121OSM    H6T12718   5.652   7.533   5.413  1.4406  1.6555 -1.1686
  121OSM    C7S12719   5.693   7.728   5.352  0.3895  0.0697 -0.0119
  121OSM    H7S12720   5.788   7.720   5.409  1.2227 -0.0955 -1.4212
  121OSM    H7T12721   5.657   7.832   5.370  0.9278  0.1511  0.6050
  121OSM    C8S12722   5.713   7.716   5.195 -0.0241  0.2177 -0.1923
  121OSM    H8S12723   5.623   7.748   5.138  0.0346 -3.0028 -2.2199
  121OSM    H8T12724   5.732   7.608   5.176  3.3110  0.7096  0.0212
  121OSM    C9S12725   5.835   7.786   5.129  0.0847  0.5676 -0.5234
  121OSM    H9S12726   5.853   7.732   5.033  0.3493  0.2397 -0.2897
  121OSM    H9T12727   5.930   7.768   5.185 -1.2536  1.5590  2.1587
  121OSM   C10S12728   5.801   7.935   5.111  0.4680 -0.3310  0.0856
  121OSM   H10S12729   5.837   7.998   5.195  6.2468 -2.0404 -0.8778
  121OSM   H10T12730   5.691   7.947   5.104  0.5691  0.9120  0.5355
  121OSM   C11S12731   5.860   8.007   4.987  0.3727 -0.2548 -0.4360
  121OSM   H11S12732   5.969   7.986   4.980  0.0799 -1.1148 -2.9029
  121OSM   H11T12733   5.844   8.117   4.993  3.2821  0.2469 -1.1908
  121OSM   C12S12734   5.794   7.972   4.863 -0.7327  0.2824  0.3229
  121OSM   H12S12735   5.693   8.018   4.868 -0.2708  1.4808 -0.8793
  121OSM   H12T12736   5.775   7.863   4.852  0.5262  0.1138 -0.3312
  121OSM   C13S12737   5.860   8.020   4.737  0.2596  0.5367 -0.1974
  121OSM   H13S12738   5.948   7.955   4.717 -0.9200 -0.9293 -0.7291
  121OSM   H13T12739   5.892   8.122   4.765 -0.8437  0.9007 -0.2297
  121OSM   C14S12740   5.770   8.030   4.617  0.0839 -0.4179  0.1057
  121OSM   H14S12741   5.797   8.096   4.532  0.7719  0.0017  0.6424
  121OSM   H14T12742   5.670   8.057   4.656  0.1604 -0.9545  0.7003
  121OSM   C15S12743   5.781   7.895   4.543 -1.2113 -0.2686  0.3699
  121OSM   H15S12744   5.749   7.812   4.610  0.3131 -1.5065 -0.4032
  121OSM   H15T12745   5.889   7.879   4.525 -1.1768  1.2742 -0.8841
  121OSM   C16S12746   5.695   7.888   4.416  0.6350 -0.5976 -0.7133
  121OSM   H16S12747   5.712   7.970   4.342 -0.1338  3.2334  3.1420
  121OSM   H16T12748   5.590   7.899   4.450 -0.0937 -0.0336 -3.0097
  121OSM   C17S12749   5.698   7.745   4.345  0.8797  0.7272 -0.0466
  121OSM   H17S12750   5.662   7.672   4.420  2.2178  2.3502  2.2289
  121OSM   H17T12751   5.797   7.728   4.297  0.5773  0.2528 -0.5169
  121OSM   C18S12752   5.604   7.740   4.219 -0.2165 -0.5112 -0.0124
  121OSM   H18S12753   5.630   7.818   4.145  0.0650 -1.0384 -0.4741
  121OSM   H18T12754   5.496   7.745   4.248 -0.3907 -0.6861 -0.6205
  121OSM   H18U12755   5.621   7.643   4.167 -2.4008 -0.1400 -1.5175
  121OSM    C1F12756   5.855   7.821   5.889 -0.1790 -0.5032 -0.2934
  121OSM     OF12757   5.909   7.762   5.977  0.1587 -0.0689 -0.2357
  121OSM    C2F12758   5.914   7.949   5.831 -0.9040 -0.1059 -0.5256
  121OSM    H2F12759   5.967   8.002   5.913  1.8814 -2.0032 -1.0546
  121OSM    H2G12760   5.827   8.005   5.790 -0.7352  0.6240  0.1104
  121OSM    C3F12761   6.027   7.915   5.740 -0.2113  0.1925 -0.4356
  121OSM    H3F12762   6.100   7.842   5.783  0.1043  1.1710  0.7157
  121OSM    H3G12763   6.078   8.012   5.723 -2.4353  1.6457  0.9408
  121OSM    C4F12764   5.983   7.867   5.598 -0.5314  0.0311  0.0464
  121OSM    H4F12765   5.904   7.789   5.607 -0.2723 -0.2273  0.0769
  121OSM    H4G12766   6.069   7.830   5.539  0.1975  0.6615  0.7052
  121OSM    C5F12767   5.914   7.973   5.506 -0.8198 -1.0133  0.2486
  121OSM    H5F12768   5.812   7.993   5.543 -0.9912  0.2396 -0.8568
  121OSM    H5G12769   5.897   7.926   5.406  0.2642 -0.0489 -0.3998
  121OSM    C6F12770   5.996   8.103   5.491 -0.0220 -0.0294  0.4086
  121OSM    H6F12771   6.102   8.071   5.476  0.4191  1.4473  0.2350
  121OSM    H6G12772   5.992   8.162   5.585  1.6446  1.4195 -0.3843
  121OSM    C7F12773   5.956   8.169   5.368 -0.3579  0.2155  0.0375
  121OSM    H7F12774   5.846   8.156   5.365 -0.4697  1.1022  0.1265
  121OSM    H7G12775   6.006   8.123   5.280 -0.2499 -1.3362  0.8959
  121OSM    C8F12776   5.990   8.318   5.355  0.1696 -0.0651 -0.6894
  121OSM    H8F12777   5.981   8.343   5.247 -0.3957 -2.3909 -1.2069
  121OSM    H8G12778   6.095   8.325   5.388 -0.1012 -0.4344  0.2746
  121OSM    C9F12779   5.904   8.406   5.437  0.6129  0.7032  0.4648
  121OSM    H9F12780   5.831   8.355   5.501  0.8995 -1.6533 -1.0127
  121OSM   C10F12781   5.905   8.542   5.420  0.2064  0.3591 -0.5446
  121OSM   H10F12782   5.852   8.601   5.497 -0.5489 -0.8329 -0.1391
  121OSM   C11F12783   5.995   8.624   5.326 -0.0312  0.5915  0.3576
  121OSM   H11F12784   6.057   8.546   5.275 -2.0878 -1.9347  1.5697
  121OSM   H11G12785   6.063   8.689   5.384  2.4040 -1.3227 -0.2616
  121OSM   C12F12786   5.921   8.708   5.220 -0.6463 -0.0273 -0.0906
  121OSM   H12F12787   5.982   8.791   5.179  0.5019 -1.9973 -2.4945
  121OSM   H12G12788   5.831   8.756   5.265 -1.8212 -0.8036 -1.5838
  121OSM   C13F12789   5.867   8.615   5.108  0.8060  0.2071  0.0260
  121OSM   H13F12790   5.807   8.537   5.160  1.3577 -0.2370  0.0002
  121OSM   H13G12791   5.959   8.574   5.060 -0.8550 -0.9093 -2.2703
  121OSM   C14F12792   5.772   8.683   5.008  0.8387 -0.2422  0.0644
  121OSM   H14F12793   5.818   8.783   4.993 -1.9848  1.3112  1.3497
  121OSM   H14G12794   5.669   8.696   5.046 -1.2342 -3.4925 -4.1169
  121OSM   C15F12795   5.763   8.604   4.878  0.7866 -0.3707  0.5062
  121OSM   H15F12796   5.714   8.504   4.889  0.4505 -0.1883  0.6912
  121OSM   H15G12797   5.867   8.582   4.847  0.9556  1.3985 -0.2215
  121OSM   C16F12798   5.694   8.689   4.770 -0.2101  0.0898 -0.2393
  121OSM   H16F12799   5.752   8.784   4.776 -0.1711  0.0079  0.7944
  121OSM   H16G12800   5.587   8.707   4.795  0.2377  0.9612  1.1355
  121OSM   C17F12801   5.709   8.638   4.628  0.3086  0.1319  0.6420
  121OSM   H17F12802   5.670   8.534   4.629 -2.5311  1.0426 -3.2822
  121OSM   H17G12803   5.817   8.638   4.599  0.3842 -0.3114  0.9206
  121OSM   C18F12804   5.633   8.738   4.535  0.0674 -0.1780  0.2741
  121OSM   H18F12805   5.529   8.754   4.573  0.0258 -0.9164  0.4790
  121OSM   H18G12806   5.622   8.698   4.433 -3.3718 -2.7055  1.5206
  121OSM   H18H12807   5.669   8.843   4.537 -0.7918  0.1149  1.2695
  122OSM      N12808   0.460   6.433   6.536  0.1900  0.6516 -0.0259
  122OSM    C1512809   0.322   6.375   6.541 -0.1674  0.0774  0.0018
  122OSM   H15A12810   0.320   6.268   6.557  0.5438  0.1850  0.8597
  122OSM   H15B12811   0.257   6.405   6.461 -1.0515  0.1641  0.7431
  122OSM   H15C12812   0.269   6.402   6.632  3.3646 -2.1154  2.8435
  122OSM    C1412813   0.465   6.582   6.555 -0.6374  0.8169  0.3541
  122OSM   H14A12814   0.429   6.633   6.466  2.9497  2.6399 -0.1237
  122OSM   H14B12815   0.565   6.613   6.581  0.5868 -1.9449 -0.8341
  122OSM   H14C12816   0.400   6.603   6.639 -1.1426 -1.5494  0.5902
  122OSM    C1312817   0.530   6.368   6.648 -0.2030 -0.3181 -0.3978
  122OSM   H13A12818   0.502   6.395   6.749 -1.6596  1.3301 -1.2062
  122OSM   H13B12819   0.635   6.392   6.635 -0.2378  0.3327  0.4635
  122OSM   H13C12820   0.526   6.261   6.643 -0.2906 -0.3816  0.8711
  122OSM    C1212821   0.515   6.404   6.393  0.7470  0.4279  0.0867
  122OSM   H12A12822   0.512   6.296   6.387 -0.1379  0.5343 -1.8527
  122OSM   H12B12823   0.620   6.432   6.391  1.3405 -1.7546 -1.0064
  122OSM    C1112824   0.442   6.461   6.276 -0.4647 -0.1617  0.3510
  122OSM   H11A12825   0.505   6.446   6.185  0.3569 -2.5604  1.2686
  122OSM   H11B12826   0.436   6.571   6.281 -0.8332 -0.1516 -0.3177
  122OSM      P12827   0.305   6.259   6.196 -0.1074 -0.2401  0.3900
  122OSM    O1312828   0.395   6.168   6.268  0.0707  0.6102 -0.0319
  122OSM    O1412829   0.167   6.209   6.188  0.1665 -1.3675  0.6594
  122OSM    O1112830   0.374   6.278   6.055  0.5954 -0.1900 -0.2420
  122OSM    O1212831   0.311   6.407   6.255 -0.1732 -0.3394  0.0259
  122OSM    C1S12832   0.323   6.373   5.965  0.4500 -0.5249  0.0951
  122OSM    H1S12833   0.379   6.469   5.972 -0.2954  0.0846 -1.8893
  122OSM    H1T12834   0.213   6.387   5.968  0.3899 -0.8496 -0.5872
  122OSM     NF12835   0.305   6.428   5.729  0.4530  0.7753  0.4413
  122OSM    HNF12836   0.208   6.419   5.704  1.1950 -1.8938 -1.6690
  122OSM    C2S12837   0.340   6.319   5.818 -0.0183  0.5665 -0.3942
  122OSM    H2S12838   0.446   6.288   5.804 -0.2866 -0.3053 -0.5206
  122OSM    C3S12839   0.252   6.190   5.803 -0.3815 -0.0859 -0.8048
  122OSM    H3S12840   0.143   6.204   5.820 -0.2496 -0.2914  0.2507
  122OSM     O312841   0.292   6.085   5.890 -0.5758 -0.1680 -0.5154
  122OSM    HO312842   0.343   6.135   5.954 -0.0183 -1.9169  0.4351
  122OSM    C4S12843   0.269   6.150   5.658 -0.7396 -0.2307  0.5747
  122OSM    H4S12844   0.368   6.177   5.621  0.0013 -0.8658  2.0486
  122OSM    C5S12845   0.180   6.081   5.580  0.7082  0.7000  0.2516
  122OSM    H5S12846   0.084   6.054   5.625  0.7630 -1.0634 -0.6373
  122OSM    C6S12847   0.198   6.058   5.433 -0.0647 -0.3185 -0.3769
  122OSM    H6S12848   0.101   6.061   5.379 -0.8313 -0.8972  0.9457
  122OSM    H6T12849   0.255   5.965   5.415 -0.4791 -0.1901 -2.4851
  122OSM    C7S12850   0.281   6.170   5.358 -0.4329  0.2337 -0.6405
  122OSM    H7S12851   0.387   6.169   5.391 -0.7202 -2.2277  0.3508
  122OSM    H7T12852   0.246   6.270   5.392  0.1551  0.3880 -0.4818
  122OSM    C8S12853   0.295   6.154   5.206  0.2966  0.3991  0.5666
  122OSM    H8S12854   0.207   6.127   5.144  0.8691  2.4649 -1.2077
  122OSM    H8T12855   0.368   6.072   5.192 -0.6979 -0.5943  1.0847
  122OSM    C9S12856   0.364   6.271   5.125 -0.7655  0.3636 -0.1342
  122OSM    H9S12857   0.306   6.366   5.124  0.1718  0.9506 -1.2144
  122OSM    H9T12858   0.376   6.240   5.019 -0.9973  2.1336 -0.6921
  122OSM   C10S12859   0.505   6.316   5.181  0.5461  0.2198 -0.2150
  122OSM   H10S12860   0.547   6.237   5.246 -1.5180  1.0191  2.1917
  122OSM   H10T12861   0.492   6.399   5.254 -0.0052  1.0718 -1.2587
  122OSM   C11S12862   0.594   6.345   5.061  0.0965  0.0633 -0.1410
  122OSM   H11S12863   0.630   6.448   5.084  0.8323  0.2039 -1.8156
  122OSM   H11T12864   0.531   6.361   4.971  1.2725  0.3031 -0.9402
  122OSM   C12S12865   0.702   6.231   5.040  0.7312  0.1133  1.0400
  122OSM   H12S12866   0.654   6.131   5.042  2.5791 -0.7577  2.5146
  122OSM   H12T12867   0.788   6.223   5.108  2.0075  0.3272 -0.5199
  122OSM   C13S12868   0.773   6.255   4.906  0.2948  0.4618  0.2242
  122OSM   H13S12869   0.810   6.359   4.899 -0.5586  0.9354  2.3647
  122OSM   H13T12870   0.711   6.232   4.816 -0.6051 -0.1166  0.9757
  122OSM   C14S12871   0.901   6.166   4.895 -0.1573 -0.2123 -0.1340
  122OSM   H14S12872   0.880   6.057   4.889  0.1241 -0.2947  0.3232
  122OSM   H14T12873   0.962   6.184   4.987  0.0419 -0.2371 -0.2609
  122OSM   C15S12874   0.995   6.203   4.781 -0.7055  0.2564  0.2329
  122OSM   H15S12875   1.093   6.155   4.800 -1.5914 -0.7315  2.5027
  122OSM   H15T12876   1.019   6.311   4.785 -0.0306  0.0886  0.8759
  122OSM   C16S12877   0.939   6.177   4.643 -0.3037 -1.2296 -0.0381
  122OSM   H16S12878   0.841   6.230   4.641  0.1843 -0.2868  0.9275
  122OSM   H16T12879   0.918   6.070   4.621 -1.5353 -0.8585 -0.7169
  122OSM   C17S12880   1.028   6.228   4.526  0.1076  0.3039  0.0075
  122OSM   H17S12881   1.126   6.176   4.517  0.0368  0.7301 -4.6651
  122OSM   H17T12882   1.041   6.337   4.540 -1.1862  0.2278  1.9730
  122OSM   C18S12883   0.969   6.203   4.385  0.7083 -0.1723 -0.9514
  122OSM   H18S12884   0.963   6.092   4.374  1.8476 -0.2591 -0.7413
  122OSM   H18T12885   1.012   6.249   4.293 -1.5697 -0.5512 -2.2480
  122OSM   H18U12886   0.867   6.247   4.378  2.2639  3.2275 -4.8072
  122OSM    C1F12887   0.379   6.529   5.695 -0.0901 -0.2881  0.2520
  122OSM     OF12888   0.486   6.543   5.748 -0.2999  0.1329  0.9418
  122OSM    C2F12889   0.326   6.618   5.585 -0.1403  0.0524 -0.4590
  122OSM    H2F12890   0.269   6.701   5.631  0.0809 -0.8607  1.5148
  122OSM    H2G12891   0.253   6.557   5.528 -0.5236  0.7053 -0.6749
  122OSM    C3F12892   0.420   6.680   5.477  0.6281 -0.6154 -0.7538
  122OSM    H3F12893   0.485   6.608   5.423  3.1303  0.8298  0.2376
  122OSM    H3G12894   0.479   6.750   5.540 -1.8062  1.8732 -1.1533
  122OSM    C4F12895   0.339   6.754   5.374  0.0725 -0.9735  0.2019
  122OSM    H4F12896   0.402   6.822   5.312 -1.9154  0.3868 -0.3493
  122OSM    H4G12897   0.269   6.826   5.421 -0.2387 -0.0163 -1.6799
  122OSM    C5F12898   0.267   6.658   5.272  0.3386 -0.6852 -0.4563
  122OSM    H5F12899   0.182   6.619   5.330 -0.8418  1.4250 -0.7027
  122OSM    H5G12900   0.332   6.572   5.245  0.6827 -0.9799  1.2424
  122OSM    C6F12901   0.224   6.725   5.137  0.6888  0.1766  0.0836
  122OSM    H6F12902   0.313   6.759   5.079 -0.3666 -0.1597 -1.7924
  122OSM    H6G12903   0.154   6.809   5.155 -2.2699 -2.5240  1.7998
  122OSM    C7F12904   0.154   6.622   5.057  0.5460 -0.3706  0.8354
  122OSM    H7F12905   0.066   6.591   5.117 -1.9401  2.9146 -0.9563
  122OSM    H7G12906   0.223   6.536   5.040 -0.1714 -1.1062  1.5594
  122OSM    C8F12907   0.118   6.674   4.915  0.6467  0.4172 -0.3327
  122OSM    H8F12908   0.200   6.682   4.841  1.4759  1.3725  0.6797
  122OSM    H8G12909   0.072   6.775   4.925  3.6408  1.8657 -0.5939
  122OSM    C9F12910   0.019   6.581   4.844 -0.4136  0.4337 -0.0399
  122OSM    H9F12911  -0.058   6.541   4.911  0.2375 -1.3111 -0.3060
  122OSM   C10F12912   0.024   6.533   4.721  0.1421  0.0934  0.0656
  122OSM   H10F12913  -0.051   6.460   4.687  1.4568 -0.5328 -1.5965
  122OSM   C11F12914   0.132   6.569   4.622  0.3694 -0.1340  0.4340
  122OSM   H11F12915   0.146   6.476   4.563 -0.8225 -0.3287  0.4346
  122OSM   H11G12916   0.229   6.590   4.671  0.9258  0.0954 -0.7530
  122OSM   C12F12917   0.096   6.687   4.538  0.4943  0.4752  0.1353
  122OSM   H12F12918   0.056   6.770   4.600 -4.3225 -0.6816 -1.1803
  122OSM   H12G12919   0.017   6.659   4.465  0.5289  0.9543 -0.0830
  122OSM   C13F12920   0.213   6.732   4.448  0.1916 -0.2732 -0.0552
  122OSM   H13F12921   0.244   6.646   4.385 -2.4258 -0.7284 -0.7577
  122OSM   H13G12922   0.293   6.768   4.516  0.4500  1.1858 -1.0962
  122OSM   C14F12923   0.186   6.850   4.351 -0.2852 -0.2048  0.1456
  122OSM   H14F12924   0.143   6.938   4.404 -2.4383 -0.5661 -0.9444
  122OSM   H14G12925   0.101   6.827   4.284  0.1046 -1.6198  0.1311
  122OSM   C15F12926   0.309   6.889   4.265  0.4809  0.4934  0.1451
  122OSM   H15F12927   0.273   6.965   4.192 -4.1120 -2.2096 -0.5978
  122OSM   H15G12928   0.340   6.799   4.207 -0.5690  0.1531  0.1121
  122OSM   C16F12929   0.431   6.943   4.340  0.1724 -0.7697 -0.1346
  122OSM   H16F12930   0.473   6.869   4.411 -1.9995 -3.2399 -1.3312
  122OSM   H16G12931   0.402   7.036   4.394  2.1349 -1.1096  1.5491
  122OSM   C17F12932   0.540   6.963   4.234 -1.5097  0.5717 -0.5123
  122OSM   H17F12933   0.501   7.025   4.151 -2.5942 -0.5655 -0.8676
  122OSM   H17G12934   0.556   6.864   4.186 -0.7535  0.0281  0.8381
  122OSM   C18F12935   0.675   7.001   4.286  0.1886  0.2313  0.0744
  122OSM   H18F12936   0.682   7.112   4.292  1.5884  0.1320  0.5711
  122OSM   H18G12937   0.757   6.975   4.216 -1.8472  0.7868 -2.5658
  122OSM   H18H12938   0.693   6.957   4.386 -0.8787 -1.3998 -0.4377
  123OSM      N12939   2.741   4.141   1.948 -0.3051 -0.6453 -0.6543
  123OSM    C1512940   2.692   4.197   1.812 -0.9711 -0.0665 -0.1041
  123OSM   H15A12941   2.615   4.272   1.823 -0.6384  0.3814 -0.8448
  123OSM   H15B12942   2.648   4.120   1.751 -0.3428  0.0475 -0.7065
  123OSM   H15C12943   2.780   4.234   1.761 -0.5200  0.4421  1.0087
  123OSM    C1412944   2.629   4.081   2.018 -0.0883 -0.4094  0.4332
  123OSM   H14A12945   2.560   4.158   2.047  0.2485 -0.3091  0.9617
  123OSM   H14B12946   2.677   4.041   2.106  1.8843  0.2511 -0.3179
  123OSM   H14C12947   2.587   3.999   1.962  0.2538  0.4377 -1.0883
  123OSM    C1312948   2.836   4.029   1.913 -0.5599 -0.5422  1.2195
  123OSM   H13A12949   2.882   3.982   1.999  0.2762 -1.0878  0.4895
  123OSM   H13B12950   2.905   4.071   1.841 -1.6255  0.7189  0.9149
  123OSM   H13C12951   2.785   3.950   1.859 -1.2956  0.8779 -0.2082
  123OSM    C1212952   2.802   4.250   2.029  0.1354 -0.1765 -0.6304
  123OSM   H12A12953   2.731   4.329   2.048  1.8330  1.2235  0.1112
  123OSM   H12B12954   2.885   4.295   1.976  0.0411 -1.8442 -2.2250
  123OSM    C1112955   2.863   4.212   2.165  0.8056 -0.1587  1.0091
  123OSM   H11A12956   2.787   4.157   2.225 -0.5116 -1.1924 -1.5438
  123OSM   H11B12957   2.893   4.306   2.215  2.5980 -0.3957  0.4197
  123OSM      P12958   3.125   4.167   2.161 -0.0308 -0.0284 -0.4184
  123OSM    O1312959   3.218   4.061   2.133  0.9095  0.2670 -0.2780
  123OSM    O1412960   3.149   4.295   2.085 -0.1331 -0.5600  0.2722
  123OSM    O1112961   3.134   4.198   2.319 -0.4488 -0.1170  1.1002
  123OSM    O1212962   2.976   4.120   2.149  0.0113 -0.1899 -0.3898
  123OSM    C1S12963   3.223   4.133   2.407  0.2069  0.5304 -0.0987
  123OSM    H1S12964   3.326   4.173   2.400  0.1886  0.6676  0.3635
  123OSM    H1T12965   3.232   4.023   2.391  0.5333  0.4318  0.7188
  123OSM     NF12966   3.291   4.108   2.640  0.0264  0.4263 -0.5622
  123OSM    HNF12967   3.294   4.013   2.671  0.4103  0.0851 -1.6444
  123OSM    C2S12968   3.177   4.141   2.562 -0.8131  0.7552 -0.8402
  123OSM    H2S12969   3.146   4.244   2.588 -1.8423  0.2818 -0.1656
  123OSM    C3S12970   3.057   4.054   2.588 -0.5845 -0.8657 -0.4915
  123OSM    H3S12971   3.082   3.950   2.558  2.2338 -0.4854  0.4438
  123OSM     O312972   2.946   4.084   2.505 -0.6927 -0.6988 -0.3400
  123OSM    HO312973   2.981   4.117   2.422 -0.1377 -1.3477 -0.3731
  123OSM    C4S12974   3.016   4.069   2.731 -0.1699  0.6589  0.1411
  123OSM    H4S12975   2.973   4.167   2.758  0.4181  0.7014  0.9307
  123OSM    C5S12976   3.028   3.977   2.823 -0.3093  0.4854 -0.3648
  123OSM    H5S12977   3.054   3.872   2.802 -0.5487 -0.2479  2.7859
  123OSM    C6S12978   2.983   3.989   2.965 -0.2003 -0.2518 -0.5441
  123OSM    H6S12979   2.918   3.905   3.001 -0.9449  0.7615  0.5033
  123OSM    H6T12980   2.939   4.089   2.980  1.7817  0.7003 -0.9189
  123OSM    C7S12981   3.097   3.992   3.074  0.4156  0.2887  0.6362
  123OSM    H7S12982   3.047   4.044   3.159 -1.9836  0.5272 -0.8818
  123OSM    H7T12983   3.184   4.051   3.035  0.2833  0.4465  0.5803
  123OSM    C8S12984   3.130   3.851   3.125 -0.1712 -0.3609  0.7501
  123OSM    H8S12985   3.138   3.787   3.034  0.8445  0.4031  0.2940
  123OSM    H8T12986   3.044   3.810   3.183  0.6189 -1.6743  1.0125
  123OSM    C9S12987   3.264   3.828   3.198  0.2113  0.3445 -0.7976
  123OSM    H9S12988   3.263   3.895   3.286  2.0476 -0.6515 -0.0006
  123OSM    H9T12989   3.352   3.848   3.132  1.0583  0.2584  0.3001
  123OSM   C10S12990   3.277   3.683   3.255 -0.1324  0.6525 -0.4888
  123OSM   H10S12991   3.282   3.609   3.172 -1.8589  0.9922 -0.9163
  123OSM   H10T12992   3.200   3.659   3.330  1.0124 -1.7320 -0.0307
  123OSM   C11S12993   3.416   3.659   3.329 -0.4814 -1.3032 -0.2561
  123OSM   H11S12994   3.487   3.731   3.283  0.5072 -2.8900 -1.3053
  123OSM   H11T12995   3.452   3.555   3.314  0.6297 -0.7462 -1.5602
  123OSM   C12S12996   3.414   3.684   3.482  0.0430  0.7545  0.2790
  123OSM   H12S12997   3.336   3.622   3.532 -0.1082  1.5830  1.0871
  123OSM   H12T12998   3.386   3.791   3.487 -2.6451  0.2691 -2.3798
  123OSM   C13S12999   3.544   3.656   3.554  0.1426  1.0886 -0.0410
  123OSM   H13S13000   3.533   3.717   3.646  0.3439 -1.9816  2.0822
  123OSM   H13T13001   3.645   3.676   3.512  0.0493 -0.0671 -0.8332
  123OSM   C14S13002   3.563   3.503   3.591 -0.3865 -0.6722  0.7899
  123OSM   H14S13003   3.639   3.459   3.523 -3.0469 -1.8331 -1.5446
  123OSM   H14T13004   3.465   3.451   3.595 -0.7722 -0.0466 -0.1345
  123OSM   C15S13005   3.622   3.487   3.732  0.1647 -0.5460  0.1780
  123OSM   H15S13006   3.624   3.378   3.755 -0.2507 -0.6731 -0.3844
  123OSM   H15T13007   3.559   3.537   3.808  0.1271 -0.4935  0.1117
  123OSM   C16S13008   3.760   3.552   3.759  0.9678  0.0508  0.6268
  123OSM   H16S13009   3.738   3.659   3.779 -1.8311 -0.1917 -0.7862
  123OSM   H16T13010   3.835   3.535   3.679  0.7458  1.5150  0.0983
  123OSM   C17S13011   3.833   3.506   3.886 -0.2521  0.0968 -0.6095
  123OSM   H17S13012   3.762   3.538   3.965  0.1952  0.1292 -0.2242
  123OSM   H17T13013   3.917   3.578   3.888 -0.1269 -0.0839  1.7536
  123OSM   C18S13014   3.871   3.361   3.897  0.4500  0.3704  0.7101
  123OSM   H18S13015   3.937   3.323   3.816 -0.5564  0.4667 -0.1604
  123OSM   H18T13016   3.789   3.288   3.887  0.7374  0.1871 -0.3587
  123OSM   H18U13017   3.929   3.351   3.992  0.6785  4.4138  1.0725
  123OSM    C1F13018   3.396   4.186   2.664  0.0047 -0.1821 -0.3646
  123OSM     OF13019   3.391   4.301   2.626  0.0359 -0.7616 -0.0532
  123OSM    C2F13020   3.503   4.126   2.749  0.0190  0.6914 -0.1299
  123OSM    H2F13021   3.581   4.095   2.676  0.2649 -0.4656  0.6210
  123OSM    H2G13022   3.463   4.041   2.808  0.0997 -0.2425 -1.3980
  123OSM    C3F13023   3.556   4.228   2.854 -0.4869 -0.0265 -0.5248
  123OSM    H3F13024   3.474   4.299   2.877 -2.8727 -1.2052 -4.8294
  123OSM    H3G13025   3.640   4.284   2.808 -0.6120  1.4153  0.9582
  123OSM    C4F13026   3.594   4.176   2.992  0.2016  0.1735  0.5312
  123OSM    H4F13027   3.672   4.245   3.030  3.4729 -2.4952 -1.0653
  123OSM    H4G13028   3.647   4.079   2.982 -0.4828 -0.1243 -0.2048
  123OSM    C5F13029   3.476   4.161   3.097  0.1426  1.1052  0.6717
  123OSM    H5F13030   3.392   4.102   3.056 -0.3160  0.9617  1.8059
  123OSM    H5G13031   3.431   4.261   3.117 -2.3531 -0.2221  1.8678
  123OSM    C6F13032   3.518   4.084   3.223 -0.1838 -0.0345 -0.0697
  123OSM    H6F13033   3.541   3.979   3.195 -2.9563 -0.6082 -0.3751
  123OSM    H6G13034   3.422   4.081   3.279 -1.9378  2.9890 -2.7725
  123OSM    C7F13035   3.636   4.138   3.307  0.4893  0.2540 -0.2082
  123OSM    H7F13036   3.595   4.231   3.352 -0.1588 -0.2711  0.3104
  123OSM    H7G13037   3.726   4.143   3.243  1.9416 -1.1864  1.6452
  123OSM    C8F13038   3.670   4.046   3.425  0.0401 -0.2317  0.5024
  123OSM    H8F13039   3.701   3.944   3.393 -2.7498 -0.4412 -1.7401
  123OSM    H8G13040   3.573   4.033   3.476 -0.4390  0.0613 -0.3166
  123OSM    C9F13041   3.759   4.103   3.527 -0.2564 -0.5421  0.4849
  123OSM    H9F13042   3.736   4.208   3.553 -2.6145 -1.3537  1.8348
  123OSM   C10F13043   3.856   4.030   3.596  0.6438  0.0017 -0.5921
  123OSM   H10F13044   3.913   4.088   3.671  1.5764 -1.6804  0.0270
  123OSM   C11F13045   3.907   3.887   3.590 -0.6104 -0.3828 -0.5137
  123OSM   H11F13046   3.984   3.887   3.510 -0.9339 -0.3558 -0.8271
  123OSM   H11G13047   3.826   3.815   3.563 -1.6090  0.7700 -0.6160
  123OSM   C12F13048   3.967   3.828   3.720  0.0580  0.5379 -0.8634
  123OSM   H12F13049   4.001   3.727   3.689 -0.7737  0.3154 -1.0856
  123OSM   H12G13050   3.884   3.817   3.793 -0.1194 -2.3817 -1.4305
  123OSM   C13F13051   4.090   3.898   3.780 -0.6480 -0.6688 -0.5992
  123OSM   H13F13052   4.081   4.007   3.801 -0.2385 -1.1394  2.1398
  123OSM   H13G13053   4.159   3.874   3.697 -2.2465  0.4212 -2.2889
  123OSM   C14F13054   4.148   3.826   3.910  0.8270  0.2934 -0.1368
  123OSM   H14F13055   4.246   3.869   3.940  0.9206  0.5409 -0.7870
  123OSM   H14G13056   4.168   3.723   3.874  0.3675 -0.4541  1.7000
  123OSM   C15F13057   4.053   3.842   4.027 -0.4449 -0.3390 -0.8448
  123OSM   H15F13058   4.105   3.798   4.114 -0.7942  1.6115  0.3917
  123OSM   H15G13059   3.960   3.792   3.993 -0.0267 -0.6420 -1.5618
  123OSM   C16F13060   4.024   3.991   4.063 -0.2588  0.2787 -0.4596
  123OSM   H16F13061   3.951   3.986   4.147  1.5584  1.3708  1.2054
  123OSM   H16G13062   3.979   4.043   3.975 -2.3758 -0.6827  0.0188
  123OSM   C17F13063   4.147   4.070   4.109  0.5605  0.2322  0.3780
  123OSM   H17F13064   4.233   4.001   4.123  0.6016 -0.3939 -2.6464
  123OSM   H17G13065   4.132   4.110   4.212 -1.0287 -2.2688  1.1526
  123OSM   C18F13066   4.188   4.177   4.014 -0.1358 -0.1115 -0.2397
  123OSM   H18F13067   4.238   4.121   3.933  0.8922 -2.2475  1.8208
  123OSM   H18G13068   4.268   4.247   4.047  0.4694 -1.5237  1.3644
  123OSM   H18H13069   4.110   4.237   3.962 -0.3838 -0.1564  0.0762
  124OSM      N13070   2.354   4.841   2.141 -0.4435 -0.2616 -0.3222
  124OSM    C1513071   2.303   4.759   2.256 -0.2679 -0.4196 -0.1552
  124OSM   H15A13072   2.196   4.768   2.266 -0.4047 -0.6881 -1.2822
  124OSM   H15B13073   2.345   4.803   2.346  0.5900 -0.5029 -0.5026
  124OSM   H15C13074   2.336   4.656   2.258 -2.6831 -1.2121  2.7986
  124OSM    C1413075   2.292   4.801   2.010  0.4532  0.4036  0.3665
  124OSM   H14A13076   2.186   4.788   2.024  0.4464 -1.0001 -0.8639
  124OSM   H14B13077   2.319   4.700   1.984 -0.5026 -0.1351  1.4792
  124OSM   H14C13078   2.314   4.870   1.930  1.7849 -0.5704 -0.1248
  124OSM    C1313079   2.295   4.972   2.166  0.1323  0.2340 -0.0192
  124OSM   H13A13080   2.294   5.021   2.070 -1.5723  0.2045 -0.0409
  124OSM   H13B13081   2.367   5.021   2.230  1.5416  0.5778 -1.8434
  124OSM   H13C13082   2.193   4.968   2.202 -0.3059 -0.9949 -1.3312
  124OSM    C1213083   2.505   4.842   2.123 -0.7012  0.4757  0.1963
  124OSM   H12A13084   2.535   4.894   2.034 -1.7352 -0.9651 -1.0115
  124OSM   H12B13085   2.539   4.740   2.115 -1.8373 -0.0195  1.4499
  124OSM    C1113086   2.580   4.916   2.237 -0.6635  0.1010  0.2607
  124OSM   H11A13087   2.681   4.870   2.230 -0.2259  1.0154  0.4395
  124OSM   H11B13088   2.543   4.882   2.336 -1.3713 -0.7155 -0.2874
  124OSM      P13089   2.721   5.133   2.202  0.5299 -0.1351 -0.4024
  124OSM    O1313090   2.746   5.109   2.056  0.2541 -0.4842  0.8268
  124OSM    O1413091   2.709   5.277   2.247 -0.8170  0.2554  0.1392
  124OSM    O1113092   2.831   5.050   2.282  0.2164 -0.1136  0.1711
  124OSM    O1213093   2.584   5.056   2.234 -0.8649  0.8228 -0.4564
  124OSM    C1S13094   2.971   5.085   2.271 -0.4632  0.3449 -0.3508
  124OSM    H1S13095   2.986   5.194   2.254 -1.3868  0.6345  0.6319
  124OSM    H1T13096   3.019   5.028   2.189 -1.9578  0.6682 -1.4752
  124OSM     NF13097   3.160   5.116   2.419 -0.3249  0.4293 -0.2237
  124OSM    HNF13098   3.241   5.074   2.379 -1.2465 -1.6657  0.0279
  124OSM    C2S13099   3.037   5.042   2.408 -0.5554 -0.1701  0.0008
  124OSM    H2S13100   2.966   5.065   2.490  0.9883 -1.6068  1.8011
  124OSM    C3S13101   3.055   4.891   2.431  0.1707 -0.1421  0.6949
  124OSM    H3S13102   3.130   4.846   2.362  0.6369  1.9044 -0.1689
  124OSM     O313103   2.931   4.827   2.401  0.0073  0.2904 -0.3030
  124OSM    HO313104   2.868   4.892   2.368 -0.5888 -0.2800 -0.3170
  124OSM    C4S13105   3.100   4.859   2.569  0.2889  0.5695  0.0610
  124OSM    H4S13106   3.026   4.849   2.649  0.8836 -0.3223  0.5121
  124OSM    C5S13107   3.224   4.816   2.614 -0.0923  0.4983  0.2450
  124OSM    H5S13108   3.298   4.799   2.534  0.1334  0.4249  0.4728
  124OSM    C6S13109   3.242   4.789   2.761 -0.0916 -0.4243  0.1736
  124OSM    H6S13110   3.249   4.680   2.781  1.4317 -0.2903  0.4359
  124OSM    H6T13111   3.156   4.827   2.821  0.1457  2.7929 -1.4313
  124OSM    C7S13112   3.370   4.849   2.811 -0.3766  0.7300 -0.3745
  124OSM    H7S13113   3.366   4.959   2.794  0.9804  0.7292 -0.7926
  124OSM    H7T13114   3.452   4.803   2.752 -0.9799  0.1103 -0.7290
  124OSM    C8S13115   3.399   4.810   2.960 -0.3033 -0.2081  0.3074
  124OSM    H8S13116   3.402   4.700   2.967 -1.1971 -0.1426  2.2307
  124OSM    H8T13117   3.316   4.842   3.028  0.1452 -2.2051  1.8249
  124OSM    C9S13118   3.522   4.870   3.017 -0.2566  0.1846 -0.4066
  124OSM    H9S13119   3.494   4.974   3.043  0.7539 -0.2613  2.6698
  124OSM    H9T13120   3.600   4.874   2.938 -0.4109  0.5941 -0.5409
  124OSM   C10S13121   3.588   4.801   3.130 -1.1579  1.2987 -0.4937
  124OSM   H10S13122   3.692   4.839   3.128  0.0523 -1.8643 -0.0327
  124OSM   H10T13123   3.592   4.692   3.107 -1.4342  1.1350  0.2123
  124OSM   C11S13124   3.533   4.833   3.263  0.4679 -0.1541 -0.4340
  124OSM   H11S13125   3.423   4.821   3.275  0.1258  3.4741  0.5412
  124OSM   H11T13126   3.558   4.938   3.288  2.1517  0.0168 -2.6729
  124OSM   C12S13127   3.606   4.756   3.382  0.1247 -0.2804 -0.5593
  124OSM   H12S13128   3.713   4.762   3.352  0.5245  3.1229  1.3150
  124OSM   H12T13129   3.573   4.651   3.395 -1.7294  0.3767  0.1649
  124OSM   C13S13130   3.585   4.812   3.524 -0.2236 -0.3047 -0.2910
  124OSM   H13S13131   3.595   4.922   3.517  2.7523 -0.6199 -1.7734
  124OSM   H13T13132   3.669   4.767   3.583 -0.5453 -1.3687 -0.6317
  124OSM   C14S13133   3.445   4.783   3.584  0.7724  0.3060 -0.9744
  124OSM   H14S13134   3.430   4.676   3.610  1.7947  0.5465  0.6731
  124OSM   H14T13135   3.371   4.818   3.509  1.3270  2.7108 -0.4337
  124OSM   C15S13136   3.424   4.866   3.712 -0.1806 -0.0191  0.7137
  124OSM   H15S13137   3.442   4.972   3.685  0.9786 -0.3886 -0.0141
  124OSM   H15T13138   3.508   4.841   3.780  0.8122  3.9348  1.0095
  124OSM   C16S13139   3.293   4.835   3.787 -0.3646  0.0935 -0.1541
  124OSM   H16S13140   3.311   4.730   3.817  2.0950  1.0422  1.9046
  124OSM   H16T13141   3.222   4.832   3.702 -1.0686 -2.2854  0.4778
  124OSM   C17S13142   3.257   4.926   3.913 -0.1762 -0.3253  0.6753
  124OSM   H17S13143   3.257   5.031   3.877 -1.5737 -0.9256 -1.1293
  124OSM   H17T13144   3.334   4.911   3.992 -0.9868  0.6603  1.6705
  124OSM   C18S13145   3.121   4.877   3.956  0.6848  0.3989 -0.0887
  124OSM   H18S13146   3.100   4.916   4.058  1.6552 -4.1012  1.9458
  124OSM   H18T13147   3.119   4.766   3.958 -0.7819  0.4102  0.0008
  124OSM   H18U13148   3.049   4.917   3.881 -1.0341  1.3826  2.0245
  124OSM    C1F13149   3.160   5.238   2.463 -0.7344  0.3784 -0.4924
  124OSM     OF13150   3.059   5.313   2.456  0.1164  0.5185  0.9595
  124OSM    C2F13151   3.292   5.288   2.514  0.1141 -0.2778 -0.0436
  124OSM    H2F13152   3.337   5.351   2.434 -0.4631 -0.0991 -0.2288
  124OSM    H2G13153   3.363   5.202   2.515  0.4775 -0.0332 -1.8806
  124OSM    C3F13154   3.276   5.358   2.652  0.4399 -0.3834 -0.4987
  124OSM    H3F13155   3.184   5.417   2.669 -0.0673 -0.3027 -3.2932
  124OSM    H3G13156   3.363   5.426   2.659  0.7059 -0.6572 -1.1740
  124OSM    C4F13157   3.281   5.252   2.762 -0.9211  0.4689  0.5229
  124OSM    H4F13158   3.387   5.220   2.764 -0.5268  1.6140 -0.8759
  124OSM    H4G13159   3.218   5.163   2.743  0.5313  0.0002 -2.3198
  124OSM    C5F13160   3.238   5.313   2.899 -0.6820  0.0339  0.0700
  124OSM    H5F13161   3.140   5.365   2.890 -0.7034 -0.1572 -0.9224
  124OSM    H5G13162   3.320   5.382   2.927 -0.3166  0.1275 -1.1706
  124OSM    C6F13163   3.212   5.199   3.003  0.6093  0.0354 -0.4639
  124OSM    H6F13164   3.312   5.158   3.030  1.0768  1.1059 -0.5136
  124OSM    H6G13165   3.137   5.128   2.963 -0.1004  1.1803 -1.2052
  124OSM    C7F13166   3.155   5.260   3.133 -0.1323  0.1905  0.2287
  124OSM    H7F13167   3.069   5.325   3.108  0.0534 -0.7659 -3.2463
  124OSM    H7G13168   3.235   5.321   3.179 -0.7240  1.0933  0.0537
  124OSM    C8F13169   3.109   5.156   3.239  0.5210  0.0665  0.0470
  124OSM    H8F13170   3.034   5.095   3.183 -1.0606  1.9131  0.0886
  124OSM    H8G13171   3.040   5.208   3.309 -0.3743 -1.1628  0.0902
  124OSM    C9F13172   3.227   5.079   3.308 -0.0501 -0.2766  0.1001
  124OSM    H9F13173   3.288   5.025   3.234 -0.7158  0.1636 -0.7683
  124OSM   C10F13174   3.239   5.065   3.439  0.6026  0.6882 -0.1552
  124OSM   H10F13175   3.322   5.009   3.484  0.2220  1.5639  1.6542
  124OSM   C11F13176   3.145   5.111   3.552  0.1385 -0.1001 -0.0991
  124OSM   H11F13177   3.132   5.019   3.613 -0.5575  0.0836  0.0282
  124OSM   H11G13178   3.050   5.149   3.509  0.3991  0.1504 -0.4547
  124OSM   C12F13179   3.202   5.230   3.637 -0.4662  0.0297 -0.4443
  124OSM   H12F13180   3.196   5.318   3.569 -0.6753 -0.1382 -0.6439
  124OSM   H12G13181   3.307   5.201   3.661  0.1143  2.2382 -0.2126
  124OSM   C13F13182   3.116   5.257   3.762  0.0954  0.8345  0.2689
  124OSM   H13F13183   3.116   5.164   3.824 -0.9920  0.4855 -0.2512
  124OSM   H13G13184   3.016   5.293   3.732  0.2736 -0.7172 -2.3410
  124OSM   C14F13185   3.185   5.368   3.853  0.5984 -0.3304 -0.3696
  124OSM   H14F13186   3.197   5.458   3.789 -0.1586 -0.7678 -1.1299
  124OSM   H14G13187   3.285   5.329   3.881  0.0571 -1.3237  0.2281
  124OSM   C15F13188   3.084   5.407   3.966  0.3191 -0.3891 -0.1786
  124OSM   H15F13189   2.981   5.434   3.936  0.4143 -0.2026 -0.3387
  124OSM   H15G13190   3.120   5.495   4.024 -0.7704  1.2576 -1.9581
  124OSM   C16F13191   3.053   5.287   4.062 -0.4482  0.4768 -0.5517
  124OSM   H16F13192   3.019   5.192   4.015  2.4721 -1.7955  1.7288
  124OSM   H16G13193   2.968   5.319   4.126 -0.4605  0.8622 -0.7573
  124OSM   C17F13194   3.171   5.246   4.142 -0.2907 -1.1441 -0.8565
  124OSM   H17F13195   3.222   5.329   4.194 -3.7054  0.1601  0.5402
  124OSM   H17G13196   3.234   5.191   4.070  0.9604 -1.1818  0.2545
  124OSM   C18F13197   3.130   5.152   4.260  0.0224  0.1283 -0.2100
  124OSM   H18F13198   3.096   5.058   4.213 -0.1912 -0.2823  0.7477
  124OSM   H18G13199   3.046   5.192   4.320  0.6958  1.2914 -0.0317
  124OSM   H18H13200   3.216   5.135   4.329  0.5706 -0.0028 -0.9125
  125OSM      N13201   3.948   3.138   2.029 -0.9079  0.5662  0.3544
  125OSM    C1513202   4.100   3.139   2.003 -0.6235 -0.4559  0.1126
  125OSM   H15A13203   4.110   3.178   1.903  0.1259 -0.7708  0.0597
  125OSM   H15B13204   4.140   3.042   2.027 -1.5135 -0.5304  1.3171
  125OSM   H15C13205   4.153   3.201   2.074  0.2200 -0.4021 -0.5550
  125OSM    C1413206   3.890   3.266   1.987  0.9194  0.1304  0.5109
  125OSM   H14A13207   3.901   3.279   1.880  1.0818  3.1395  0.8534
  125OSM   H14B13208   3.939   3.339   2.050  1.1209 -0.1743  0.7110
  125OSM   H14C13209   3.784   3.264   2.007  1.1212 -2.3498  1.4210
  125OSM    C1313210   3.889   3.025   1.957  0.2102 -0.1860  0.3890
  125OSM   H13A13211   3.930   2.935   2.001 -0.0487  0.0963  1.2283
  125OSM   H13B13212   3.908   3.027   1.851 -3.1011 -0.1491 -0.2725
  125OSM   H13C13213   3.781   3.020   1.965  0.1581 -0.6990 -0.5951
  125OSM    C1213214   3.921   3.125   2.179  0.3933 -0.1407  0.5920
  125OSM   H12A13215   3.815   3.131   2.194  0.1495 -0.1170 -1.0410
  125OSM   H12B13216   3.956   3.213   2.231  1.3389 -1.5159  2.3496
  125OSM    C1113217   3.967   3.000   2.251 -0.1733  0.0838  0.0658
  125OSM   H11A13218   3.941   3.007   2.359 -2.3981  0.4399 -0.4627
  125OSM   H11B13219   4.078   2.999   2.246 -0.2574 -0.9277 -2.1684
  125OSM      P13220   3.793   2.814   2.254 -0.1932 -0.2067 -0.0293
  125OSM    O1313221   3.685   2.907   2.229 -0.1315 -0.1218  0.2657
  125OSM    O1413222   3.772   2.675   2.206  0.2307 -0.5886 -0.6217
  125OSM    O1113223   3.822   2.799   2.406  0.9520  0.0581  0.0286
  125OSM    O1213224   3.923   2.879   2.196 -0.0334 -0.0799  0.2411
  125OSM    C1S13225   3.708   2.773   2.490  1.1326  0.1479  0.3317
  125OSM    H1S13226   3.625   2.730   2.429  0.6495  1.0514  0.3462
  125OSM    H1T13227   3.661   2.866   2.527  1.2383  1.5757 -2.9276
  125OSM     NF13228   3.620   2.633   2.676 -0.6861  0.5088  0.9197
  125OSM    HNF13229   3.635   2.687   2.758 -1.3600  1.7230  0.2535
  125OSM    C2S13230   3.731   2.657   2.596 -0.4678 -0.2844 -0.0739
  125OSM    H2S13231   3.762   2.567   2.539 -1.6271 -0.6856 -0.0795
  125OSM    C3S13232   3.851   2.703   2.679  0.4549 -0.2218 -0.4678
  125OSM    H3S13233   3.830   2.794   2.739 -0.5872 -0.3289 -0.6549
  125OSM     O313234   3.978   2.720   2.615 -0.3784 -0.6488 -0.2612
  125OSM    HO313235   3.955   2.717   2.522 -1.8075 -1.1951  0.0912
  125OSM    C4S13236   3.879   2.598   2.783  0.2585 -0.3488 -0.8129
  125OSM    H4S13237   3.885   2.497   2.740  2.1802 -1.3905  1.7560
  125OSM    C5S13238   3.893   2.601   2.921  0.0994 -0.3751  0.4596
  125OSM    H5S13239   3.875   2.699   2.969  1.9879  0.9057 -1.3128
  125OSM    C6S13240   3.917   2.476   3.003 -1.1044 -0.1225  0.6657
  125OSM    H6S13241   4.014   2.496   3.053 -0.6015 -1.0257  0.0626
  125OSM    H6T13242   3.944   2.382   2.950  1.2038  0.1006  1.4078
  125OSM    C7S13243   3.800   2.439   3.102 -0.2224 -0.2875 -0.0287
  125OSM    H7S13244   3.704   2.424   3.049 -1.4924 -2.4544  2.7566
  125OSM    H7T13245   3.790   2.525   3.171 -2.3194  0.0809 -0.7642
  125OSM    C8S13246   3.816   2.303   3.181 -0.5330  0.1060  0.4225
  125OSM    H8S13247   3.921   2.285   3.214 -0.5080 -1.4399 -0.4298
  125OSM    H8T13248   3.806   2.212   3.117  4.5236 -0.5549  0.3425
  125OSM    C9S13249   3.721   2.309   3.300 -0.2663 -0.1204  0.7617
  125OSM    H9S13250   3.719   2.209   3.350  0.7172  2.1266  5.5387
  125OSM    H9T13251   3.620   2.335   3.263 -0.3938  0.2542  1.3815
  125OSM   C10S13252   3.770   2.408   3.395  0.2022 -0.0743 -0.0115
  125OSM   H10S13253   3.725   2.508   3.374  0.5766  0.1657  0.3254
  125OSM   H10T13254   3.881   2.414   3.391  0.3927 -2.2070  1.5920
  125OSM   C11S13255   3.737   2.371   3.542  0.6486  0.6741  0.3336
  125OSM   H11S13256   3.780   2.269   3.558  0.0853  0.2077 -1.0040
  125OSM   H11T13257   3.629   2.383   3.562  1.0201  2.0587  1.5475
  125OSM   C12S13258   3.802   2.462   3.652  0.4243 -0.2466 -0.0554
  125OSM   H12S13259   3.756   2.561   3.632 -0.1346 -0.2628  1.1332
  125OSM   H12T13260   3.909   2.479   3.626  0.0865 -0.2046 -1.4765
  125OSM   C13S13261   3.777   2.423   3.797  0.4259 -0.6170  0.8411
  125OSM   H13S13262   3.773   2.315   3.820 -0.5378 -0.7349  0.1459
  125OSM   H13T13263   3.678   2.468   3.819  0.7919  0.3745  0.5152
  125OSM   C14S13264   3.867   2.503   3.890 -0.2567  0.2573 -0.1020
  125OSM   H14S13265   3.882   2.597   3.833  2.8358 -0.7114 -1.0152
  125OSM   H14T13266   3.965   2.453   3.905 -0.9768 -1.2156 -0.1594
  125OSM   C15S13267   3.797   2.530   4.026 -0.6557 -0.0323  0.2811
  125OSM   H15S13268   3.717   2.603   4.000  0.8342  1.0801 -1.3142
  125OSM   H15T13269   3.869   2.582   4.093 -0.4550  3.2637 -2.3636
  125OSM   C16S13270   3.746   2.410   4.096  0.0167  0.6251 -0.1964
  125OSM   H16S13271   3.658   2.376   4.037 -0.8786  0.9989  0.9137
  125OSM   H16T13272   3.716   2.432   4.200  2.4537 -0.9756  0.9066
  125OSM   C17S13273   3.852   2.296   4.100  1.0008  0.3851  0.5254
  125OSM   H17S13274   3.911   2.315   4.192 -1.3103  1.3194  1.8367
  125OSM   H17T13275   3.915   2.290   4.008  0.1707 -0.8978  0.0431
  125OSM   C18S13276   3.780   2.156   4.123 -0.4220  0.2248 -0.3253
  125OSM   H18S13277   3.861   2.080   4.124 -1.1110 -0.5205 -1.0050
  125OSM   H18T13278   3.710   2.125   4.043 -1.6290  0.0320  0.7999
  125OSM   H18U13279   3.731   2.161   4.222 -1.0757 -3.1926 -0.4143
  125OSM    C1F13280   3.510   2.589   2.625 -0.5052 -0.3106 -0.0259
  125OSM     OF13281   3.513   2.527   2.519 -0.3146  0.2499 -1.0178
  125OSM    C2F13282   3.377   2.607   2.701 -0.8073 -0.1452 -0.7267
  125OSM    H2F13283   3.368   2.517   2.765  0.7450  0.1234 -0.1001
  125OSM    H2G13284   3.296   2.604   2.625 -1.9404 -0.2398  0.4779
  125OSM    C3F13285   3.377   2.738   2.779  0.1110 -0.4475  0.1826
  125OSM    H3F13286   3.273   2.777   2.785 -0.7045 -2.6854  0.7809
  125OSM    H3G13287   3.429   2.815   2.717  1.1961  0.3859  2.0634
  125OSM    C4F13288   3.441   2.718   2.919  0.7681 -0.0658  0.0176
  125OSM    H4F13289   3.552   2.704   2.923  0.7502  0.0791  1.1246
  125OSM    H4G13290   3.396   2.625   2.960  0.6492 -0.1978 -0.4038
  125OSM    C5F13291   3.409   2.838   3.021  0.0124  0.7200  0.2315
  125OSM    H5F13292   3.301   2.855   3.007  0.1343  0.7291 -0.7232
  125OSM    H5G13293   3.464   2.932   3.002  0.4419  0.4357  0.0452
  125OSM    C6F13294   3.439   2.808   3.160 -0.3059  0.1091  0.2081
  125OSM    H6F13295   3.371   2.725   3.189  1.3440 -0.9613  1.0818
  125OSM    H6G13296   3.417   2.899   3.220 -1.1866  1.7889 -2.5863
  125OSM    C7F13297   3.582   2.763   3.183  0.1076 -0.6099  0.5371
  125OSM    H7F13298   3.647   2.821   3.114  1.0620 -0.7695  1.2969
  125OSM    H7G13299   3.604   2.658   3.156 -3.6968 -1.4006  0.2019
  125OSM    C8F13300   3.637   2.781   3.323  0.1780  0.0983 -0.5489
  125OSM    H8F13301   3.659   2.890   3.324 -1.3496  0.4221  0.0290
  125OSM    H8G13302   3.731   2.723   3.332  1.2466  1.4764 -2.4568
  125OSM    C9F13303   3.536   2.742   3.428 -0.3623 -0.3805 -0.4519
  125OSM    H9F13304   3.488   2.644   3.411 -1.5508  0.0360  0.4817
  125OSM   C10F13305   3.512   2.807   3.541  0.6282 -0.1541  0.7043
  125OSM   H10F13306   3.434   2.777   3.613  0.5332 -1.1599  0.2001
  125OSM   C11F13307   3.580   2.935   3.586  0.1378 -0.1827  0.4549
  125OSM   H11F13308   3.583   3.014   3.508 -0.5085 -1.0897 -0.5086
  125OSM   H11G13309   3.681   2.929   3.631 -0.0523 -1.4650  0.7434
  125OSM   C12F13310   3.493   2.990   3.702 -0.6255 -0.3458  0.4731
  125OSM   H12F13311   3.386   2.998   3.676 -0.7002  0.5068  1.0274
  125OSM   H12G13312   3.523   3.097   3.713  1.5242 -0.5540 -2.6468
  125OSM   C13F13313   3.508   2.913   3.832  0.2249 -0.5743 -0.9133
  125OSM   H13F13314   3.482   2.805   3.831 -1.9400 -0.0789 -0.5571
  125OSM   H13G13315   3.430   2.955   3.900  2.5071 -0.0532  1.4401
  125OSM   C14F13316   3.646   2.933   3.898 -0.5885 -0.1232  0.5574
  125OSM   H14F13317   3.691   3.033   3.878 -1.9674  0.2951 -0.5146
  125OSM   H14G13318   3.719   2.859   3.859  1.2267  2.7503 -1.6952
  125OSM   C15F13319   3.630   2.902   4.049 -0.5911 -0.1466  0.1267
  125OSM   H15F13320   3.605   2.794   4.052  1.0402 -0.7057 -3.5834
  125OSM   H15G13321   3.549   2.965   4.093 -0.7541  0.4317 -0.9905
  125OSM   C16F13322   3.761   2.939   4.118 -0.0081 -0.1887 -0.1970
  125OSM   H16F13323   3.782   3.047   4.111  1.2978 -0.3910  0.5786
  125OSM   H16G13324   3.851   2.885   4.081  0.1490 -0.5459  0.6949
  125OSM   C17F13325   3.750   2.908   4.275  0.7799  0.0084 -0.1569
  125OSM   H17F13326   3.845   2.930   4.328  0.0703 -0.7401  1.4610
  125OSM   H17G13327   3.733   2.799   4.284  0.4073 -0.1981 -3.0538
  125OSM   C18F13328   3.635   2.967   4.347 -1.0297  0.3066 -0.4080
  125OSM   H18F13329   3.540   2.929   4.302  0.5611 -2.6690 -1.4420
  125OSM   H18G13330   3.628   3.076   4.362  0.0952  0.1365  1.4878
  125OSM   H18H13331   3.630   2.919   4.447 -1.9746  1.8610  0.2997
  126OSM      N13332   2.050   3.105   2.192  0.3605  0.4517  0.1551
  126OSM    C1513333   2.075   3.240   2.253 -0.5468  0.1403  0.2675
  126OSM   H15A13334   1.987   3.286   2.297  0.4720  2.5165 -0.1002
  126OSM   H15B13335   2.111   3.304   2.174 -0.2244 -2.0322 -1.3984
  126OSM   H15C13336   2.148   3.254   2.331 -0.9666 -0.7536  0.8361
  126OSM    C1413337   2.023   3.006   2.297 -0.4902  0.2661  0.1222
  126OSM   H14A13338   2.114   2.979   2.347  1.1223  0.8050 -2.4507
  126OSM   H14B13339   1.979   2.916   2.258 -1.3950  0.0470  1.5938
  126OSM   H14C13340   1.948   3.054   2.359 -1.4669  0.3429 -1.0864
  126OSM    C1313341   1.944   3.117   2.092 -0.1113 -0.1480 -0.0142
  126OSM   H13A13342   1.921   3.022   2.048  0.3547 -0.5237  0.5507
  126OSM   H13B13343   1.972   3.175   2.005  0.1481  0.0946  0.2334
  126OSM   H13C13344   1.858   3.167   2.135 -0.3871 -1.4388  0.9440
  126OSM    C1213345   2.183   3.047   2.139  0.0553 -0.0010 -0.7350
  126OSM   H12A13346   2.249   3.037   2.225  0.0373  0.6688 -0.6469
  126OSM   H12B13347   2.231   3.123   2.080 -0.5156  1.3368  0.4986
  126OSM    C1113348   2.184   2.914   2.055  0.0520 -0.2059  0.2525
  126OSM   H11A13349   2.288   2.879   2.043  0.8440  1.9553  0.6390
  126OSM   H11B13350   2.142   2.949   1.959  0.6684  0.0388  0.0715
  126OSM      P13351   2.150   2.659   2.110 -0.2455  0.2408  0.0102
  126OSM    O1313352   2.035   2.572   2.071  0.1471  0.4026 -0.2495
  126OSM    O1413353   2.276   2.640   2.034  0.5824 -0.1904  0.0342
  126OSM    O1113354   2.182   2.627   2.257 -0.1329 -0.1828 -0.6317
  126OSM    O1213355   2.104   2.808   2.115 -0.2272 -0.6898 -0.0663
  126OSM    C1S13356   2.272   2.707   2.341  0.3298 -0.2309 -0.1599
  126OSM    H1S13357   2.258   2.815   2.321  0.1808  0.0705  1.4388
  126OSM    H1T13358   2.377   2.675   2.323  0.0344 -0.7027 -1.0460
  126OSM     NF13359   2.332   2.780   2.564 -0.4428 -0.4468  0.4665
  126OSM    HNF13360   2.407   2.722   2.594 -0.5465 -0.8656 -0.0789
  126OSM    C2S13361   2.234   2.699   2.490  1.0149 -0.3958  0.1542
  126OSM    H2S13362   2.135   2.746   2.502  0.9419 -0.3472 -0.6097
  126OSM    C3S13363   2.223   2.555   2.533  0.2074  0.4603 -0.8602
  126OSM    H3S13364   2.328   2.521   2.523  1.2910  2.3462  3.1080
  126OSM     O313365   2.153   2.460   2.457  0.0681 -0.0126  0.6333
  126OSM    HO313366   2.161   2.492   2.367  0.9433 -0.0656  0.6826
  126OSM    C4S13367   2.180   2.539   2.676 -0.0731 -0.4703 -0.2305
  126OSM    H4S13368   2.264   2.549   2.747  2.0127 -0.0742 -2.7112
  126OSM    C5S13369   2.058   2.509   2.719 -0.0256  0.2420 -0.5288
  126OSM    H5S13370   1.976   2.492   2.648  0.8940 -1.7230 -1.1619
  126OSM    C6S13371   2.013   2.495   2.864 -0.8719  0.2307  0.9047
  126OSM    H6S13372   1.991   2.386   2.868 -1.8076  0.4104  0.8452
  126OSM    H6T13373   1.919   2.549   2.889 -2.7306 -3.4099  2.2735
  126OSM    C7S13374   2.119   2.520   2.968 -0.3545 -0.2074 -0.3159
  126OSM    H7S13375   2.150   2.627   2.965  1.5174 -0.6558  1.7749
  126OSM    H7T13376   2.208   2.455   2.955  0.0654 -0.1429  2.0602
  126OSM    C8S13377   2.067   2.513   3.115 -0.3719 -0.0114 -0.5856
  126OSM    H8S13378   2.050   2.406   3.139 -0.4696  0.2277  0.4398
  126OSM    H8T13379   1.969   2.565   3.118  0.0703  0.7382  1.5423
  126OSM    C9S13380   2.171   2.566   3.213  0.2668 -0.0596  0.4916
  126OSM    H9S13381   2.190   2.672   3.185 -0.1748  0.2304  1.2760
  126OSM    H9T13382   2.265   2.506   3.215  0.4481  0.2484  1.3702
  126OSM   C10S13383   2.121   2.552   3.364 -1.0158 -0.1080  0.0551
  126OSM   H10S13384   2.109   2.444   3.387  1.6769 -0.4480  0.0101
  126OSM   H10T13385   2.023   2.601   3.379 -1.8077 -1.8558  0.6754
  126OSM   C11S13386   2.214   2.612   3.469 -0.6218  0.0442 -0.2217
  126OSM   H11S13387   2.227   2.716   3.432  0.7801 -0.0349 -0.0072
  126OSM   H11T13388   2.314   2.562   3.474 -0.5736  0.2039  0.3883
  126OSM   C12S13389   2.157   2.612   3.607 -0.0003 -0.6484  0.1927
  126OSM   H12S13390   2.108   2.515   3.628  0.4068 -0.5917  1.4689
  126OSM   H12T13391   2.066   2.674   3.593  0.9676  0.2942 -2.1958
  126OSM   C13S13392   2.252   2.648   3.716  1.3771  0.1857 -0.1926
  126OSM   H13S13393   2.326   2.565   3.713  1.5528  0.1890  2.8412
  126OSM   H13T13394   2.202   2.631   3.814  0.6827  2.6160 -0.1159
  126OSM   C14S13395   2.297   2.797   3.720  0.7851 -0.3175 -0.0090
  126OSM   H14S13396   2.206   2.858   3.702  1.0781  0.4750  1.1015
  126OSM   H14T13397   2.374   2.820   3.644 -1.2330 -0.3166 -2.0863
  126OSM   C15S13398   2.370   2.829   3.852 -0.0631 -0.4107 -0.3755
  126OSM   H15S13399   2.410   2.932   3.852  0.3378 -0.5569 -2.1424
  126OSM   H15T13400   2.455   2.758   3.865 -0.3625 -0.3648  2.1739
  126OSM   C16S13401   2.283   2.838   3.984 -0.3531  0.4372 -0.2137
  126OSM   H16S13402   2.353   2.866   4.065  1.0254  1.2225 -1.6547
  126OSM   H16T13403   2.245   2.735   3.999  0.3016  0.2697  0.2762
  126OSM   C17S13404   2.169   2.939   3.971  0.5202  0.2840 -0.3279
  126OSM   H17S13405   2.101   2.902   3.893 -0.7158 -0.2515  0.9789
  126OSM   H17T13406   2.212   3.033   3.931  1.4886 -0.0634 -0.1207
  126OSM   C18S13407   2.098   2.963   4.108 -1.2266 -0.0378  0.7067
  126OSM   H18S13408   2.069   2.862   4.145 -1.2581 -0.1714  0.3092
  126OSM   H18T13409   2.016   3.033   4.081 -0.7058  0.2750 -0.0593
  126OSM   H18U13410   2.180   3.007   4.168 -1.5797  1.7507 -0.1016
  126OSM    C1F13411   2.339   2.914   2.577  1.1632 -0.2099 -0.5787
  126OSM     OF13412   2.253   2.980   2.520 -0.9005 -0.2730 -0.0414
  126OSM    C2F13413   2.451   2.966   2.662  0.1539  0.0031 -0.5847
  126OSM    H2F13414   2.473   3.074   2.646  2.3884 -0.1779  0.9448
  126OSM    H2G13415   2.541   2.903   2.643 -0.6587 -1.0526 -0.9632
  126OSM    C3F13416   2.428   2.965   2.813  0.3995  0.2015  0.9390
  126OSM    H3F13417   2.518   3.009   2.860 -0.1342  0.1128  2.0497
  126OSM    H3G13418   2.407   2.861   2.847  1.7705  0.3231  2.2030
  126OSM    C4F13419   2.319   3.061   2.861 -0.4432 -0.2710  0.5903
  126OSM    H4F13420   2.263   3.028   2.952 -1.4617  1.4559  0.6156
  126OSM    H4G13421   2.244   3.056   2.779 -0.1860 -1.2309  0.4086
  126OSM    C5F13422   2.380   3.201   2.877  0.2159 -0.3801 -0.4514
  126OSM    H5F13423   2.418   3.224   2.775  0.7839 -0.0736 -0.1743
  126OSM    H5G13424   2.469   3.191   2.942 -0.7420 -2.8948  0.5560
  126OSM    C6F13425   2.281   3.306   2.921  0.0608 -0.0756 -0.7895
  126OSM    H6F13426   2.215   3.322   2.833  0.3901  0.0121 -1.0244
  126OSM    H6G13427   2.334   3.398   2.954 -1.7513  0.9206 -0.6171
  126OSM    C7F13428   2.203   3.273   3.046  0.7176  0.5775 -0.4351
  126OSM    H7F13429   2.277   3.226   3.115 -0.9429  0.9127  1.6051
  126OSM    H7G13430   2.121   3.200   3.029  3.4896 -3.2916  1.9459
  126OSM    C8F13431   2.139   3.393   3.120 -0.2684  0.2489 -0.5314
  126OSM    H8F13432   2.208   3.481   3.125  0.8238 -0.4690 -2.6584
  126OSM    H8G13433   2.126   3.360   3.226  0.0936  0.6402 -0.3611
  126OSM    C9F13434   2.006   3.448   3.058 -0.5258  0.0289 -0.2737
  126OSM    H9F13435   1.978   3.398   2.964 -2.1354 -2.5707  1.5312
  126OSM   C10F13436   1.928   3.531   3.124  0.0726 -0.8734 -0.2214
  126OSM   H10F13437   1.826   3.551   3.086 -0.3915 -3.2082 -0.2260
  126OSM   C11F13438   1.958   3.575   3.268 -0.4019  0.7686  0.5769
  126OSM   H11F13439   1.956   3.686   3.273 -1.2227  0.7980 -0.1944
  126OSM   H11G13440   2.065   3.558   3.289  0.3133  0.2563 -3.0674
  126OSM   C12F13441   1.870   3.517   3.381  0.0077 -0.0904 -0.1334
  126OSM   H12F13442   1.905   3.415   3.407 -1.5646 -0.7570 -0.5258
  126OSM   H12G13443   1.764   3.509   3.348 -0.1333  1.1199  0.0051
  126OSM   C13F13444   1.865   3.605   3.507 -0.5541 -0.9968 -0.0201
  126OSM   H13F13445   1.814   3.542   3.582 -2.1338  2.0845  1.6026
  126OSM   H13G13446   1.802   3.695   3.487 -0.6380 -0.8199  1.0500
  126OSM   C14F13447   1.998   3.653   3.550  0.1755 -0.6607 -0.3588
  126OSM   H14F13448   1.981   3.717   3.639 -1.4779  0.6871 -1.6031
  126OSM   H14G13449   2.042   3.720   3.473 -1.6201  0.1086 -0.7585
  126OSM   C15F13450   2.102   3.549   3.586 -0.1883  0.4372  0.4116
  126OSM   H15F13451   2.117   3.491   3.493 -0.6291 -0.1956  0.7314
  126OSM   H15G13452   2.059   3.478   3.660  1.2459 -1.4923 -0.5767
  126OSM   C16F13453   2.245   3.607   3.623 -0.2719  0.2118 -1.3841
  126OSM   H16F13454   2.308   3.525   3.664 -0.1825  0.8926 -0.1235
  126OSM   H16G13455   2.241   3.672   3.713 -0.6930 -1.5389 -0.1249
  126OSM   C17F13456   2.328   3.675   3.512  0.0780 -0.6479 -0.3091
  126OSM   H17F13457   2.411   3.725   3.566 -0.3024 -1.0654  0.6598
  126OSM   H17G13458   2.262   3.756   3.474 -1.7434 -3.1018 -2.6208
  126OSM   C18F13459   2.380   3.575   3.403 -0.3768 -0.3323 -0.6610
  126OSM   H18F13460   2.295   3.515   3.364 -0.1171 -0.1172 -1.5719
  126OSM   H18G13461   2.442   3.504   3.463  1.3842  1.3699 -0.3929
  126OSM   H18H13462   2.434   3.623   3.318  0.5429  0.1842  0.1961
  127OSM      N13463   1.453   5.267   2.223  0.4714 -0.2502 -0.2603
  127OSM    C1513464   1.374   5.202   2.115 -0.0264  0.4722  0.8705
  127OSM   H15A13465   1.310   5.271   2.062 -0.1813 -1.4543 -1.5113
  127OSM   H15B13466   1.302   5.125   2.136 -1.6425  1.0955 -2.0610
  127OSM   H15C13467   1.441   5.170   2.037 -0.5570  2.4328 -0.4328
  127OSM    C1413468   1.517   5.392   2.159 -0.3144 -0.5787 -0.3716
  127OSM   H14A13469   1.592   5.373   2.084  0.2293 -0.9276  0.2589
  127OSM   H14B13470   1.563   5.456   2.234 -1.5340  0.3437 -0.3879
  127OSM   H14C13471   1.437   5.449   2.114  1.8586  1.9624 -1.1751
  127OSM    C1313472   1.362   5.305   2.332  0.0641 -0.0298  0.2782
  127OSM   H13A13473   1.322   5.223   2.390  0.8234 -0.1430  0.6597
  127OSM   H13B13474   1.290   5.378   2.299  1.5792  0.4678 -2.0856
  127OSM   H13C13475   1.417   5.347   2.415  0.2385 -1.8103  1.0871
  127OSM    C1213476   1.564   5.165   2.261  0.1226 -0.1007 -0.1497
  127OSM   H12A13477   1.524   5.086   2.323 -0.8783  0.4939 -0.0256
  127OSM   H12B13478   1.621   5.222   2.332 -2.0144  0.5501  1.0949
  127OSM    C1113479   1.666   5.116   2.149  0.0156 -0.7774  0.4293
  127OSM   H11A13480   1.601   5.065   2.074 -1.1446  1.9753 -0.4747
  127OSM   H11B13481   1.733   5.040   2.194  0.2940 -0.8204 -0.0542
  127OSM      P13482   1.898   5.232   2.109  0.1850 -0.3886 -0.0664
  127OSM    O1313483   1.953   5.104   2.055 -0.0215  0.1152  0.1944
  127OSM    O1413484   1.950   5.357   2.048  0.0119  0.0126 -0.3055
  127OSM    O1113485   1.929   5.235   2.263  0.5174 -0.1426  0.3647
  127OSM    O1213486   1.741   5.227   2.096  0.2918  0.3393 -0.1398
  127OSM    C1S13487   2.057   5.195   2.312  0.1760 -0.8828  0.0993
  127OSM    H1S13488   2.134   5.263   2.272 -0.7418 -0.1529 -0.4506
  127OSM    H1T13489   2.081   5.095   2.271  0.5868 -0.9233  0.4305
  127OSM     NF13490   2.181   5.117   2.504  0.1784 -0.5354 -1.0572
  127OSM    HNF13491   2.187   5.021   2.531 -0.3282  0.6508  3.8224
  127OSM    C2S13492   2.051   5.183   2.467 -0.9138  0.3857  0.0204
  127OSM    H2S13493   2.048   5.283   2.515  1.1117 -0.3037  1.6454
  127OSM    C3S13494   1.929   5.101   2.503 -0.2437 -0.0775  0.2017
  127OSM    H3S13495   1.927   5.003   2.451 -1.6236 -0.6745  1.3278
  127OSM     O313496   1.805   5.168   2.478  0.3338 -0.0436 -0.1596
  127OSM    HO313497   1.835   5.221   2.403 -0.5367 -0.2066 -0.6319
  127OSM    C4S13498   1.940   5.072   2.652 -0.1393 -0.3758 -0.8074
  127OSM    H4S13499   1.997   4.980   2.672 -0.2293  0.5336  4.0708
  127OSM    C5S13500   1.891   5.135   2.760  0.1815 -0.8606 -0.8000
  127OSM    H5S13501   1.838   5.231   2.748  2.5667  0.8703  1.6857
  127OSM    C6S13502   1.918   5.089   2.904 -0.4521 -0.0587  0.1365
  127OSM    H6S13503   1.873   4.988   2.915  0.8113 -0.3186  3.4768
  127OSM    H6T13504   1.872   5.152   2.983 -1.0547  3.1182 -2.6384
  127OSM    C7S13505   2.074   5.055   2.933 -0.0369 -0.5932 -0.6502
  127OSM    H7S13506   2.095   4.959   2.881 -0.6757  0.0078 -2.0635
  127OSM    H7T13507   2.079   5.033   3.041 -0.3149  2.6530  0.0782
  127OSM    C8S13508   2.172   5.168   2.901  0.4086  0.4604  0.2169
  127OSM    H8S13509   2.138   5.247   2.972 -0.8079 -1.4923  1.8764
  127OSM    H8T13510   2.179   5.201   2.795 -1.5745  0.3041  0.0084
  127OSM    C9S13511   2.318   5.140   2.943 -0.9620  0.3258  0.3445
  127OSM    H9S13512   2.378   5.079   2.872 -0.6007  0.8405  0.2075
  127OSM    H9T13513   2.327   5.094   3.044  0.8682 -0.9703 -0.3779
  127OSM   C10S13514   2.397   5.277   2.946 -0.7865  0.3620 -0.3900
  127OSM   H10S13515   2.403   5.317   2.842  0.3259  0.3202 -0.3437
  127OSM   H10T13516   2.503   5.252   2.969 -0.8695 -0.5854 -0.9984
  127OSM   C11S13517   2.347   5.381   3.045  0.2956  0.4033  0.7562
  127OSM   H11S13518   2.307   5.325   3.132 -0.6815  1.2307  0.8396
  127OSM   H11T13519   2.260   5.434   3.001  1.1783  2.3291  1.2271
  127OSM   C12S13520   2.441   5.485   3.095  0.2057 -0.6400 -0.4292
  127OSM   H12S13521   2.495   5.532   3.010  0.3615  0.6509  0.3861
  127OSM   H12T13522   2.521   5.441   3.159 -0.2271 -1.2678 -0.3103
  127OSM   C13S13523   2.381   5.591   3.189 -0.3766  0.0883  0.7332
  127OSM   H13S13524   2.345   5.523   3.270 -0.1993  0.2703  0.9656
  127OSM   H13T13525   2.293   5.626   3.132 -0.1546  1.2938  1.1166
  127OSM   C14S13526   2.474   5.698   3.242 -0.1789  0.1245 -0.0278
  127OSM   H14S13527   2.545   5.723   3.161  0.5423 -1.4124  0.1239
  127OSM   H14T13528   2.536   5.656   3.324 -1.2999  1.8107  1.7365
  127OSM   C15S13529   2.410   5.832   3.281 -0.2558  0.5039  0.4792
  127OSM   H15S13530   2.342   5.866   3.200 -2.8740 -0.1871  2.3072
  127OSM   H15T13531   2.489   5.907   3.299  1.2497 -0.3515 -2.3230
  127OSM   C16S13532   2.327   5.821   3.414 -0.3745 -0.1918 -1.1806
  127OSM   H16S13533   2.395   5.786   3.495  1.1511  2.2367 -1.3668
  127OSM   H16T13534   2.251   5.741   3.409  0.5575 -1.2464  0.9141
  127OSM   C17S13535   2.248   5.950   3.445  0.1096  0.4362 -0.0048
  127OSM   H17S13536   2.216   5.980   3.343  0.8645 -0.8311 -0.6306
  127OSM   H17T13537   2.324   6.030   3.460 -1.0571  1.6865 -0.6773
  127OSM   C18S13538   2.143   5.933   3.552  0.0581 -0.0062  0.7683
  127OSM   H18S13539   2.184   5.931   3.656 -0.1871  0.5665  0.8760
  127OSM   H18T13540   2.081   5.843   3.529  3.3396 -2.1631 -0.0568
  127OSM   H18U13541   2.079   6.023   3.544 -0.7890 -0.8209 -2.3004
  127OSM    C1F13542   2.288   5.194   2.514  0.4363  0.2001 -0.2055
  127OSM     OF13543   2.283   5.310   2.491  0.1543  0.2311 -0.1015
  127OSM    C2F13544   2.406   5.124   2.556  0.0306  0.6072  0.1060
  127OSM    H2F13545   2.419   5.044   2.481 -0.6312  0.1345  0.4912
  127OSM    H2G13546   2.394   5.083   2.659  1.2876 -3.3476 -1.2397
  127OSM    C3F13547   2.523   5.215   2.551  0.7337  0.4377  0.4846
  127OSM    H3F13548   2.508   5.293   2.628 -0.3861  0.0348  0.6794
  127OSM    H3G13549   2.532   5.260   2.450 -1.2651  1.3997  0.7061
  127OSM    C4F13550   2.662   5.155   2.587 -0.4253 -0.1159  0.1332
  127OSM    H4F13551   2.741   5.232   2.583 -0.6795  0.1090 -0.5011
  127OSM    H4G13552   2.694   5.091   2.502  1.0308  1.7363 -0.7556
  127OSM    C5F13553   2.663   5.096   2.734  0.1650 -0.1963 -0.1138
  127OSM    H5F13554   2.591   5.011   2.741  0.1130 -0.1529 -0.1210
  127OSM    H5G13555   2.645   5.179   2.806  1.2468 -0.3785  0.3787
  127OSM    C6F13556   2.802   5.046   2.786  0.2927 -0.1899  0.1591
  127OSM    H6F13557   2.873   5.131   2.793  1.5953 -0.8856 -3.4391
  127OSM    H6G13558   2.853   4.974   2.720  2.7842  1.6434  0.0192
  127OSM    C7F13559   2.798   4.976   2.923  0.2561  0.2990 -0.2751
  127OSM    H7F13560   2.892   4.919   2.932 -0.5036 -1.1853 -1.5366
  127OSM    H7G13561   2.715   4.902   2.922  0.4500  0.0744  0.3376
  127OSM    C8F13562   2.783   5.068   3.048  0.0542  0.3395  0.3126
  127OSM    H8F13563   2.701   5.140   3.029  0.3652  0.8609  0.9226
  127OSM    H8G13564   2.868   5.139   3.056  0.7650  0.1122 -3.7349
  127OSM    C9F13565   2.772   4.985   3.175 -0.0423 -0.1837 -0.4474
  127OSM    H9F13566   2.811   4.882   3.176 -2.0909 -0.9719  1.1581
  127OSM   C10F13567   2.706   5.034   3.286  0.5494  0.4785  0.6423
  127OSM   H10F13568   2.702   4.972   3.377  0.7432  1.6679  1.4763
  127OSM   C11F13569   2.647   5.174   3.298  0.7591 -0.0718  0.8487
  127OSM   H11F13570   2.544   5.181   3.256  0.7164 -0.5981  0.8548
  127OSM   H11G13571   2.700   5.249   3.235  0.6559 -1.2163 -0.6348
  127OSM   C12F13572   2.638   5.229   3.439  0.4243 -0.8427 -0.5308
  127OSM   H12F13573   2.733   5.251   3.493 -0.0697 -3.5261  1.5754
  127OSM   H12G13574   2.581   5.158   3.503 -1.6653 -0.8201 -2.3362
  127OSM   C13F13575   2.561   5.359   3.448  0.1922 -0.1889  0.5498
  127OSM   H13F13576   2.465   5.346   3.393  0.6565 -2.1112  0.1744
  127OSM   H13G13577   2.608   5.449   3.402  1.5294 -0.5824  1.1440
  127OSM   C14F13578   2.532   5.391   3.590  0.1336  0.0974  0.9607
  127OSM   H14F13579   2.618   5.434   3.645 -1.3021  2.5294  1.4234
  127OSM   H14G13580   2.517   5.289   3.630 -0.3732 -0.2657 -0.1204
  127OSM   C15F13581   2.404   5.467   3.608 -0.4439 -0.4966  0.1570
  127OSM   H15F13582   2.319   5.419   3.554 -2.7524  2.9418  0.6179
  127OSM   H15G13583   2.432   5.556   3.549  0.9221 -0.6366  0.5852
  127OSM   C16F13584   2.370   5.511   3.758  0.0789 -0.2010 -0.3717
  127OSM   H16F13585   2.303   5.599   3.745 -1.5944 -1.3271  0.4228
  127OSM   H16G13586   2.455   5.551   3.817 -0.5140 -0.0838  0.4026
  127OSM   C17F13587   2.295   5.409   3.837  0.1847 -0.2872  0.2065
  127OSM   H17F13588   2.371   5.330   3.859  0.2325  0.1005  1.4256
  127OSM   H17G13589   2.208   5.380   3.774 -0.2440  0.2551  0.5497
  127OSM   C18F13590   2.246   5.456   3.971  0.3564  0.1431  0.2805
  127OSM   H18F13591   2.211   5.373   4.036  1.0776  0.2325  0.7867
  127OSM   H18G13592   2.157   5.523   3.960 -2.0398 -2.6757  1.5714
  127OSM   H18H13593   2.321   5.502   4.039  0.7005  0.3692 -0.2538
  128OSM      N13594   1.639   3.839   2.054 -0.1332  0.0468  0.2127
  128OSM    C1513595   1.772   3.784   2.096 -0.0753 -0.5285  0.2586
  128OSM   H15A13596   1.751   3.733   2.189  1.5332  2.2344  2.2191
  128OSM   H15B13597   1.838   3.864   2.128  0.5148 -1.7818  2.2963
  128OSM   H15C13598   1.809   3.724   2.014  2.0637 -0.2236  0.9637
  128OSM    C1413599   1.656   3.950   1.954  0.0999 -0.2535  0.0210
  128OSM   H14A13600   1.563   3.987   1.914  0.8745  1.1879 -0.5164
  128OSM   H14B13601   1.707   3.921   1.863 -0.2670 -1.5988  0.2352
  128OSM   H14C13602   1.711   4.031   2.000 -1.3398  0.9635 -0.3708
  128OSM    C1313603   1.550   3.742   1.986  0.6060 -0.1188 -0.0711
  128OSM   H13A13604   1.540   3.649   2.039  1.0382 -0.4222 -0.5136
  128OSM   H13B13605   1.601   3.710   1.896  1.7510  1.3811  0.0190
  128OSM   H13C13606   1.461   3.798   1.959  0.5308  0.1430  0.7240
  128OSM    C1213607   1.577   3.901   2.176 -0.0032  0.4424 -0.3586
  128OSM   H12A13608   1.540   3.826   2.244 -0.4261 -0.2405 -1.3251
  128OSM   H12B13609   1.491   3.964   2.156 -0.2943 -0.4536 -1.9546
  128OSM    C1113610   1.673   3.992   2.259 -0.2837  1.6354 -0.9797
  128OSM   H11A13611   1.748   3.922   2.300 -2.1934 -0.5343 -1.1111
  128OSM   H11B13612   1.609   4.037   2.339  1.0614  1.3206  0.3086
  128OSM      P13613   1.878   4.143   2.227  0.1529  0.1010  0.3361
  128OSM    O1313614   1.978   4.033   2.226  0.3076  0.5400  0.4351
  128OSM    O1413615   1.922   4.263   2.153 -0.1665  0.2525  0.3725
  128OSM    O1113616   1.856   4.181   2.375 -0.7585  0.0527  0.1409
  128OSM    O1213617   1.734   4.095   2.184  0.1284 -0.6855 -0.1298
  128OSM    C1S13618   1.809   4.309   2.416  0.0822 -0.0835  0.2632
  128OSM    H1S13619   1.698   4.307   2.411  0.0692 -1.2750  0.9187
  128OSM    H1T13620   1.843   4.394   2.353  0.7791 -1.2030 -0.8965
  128OSM     NF13621   1.797   4.491   2.568  0.0131 -0.0509 -0.1698
  128OSM    HNF13622   1.859   4.563   2.537  1.1386 -0.5714  0.8125
  128OSM    C2S13623   1.851   4.355   2.558  0.2142  0.2742 -0.0331
  128OSM    H2S13624   1.796   4.305   2.640  0.5599 -0.2707 -0.1315
  128OSM    C3S13625   2.004   4.353   2.567 -0.1515 -0.3115  0.3974
  128OSM    H3S13626   2.034   4.413   2.477 -0.3901  0.2191  0.6700
  128OSM     O313627   2.063   4.217   2.551  0.1890  0.0843 -0.2166
  128OSM    HO313628   1.993   4.158   2.523 -0.0769  1.0134 -1.6088
  128OSM    C4S13629   2.062   4.422   2.686 -0.6980  0.3598  0.7335
  128OSM    H4S13630   2.080   4.530   2.678 -1.0914  0.2461 -2.0884
  128OSM    C5S13631   2.104   4.362   2.803 -0.1801  0.1956  0.3936
  128OSM    H5S13632   2.107   4.252   2.800 -0.4709  0.2072 -0.4174
  128OSM    C6S13633   2.153   4.442   2.925 -0.0811 -0.4211  0.5243
  128OSM    H6S13634   2.236   4.386   2.974  0.3394 -0.2911 -0.0273
  128OSM    H6T13635   2.070   4.437   2.998 -2.1793 -2.0779 -1.8805
  128OSM    C7S13636   2.208   4.594   2.905 -0.6534  0.6271  0.6390
  128OSM    H7S13637   2.117   4.637   2.859 -0.2490 -0.0412 -0.8453
  128OSM    H7T13638   2.289   4.590   2.828 -1.6106 -0.4534 -0.3283
  128OSM    C8S13639   2.239   4.660   3.037 -0.2802 -0.2707  0.7537
  128OSM    H8S13640   2.317   4.594   3.083 -1.3662 -0.6842  2.0158
  128OSM    H8T13641   2.151   4.686   3.099  0.4119  2.1253  0.7804
  128OSM    C9S13642   2.316   4.785   3.007 -0.0094 -0.3714 -0.2718
  128OSM    H9S13643   2.245   4.870   2.996  0.4130  0.3454  2.1069
  128OSM    H9T13644   2.371   4.769   2.912 -1.1202  0.1726 -1.0218
  128OSM   C10S13645   2.431   4.805   3.112 -0.4698 -0.0072 -0.4583
  128OSM   H10S13646   2.473   4.904   3.084 -1.6579 -0.1365 -2.8148
  128OSM   H10T13647   2.509   4.728   3.095 -0.9180 -0.7547  0.8295
  128OSM   C11S13648   2.383   4.826   3.261  0.0328 -0.4894  0.0658
  128OSM   H11S13649   2.473   4.830   3.325  0.3353  1.1580 -0.4355
  128OSM   H11T13650   2.323   4.738   3.293  1.0410 -0.5094  1.9631
  128OSM   C12S13651   2.298   4.955   3.285  0.5616 -0.0909 -0.1084
  128OSM   H12S13652   2.210   4.951   3.217 -0.9607 -2.6653  1.9376
  128OSM   H12T13653   2.357   5.045   3.257  0.1582 -0.1957 -1.3471
  128OSM   C13S13654   2.261   4.966   3.432 -0.6310 -0.6197  0.0020
  128OSM   H13S13655   2.353   4.951   3.493  0.2991  0.4481 -1.1081
  128OSM   H13T13656   2.197   4.878   3.457 -1.4769 -0.1636 -0.5260
  128OSM   C14S13657   2.187   5.100   3.471 -0.3526 -0.3140 -0.3835
  128OSM   H14S13658   2.086   5.104   3.425 -0.1559 -0.3841 -0.8211
  128OSM   H14T13659   2.231   5.191   3.426 -1.2645  0.7489  0.8214
  128OSM   C15S13660   2.198   5.127   3.627  0.0445 -0.3587  0.4144
  128OSM   H15S13661   2.132   5.214   3.649 -1.3283 -1.8181  2.2191
  128OSM   H15T13662   2.298   5.163   3.658  0.9833 -1.6838 -1.0353
  128OSM   C16S13663   2.157   5.006   3.719 -0.4020 -0.1837 -0.6799
  128OSM   H16S13664   2.248   4.943   3.726  0.0828  0.7417  1.8788
  128OSM   H16T13665   2.063   4.955   3.688 -0.1752 -0.6352 -0.6286
  128OSM   C17S13666   2.131   5.060   3.862  0.3099 -0.2094 -0.0117
  128OSM   H17S13667   2.066   4.985   3.913 -0.7786 -0.4996 -1.8101
  128OSM   H17T13668   2.083   5.160   3.860  1.0586  0.1158 -2.0601
  128OSM   C18S13669   2.264   5.071   3.937  0.1721  0.4989 -0.1720
  128OSM   H18S13670   2.342   5.130   3.883  0.7618 -0.6139 -0.5544
  128OSM   H18T13671   2.312   4.971   3.950  3.1560  1.3325 -3.6884
  128OSM   H18U13672   2.243   5.117   4.036 -1.0045  0.3940 -0.3689
  128OSM    C1F13673   1.673   4.526   2.607  1.0935  0.0881 -0.5947
  128OSM     OF13674   1.594   4.438   2.639 -0.6058 -0.4453 -0.3405
  128OSM    C2F13675   1.642   4.663   2.619 -0.2473 -0.5105  0.3201
  128OSM    H2F13676   1.535   4.682   2.641  0.3908  0.5844  2.5730
  128OSM    H2G13677   1.655   4.727   2.529  0.7257  1.5653  1.9036
  128OSM    C3F13678   1.737   4.719   2.714  0.0036  0.0458  0.4937
  128OSM    H3F13679   1.715   4.823   2.747  1.1868  0.9086 -1.3473
  128OSM    H3G13680   1.835   4.717   2.661 -0.5025  0.0880 -0.4367
  128OSM    C4F13681   1.732   4.651   2.858 -0.5877  0.0800 -0.2873
  128OSM    H4F13682   1.829   4.673   2.908 -1.3064 -2.5804  2.3776
  128OSM    H4G13683   1.734   4.541   2.866 -0.6062  0.0678 -0.4566
  128OSM    C5F13684   1.631   4.710   2.956 -0.9520  0.0557  0.2454
  128OSM    H5F13685   1.528   4.677   2.933 -0.3922 -0.4600 -1.5506
  128OSM    H5G13686   1.635   4.821   2.952  1.4374 -0.0213 -0.0572
  128OSM    C6F13687   1.650   4.672   3.103  1.2673 -0.1085  0.4181
  128OSM    H6F13688   1.742   4.719   3.144  1.0017  1.1797 -0.4387
  128OSM    H6G13689   1.684   4.567   3.095 -1.7453 -1.2257  1.6401
  128OSM    C7F13690   1.536   4.688   3.205  0.0277 -0.0725 -0.2426
  128OSM    H7F13691   1.453   4.622   3.172  0.8311 -1.4092  0.3637
  128OSM    H7G13692   1.509   4.795   3.215 -1.2030 -0.4177  0.1638
  128OSM    C8F13693   1.573   4.654   3.354 -0.2403 -0.0340 -0.9267
  128OSM    H8F13694   1.483   4.670   3.416 -0.1774 -0.4708 -0.7173
  128OSM    H8G13695   1.636   4.738   3.388 -2.8127  0.6949  2.2524
  128OSM    C9F13696   1.636   4.515   3.383 -0.3280  0.6229 -0.6167
  128OSM    H9F13697   1.622   4.427   3.319 -1.0834 -0.2618  0.7289
  128OSM   C10F13698   1.694   4.486   3.503 -0.6655  0.7235  0.1802
  128OSM   H10F13699   1.747   4.391   3.493 -0.3047  1.0144 -0.8013
  128OSM   C11F13700   1.713   4.567   3.626  0.2477 -0.0595 -0.2637
  128OSM   H11F13701   1.697   4.675   3.612 -2.6039 -0.1767  1.7990
  128OSM   H11G13702   1.815   4.546   3.666 -0.1272 -0.9139  0.2559
  128OSM   C12F13703   1.605   4.510   3.727 -0.2196  0.2236  0.5957
  128OSM   H12F13704   1.599   4.399   3.728 -3.1782  0.3491  1.8125
  128OSM   H12G13705   1.503   4.537   3.690  0.5030  1.1385 -0.7708
  128OSM   C13F13706   1.637   4.555   3.869  0.6784  0.7259 -0.2191
  128OSM   H13F13707   1.558   4.525   3.942 -0.2884  1.7930 -0.8061
  128OSM   H13G13708   1.620   4.665   3.862  2.6063  0.9855 -1.1246
  128OSM   C14F13709   1.778   4.540   3.921  0.8972 -0.3210 -0.3258
  128OSM   H14F13710   1.848   4.606   3.866 -1.2595  0.0827 -2.6649
  128OSM   H14G13711   1.799   4.435   3.890 -0.4431 -0.4180 -0.9433
  128OSM   C15F13712   1.798   4.551   4.069  0.1071 -0.8063 -0.4062
  128OSM   H15F13713   1.737   4.470   4.116 -0.0289 -0.6251 -0.2745
  128OSM   H15G13714   1.745   4.641   4.106 -1.1873 -2.6067  2.2907
  128OSM   C16F13715   1.949   4.541   4.109 -0.2067 -0.4040  0.0650
  128OSM   H16F13716   2.009   4.595   4.032 -1.0601  0.4915  0.0026
  128OSM   H16G13717   1.997   4.441   4.113 -0.3953 -0.5039 -0.1712
  128OSM   C17F13718   1.970   4.623   4.240 -0.4165 -0.3182 -0.4311
  128OSM   H17F13719   1.921   4.581   4.330  1.1660  0.0780  0.6497
  128OSM   H17G13720   1.917   4.719   4.222 -0.0407 -0.2791 -1.3758
  128OSM   C18F13721   2.116   4.635   4.266 -0.3955  0.6601  0.0742
  128OSM   H18F13722   2.134   4.701   4.353 -0.3503  1.6067 -0.6541
  128OSM   H18G13723   2.161   4.692   4.183 -2.1253  1.0472 -0.6229
  128OSM   H18H13724   2.164   4.537   4.289  1.1485  1.7729  1.6978
  129OSM      N13725   4.221   1.362   2.077 -0.2416 -0.4658 -0.1474
  129OSM    C1513726   4.102   1.284   2.129 -0.1523 -0.3284 -0.4810
  129OSM   H15A13727   4.095   1.189   2.079  2.4249 -0.4798 -0.6237
  129OSM   H15B13728   4.005   1.327   2.107 -1.1760 -2.8246 -0.9578
  129OSM   H15C13729   4.106   1.280   2.237  1.7019  1.8413 -0.4205
  129OSM    C1413730   4.337   1.271   2.095 -0.6490  0.6926  0.6950
  129OSM   H14A13731   4.360   1.260   2.200  0.5706 -0.2945  0.3359
  129OSM   H14B13732   4.423   1.315   2.045 -1.1587 -0.5923 -1.3393
  129OSM   H14C13733   4.315   1.169   2.069 -2.0836  1.6121 -1.9461
  129OSM    C1313734   4.203   1.399   1.932  0.3663 -0.2711 -0.2424
  129OSM   H13A13735   4.120   1.467   1.919 -1.1379 -1.8187  0.9677
  129OSM   H13B13736   4.177   1.317   1.868 -0.6549 -0.4692  0.4151
  129OSM   H13C13737   4.291   1.448   1.892  0.7524 -1.4950 -0.9181
  129OSM    C1213738   4.234   1.490   2.158  0.1953  0.9078 -0.6890
  129OSM   H12A13739   4.242   1.464   2.263 -0.9215 -2.6114 -1.4093
  129OSM   H12B13740   4.136   1.533   2.142  0.0615  0.1221 -2.0583
  129OSM    C1113741   4.343   1.593   2.121  0.4583 -0.4247  0.5366
  129OSM   H11A13742   4.305   1.688   2.164  5.2428  1.4738  0.8892
  129OSM   H11B13743   4.339   1.610   2.011 -1.9133 -3.1692  0.1303
  129OSM      P13744   4.519   1.540   2.320  0.2751  0.0356  0.0727
  129OSM    O1313745   4.468   1.403   2.352  0.2600 -0.6996  0.1369
  129OSM    O1413746   4.665   1.567   2.328 -0.0260  0.1019  0.1844
  129OSM    O1113747   4.437   1.649   2.396  0.7906 -0.5259 -0.4585
  129OSM    O1213748   4.472   1.558   2.177  0.0204 -0.6903  0.1541
  129OSM    C1S13749   4.311   1.616   2.459  0.0917 -0.0878 -0.4500
  129OSM    H1S13750   4.280   1.510   2.445 -1.4213 -0.0178  1.9449
  129OSM    H1T13751   4.228   1.673   2.412 -1.2003 -0.0543  1.7827
  129OSM     NF13752   4.199   1.623   2.684 -0.4267 -0.3372  0.3248
  129OSM    HNF13753   4.121   1.685   2.686 -0.6647 -0.6031 -0.3919
  129OSM    C2S13754   4.316   1.662   2.607  0.2656  0.0722 -0.1715
  129OSM    H2S13755   4.402   1.608   2.652 -0.7679 -0.9358  0.6177
  129OSM    C3S13756   4.334   1.819   2.617 -0.7937  0.3957  0.4953
  129OSM    H3S13757   4.241   1.869   2.581 -2.0247 -0.7523  1.9737
  129OSM     O313758   4.438   1.875   2.532  0.1573  0.2304 -0.0523
  129OSM    HO313759   4.452   1.796   2.480  0.9385  2.1061 -2.7700
  129OSM    C4S13760   4.355   1.857   2.762 -0.1942  0.1296  0.4007
  129OSM    H4S13761   4.263   1.880   2.818 -1.2455  0.4192 -1.4178
  129OSM    C5S13762   4.474   1.857   2.833  0.3607  0.7572 -0.2990
  129OSM    H5S13763   4.564   1.833   2.775 -0.3640 -3.0500  0.0146
  129OSM    C6S13764   4.505   1.889   2.979 -0.1135 -0.4874  0.3162
  129OSM    H6S13765   4.565   1.983   2.983  0.5544 -0.9414  1.2502
  129OSM    H6T13766   4.568   1.802   3.010 -0.3390 -0.4712  0.8280
  129OSM    C7S13767   4.388   1.912   3.078  0.6583  0.3961 -0.4823
  129OSM    H7S13768   4.324   1.821   3.087  1.0538  0.1934  0.3117
  129OSM    H7T13769   4.316   1.988   3.041  0.1903  0.1686 -0.0451
  129OSM    C8S13770   4.434   1.946   3.218  0.0516 -0.0668  0.2564
  129OSM    H8S13771   4.487   2.044   3.224 -1.4590  0.7623  0.2452
  129OSM    H8T13772   4.497   1.863   3.258 -0.2679  0.8054  2.6748
  129OSM    C9S13773   4.314   1.965   3.316 -0.1120  0.1321  0.4135
  129OSM    H9S13774   4.354   1.936   3.416 -1.1001  0.9839  1.0696
  129OSM    H9T13775   4.234   1.893   3.288 -2.7282  3.9307 -2.4411
  129OSM   C10S13776   4.247   2.101   3.317 -0.1197  0.1852  0.3834
  129OSM   H10S13777   4.213   2.141   3.219  0.5319 -0.0404  0.0634
  129OSM   H10T13778   4.334   2.167   3.340  0.1124 -0.0906  0.2991
  129OSM   C11S13779   4.136   2.117   3.416 -0.4583 -0.1598 -0.6345
  129OSM   H11S13780   4.080   2.022   3.425 -1.5386  0.3694 -1.5075
  129OSM   H11T13781   4.059   2.186   3.374  1.6264  3.2373  0.9008
  129OSM   C12S13782   4.191   2.161   3.551 -0.5086  1.1066  0.4019
  129OSM   H12S13783   4.213   2.270   3.549 -1.9346  1.3801 -2.5770
  129OSM   H12T13784   4.287   2.106   3.564 -0.8205 -0.0077 -1.7932
  129OSM   C13S13785   4.093   2.122   3.654 -0.2943  0.0182  0.0459
  129OSM   H13S13786   4.024   2.037   3.639 -1.1441  0.3445  1.9318
  129OSM   H13T13787   4.020   2.206   3.660  0.9623  1.2799 -1.5680
  129OSM   C14S13788   4.159   2.117   3.796  0.3663  0.4160  0.9027
  129OSM   H14S13789   4.245   2.047   3.798 -0.4116 -0.5667 -0.3718
  129OSM   H14T13790   4.090   2.071   3.870 -1.2012  1.2533 -0.0167
  129OSM   C15S13791   4.213   2.248   3.854 -0.3450  0.4798  0.3729
  129OSM   H15S13792   4.133   2.325   3.859  0.8492  1.7505 -0.1655
  129OSM   H15T13793   4.290   2.276   3.779  0.7116 -0.6103  1.0321
  129OSM   C16S13794   4.270   2.224   3.995 -0.6242 -0.2502  0.2460
  129OSM   H16S13795   4.344   2.143   3.983  1.3251  1.6214 -0.6772
  129OSM   H16T13796   4.199   2.182   4.070  0.8227 -1.4141  0.9831
  129OSM   C17S13797   4.354   2.344   4.033  0.3269 -0.7350 -0.3664
  129OSM   H17S13798   4.304   2.440   4.010  3.8919  0.9700 -1.3831
  129OSM   H17T13799   4.448   2.333   3.975 -0.4914 -2.0944 -1.4546
  129OSM   C18S13800   4.392   2.342   4.186 -0.0609 -0.5178  0.6327
  129OSM   H18S13801   4.296   2.315   4.236 -0.6772  1.2729  0.4354
  129OSM   H18T13802   4.429   2.442   4.216  0.9041 -1.1210  1.4627
  129OSM   H18U13803   4.474   2.267   4.192  0.9505  0.7187  2.4717
  129OSM    C1F13804   4.181   1.499   2.719  0.1611  0.3070 -0.7100
  129OSM     OF13805   4.260   1.409   2.694  0.0845  0.1447  0.0742
  129OSM    C2F13806   4.058   1.469   2.802 -0.2675 -0.8550  0.2994
  129OSM    H2F13807   4.021   1.374   2.758 -1.8822  1.0432 -2.6688
  129OSM    H2G13808   3.979   1.547   2.795 -0.3673 -0.8136  1.7798
  129OSM    C3F13809   4.110   1.466   2.944 -1.0348 -0.6375  0.3084
  129OSM    H3F13810   4.178   1.378   2.948  1.7771  1.4863  1.1777
  129OSM    H3G13811   4.014   1.447   2.997 -1.3319 -1.5937 -0.5529
  129OSM    C4F13812   4.183   1.581   2.999 -0.7938 -0.1461 -0.0863
  129OSM    H4F13813   4.120   1.670   2.979  1.0401  1.5142  1.2560
  129OSM    H4G13814   4.280   1.609   2.953 -0.0207  0.4269  1.8178
  129OSM    C5F13815   4.195   1.578   3.150  0.5569  0.1614  0.5704
  129OSM    H5F13816   4.113   1.521   3.197 -0.0402 -1.9453 -2.8951
  129OSM    H5G13817   4.211   1.678   3.198 -0.0209  0.2809  0.5165
  129OSM    C6F13818   4.329   1.511   3.185  0.3378 -0.0882 -0.1801
  129OSM    H6F13819   4.409   1.538   3.112 -0.4063  0.9370 -0.6355
  129OSM    H6G13820   4.314   1.403   3.164 -2.3688  0.6759 -2.4404
  129OSM    C7F13821   4.363   1.534   3.330 -0.3613 -0.3584  0.1277
  129OSM    H7F13822   4.379   1.644   3.334 -0.5666 -0.2178 -2.2921
  129OSM    H7G13823   4.459   1.498   3.373 -0.8349  0.3105  1.8009
  129OSM    C8F13824   4.260   1.498   3.441  0.6501 -0.2614  0.2849
  129OSM    H8F13825   4.244   1.390   3.461  0.1617 -0.6401 -2.0248
  129OSM    H8G13826   4.166   1.544   3.404  0.6750 -0.3124  0.1585
  129OSM    C9F13827   4.305   1.565   3.572 -0.7803 -0.5801  0.0783
  129OSM    H9F13828   4.281   1.672   3.581  0.4482 -0.1347 -1.5488
  129OSM   C10F13829   4.363   1.500   3.671  0.1648 -0.4843  0.4032
  129OSM   H10F13830   4.404   1.566   3.749  2.1575  0.0631 -1.0561
  129OSM   C11F13831   4.396   1.348   3.674 -0.1580 -0.5539  0.7865
  129OSM   H11F13832   4.339   1.288   3.600 -0.4115  1.1951 -0.4841
  129OSM   H11G13833   4.356   1.302   3.767  0.4854 -2.3457  0.1910
  129OSM   C12F13834   4.547   1.315   3.661  0.3097 -0.5830 -0.2074
  129OSM   H12F13835   4.605   1.369   3.739  0.9193  2.1456 -2.4916
  129OSM   H12G13836   4.581   1.361   3.566  1.5190 -0.3352  0.3372
  129OSM   C13F13837   4.570   1.153   3.653  0.7432 -0.0843  0.8525
  129OSM   H13F13838   4.671   1.140   3.609 -0.2604  0.3830 -1.6488
  129OSM   H13G13839   4.485   1.113   3.594  1.5538  0.4281 -0.6626
  129OSM   C14F13840   4.567   1.088   3.794 -0.4103 -0.2282  0.2147
  129OSM   H14F13841   4.458   1.085   3.819 -0.6872  0.9443 -0.8379
  129OSM   H14G13842   4.620   1.158   3.862  2.8935 -0.9939 -1.5166
  129OSM   C15F13843   4.631   0.955   3.812  0.6221  0.2304  0.1432
  129OSM   H15F13844   4.639   0.931   3.920 -0.9682  3.0601  0.9448
  129OSM   H15G13845   4.732   0.947   3.766  0.2503  1.8944 -1.0065
  129OSM   C16F13846   4.538   0.854   3.749 -0.2049  0.6505 -0.4714
  129OSM   H16F13847   4.553   0.858   3.639  0.3570 -0.6425 -0.4514
  129OSM   H16G13848   4.435   0.883   3.779  0.4473  1.9920  0.5535
  129OSM   C17F13849   4.565   0.712   3.796 -0.0966  0.1925  0.6644
  129OSM   H17F13850   4.592   0.697   3.903  3.8376 -1.7155 -0.5116
  129OSM   H17G13851   4.653   0.680   3.737  1.6538  4.2336  0.8730
  129OSM   C18F13852   4.445   0.616   3.762 -0.4198  0.4682 -0.5866
  129OSM   H18F13853   4.468   0.516   3.803 -2.3974 -0.7844 -2.3996
  129OSM   H18G13854   4.432   0.609   3.651 -1.9465  1.7111 -0.5080
  129OSM   H18H13855   4.347   0.655   3.797 -0.1307  1.6896 -1.1119
  130OSM      N13856   4.408   5.685   2.150  0.1724 -0.1219  0.0989
  130OSM    C1513857   4.521   5.700   2.240  0.5270  0.1707  0.5909
  130OSM   H15A13858   4.616   5.693   2.188  1.2749 -0.4756  2.0220
  130OSM   H15B13859   4.513   5.617   2.309 -1.3906 -0.5580 -0.4598
  130OSM   H15C13860   4.528   5.800   2.280 -0.9096  0.2764  0.6051
  130OSM    C1413861   4.408   5.553   2.081 -0.0020  0.7107 -0.1458
  130OSM   H14A13862   4.501   5.526   2.032 -0.4377 -0.3864 -0.3792
  130OSM   H14B13863   4.341   5.560   1.997 -1.2879 -0.4978  0.7507
  130OSM   H14C13864   4.381   5.479   2.155  1.8905  1.0568  0.9203
  130OSM    C1313865   4.291   5.707   2.246 -0.1294 -0.0280  0.2230
  130OSM   H13A13866   4.286   5.631   2.322 -0.9740  0.1810  0.3827
  130OSM   H13B13867   4.194   5.690   2.201  0.2296  2.1234 -1.4724
  130OSM   H13C13868   4.279   5.807   2.286 -1.0535 -0.4961  1.1270
  130OSM    C1213869   4.400   5.798   2.048  0.0155  0.2773 -0.0874
  130OSM   H12A13870   4.310   5.801   1.989  0.0431 -0.5970 -0.1834
  130OSM   H12B13871   4.479   5.790   1.975 -0.5595  0.1000 -0.6936
  130OSM    C1113872   4.409   5.946   2.103 -0.0658 -0.1099 -0.4293
  130OSM   H11A13873   4.407   6.022   2.023  0.8313  0.4343  0.0482
  130OSM   H11B13874   4.508   5.951   2.154 -0.4430  0.1826  0.2946
  130OSM      P13875   4.265   6.130   2.199  0.0062 -0.4313  0.2801
  130OSM    O1313876   4.386   6.208   2.217  0.1264  0.3336 -0.5399
  130OSM    O1413877   4.177   6.148   2.082  0.1664  0.0741  0.3207
  130OSM    O1113878   4.181   6.150   2.331 -0.2846 -0.5987 -0.1409
  130OSM    O1213879   4.308   5.979   2.200 -0.0064 -0.1297 -0.8107
  130OSM    C1S13880   4.106   6.046   2.389 -0.3956  0.4364  0.0425
  130OSM    H1S13881   4.166   5.952   2.394 -0.6265  0.2695 -0.2729
  130OSM    H1T13882   4.016   6.024   2.327 -0.7393 -2.0339  1.3794
  130OSM     NF13883   4.032   5.969   2.616 -0.0249 -0.2349  0.3639
  130OSM    HNF13884   3.939   5.983   2.650  1.2313 -0.8926  4.3767
  130OSM    C2S13885   4.069   6.086   2.533  0.4116 -0.3683  0.6104
  130OSM    H2S13886   4.164   6.122   2.578  0.4276  1.2584 -0.6823
  130OSM    C3S13887   3.957   6.195   2.530  0.4183  0.3350 -0.2228
  130OSM    H3S13888   3.876   6.145   2.473  0.7235 -1.1031  0.5863
  130OSM     O313889   3.994   6.314   2.471  0.5665  0.2111  0.3487
  130OSM    HO313890   4.087   6.305   2.452  0.3871  0.9920 -0.9955
  130OSM    C4S13891   3.908   6.224   2.672  0.3752 -0.1695 -0.1209
  130OSM    H4S13892   3.984   6.278   2.730  1.7932 -0.2592 -1.8714
  130OSM    C5S13893   3.805   6.159   2.723 -0.4601  0.1754  0.4131
  130OSM    H5S13894   3.749   6.089   2.660  1.6662 -1.2794  0.0870
  130OSM    C6S13895   3.745   6.167   2.865 -0.0742  0.1422  0.3636
  130OSM    H6S13896   3.705   6.069   2.898  0.2909 -0.3160 -0.5137
  130OSM    H6T13897   3.663   6.241   2.871 -0.3961 -0.3067  1.7247
  130OSM    C7S13898   3.857   6.206   2.967  0.6241  0.0824 -0.6066
  130OSM    H7S13899   3.903   6.303   2.939  0.0440  0.3701 -0.5776
  130OSM    H7T13900   3.935   6.129   2.987 -0.9421 -1.1626  0.8001
  130OSM    C8S13901   3.794   6.222   3.114  0.3128  0.8718  0.0234
  130OSM    H8S13902   3.759   6.126   3.156  0.1190  0.5475 -0.8592
  130OSM    H8T13903   3.703   6.285   3.107 -1.7749 -1.9855  0.6919
  130OSM    C9S13904   3.880   6.299   3.219 -0.5014 -0.3084 -0.3321
  130OSM    H9S13905   3.884   6.403   3.180  0.1490 -0.7767 -1.5293
  130OSM    H9T13906   3.986   6.266   3.221 -0.3273 -0.1823 -4.2782
  130OSM   C10S13907   3.843   6.293   3.364  0.5709 -0.1551 -0.5592
  130OSM   H10S13908   3.930   6.332   3.422  0.0122  0.1216  0.1153
  130OSM   H10T13909   3.831   6.189   3.400  3.0831  0.2723  1.7482
  130OSM   C11S13910   3.722   6.383   3.395  0.0894 -0.3190  0.1974
  130OSM   H11S13911   3.638   6.340   3.337 -1.6314  0.7822  1.8158
  130OSM   H11T13912   3.731   6.488   3.361 -0.6948  0.0898  1.2136
  130OSM   C12S13913   3.680   6.386   3.539 -0.0260 -1.0344  0.8934
  130OSM   H12S13914   3.687   6.280   3.573  0.2742 -1.4517 -0.4711
  130OSM   H12T13915   3.575   6.421   3.547  0.4214  0.9280 -1.4637
  130OSM   C13S13916   3.759   6.477   3.628 -0.6852  0.0015  0.5271
  130OSM   H13S13917   3.727   6.582   3.609 -2.1215 -1.1483 -4.1696
  130OSM   H13T13918   3.864   6.460   3.598 -1.5361 -4.4266 -0.1842
  130OSM   C14S13919   3.766   6.450   3.781  0.7327  0.1395  0.0664
  130OSM   H14S13920   3.852   6.510   3.818 -1.1641  1.4695  2.4997
  130OSM   H14T13921   3.799   6.345   3.791  0.4929 -0.0980 -1.4399
  130OSM   C15S13922   3.639   6.480   3.855 -0.1656 -0.6289  0.3285
  130OSM   H15S13923   3.652   6.447   3.960 -1.4549 -0.6305  0.4864
  130OSM   H15T13924   3.552   6.429   3.808 -0.4969  0.2929 -0.0815
  130OSM   C16S13925   3.590   6.628   3.867 -0.8485 -0.4784 -0.5736
  130OSM   H16S13926   3.500   6.634   3.932  0.6062  0.5817  1.4158
  130OSM   H16T13927   3.573   6.669   3.765  0.6655  0.2321 -0.5554
  130OSM   C17S13928   3.703   6.714   3.925 -0.3310  0.0047 -0.3925
  130OSM   H17S13929   3.776   6.730   3.843  2.8039 -1.5090  1.9893
  130OSM   H17T13930   3.754   6.649   3.999  0.9169  0.7729 -0.5613
  130OSM   C18S13931   3.658   6.850   3.989  0.0006 -0.7219  0.1583
  130OSM   H18S13932   3.615   6.911   3.907  1.6171 -0.0972 -0.2374
  130OSM   H18T13933   3.743   6.899   4.042  2.3252 -2.0517 -2.2359
  130OSM   H18U13934   3.582   6.837   4.069 -0.5122  0.3809 -0.1371
  130OSM    C1F13935   4.115   5.867   2.639  1.2859 -0.5268 -0.2441
  130OSM     OF13936   4.235   5.866   2.619  0.1828 -0.1973 -0.5756
  130OSM    C2F13937   4.053   5.742   2.703 -0.8178  0.3571 -0.0338
  130OSM    H2F13938   4.110   5.664   2.648  0.6003  2.0843 -1.0791
  130OSM    H2G13939   3.945   5.729   2.680 -0.6925 -0.6746 -0.0574
  130OSM    C3F13940   4.071   5.742   2.860 -1.0818  0.5708  0.1310
  130OSM    H3F13941   4.179   5.759   2.880 -0.8843 -0.1509 -0.3181
  130OSM    H3G13942   4.041   5.640   2.894  0.0311  0.2250  0.1130
  130OSM    C4F13943   4.004   5.855   2.933  0.2380 -0.9085 -0.3180
  130OSM    H4F13944   3.905   5.867   2.884 -1.2175 -2.3212  2.2308
  130OSM    H4G13945   4.065   5.947   2.918  0.5038 -0.8883  0.8778
  130OSM    C5F13946   3.999   5.819   3.079  0.3685 -0.2167 -0.1753
  130OSM    H5F13947   4.094   5.839   3.134 -1.0506  1.2757  1.8391
  130OSM    H5G13948   3.991   5.709   3.092 -0.8412  0.2336  3.5656
  130OSM    C6F13949   3.897   5.899   3.167 -0.3574  0.4229  0.4993
  130OSM    H6F13950   3.804   5.914   3.109 -1.4228 -4.3914  0.7906
  130OSM    H6G13951   3.936   6.000   3.192  0.1180  1.2840 -3.5015
  130OSM    C7F13952   3.857   5.825   3.302 -0.4529 -1.0210 -0.6984
  130OSM    H7F13953   3.819   5.725   3.272 -0.9818 -1.2555  0.7154
  130OSM    H7G13954   3.776   5.882   3.351  0.8791 -1.1603  1.7391
  130OSM    C8F13955   3.969   5.816   3.411  0.2565  1.0929  0.1754
  130OSM    H8F13956   3.997   5.919   3.440 -3.1466  2.0652  0.1671
  130OSM    H8G13957   4.065   5.775   3.373  1.4480  2.3978  1.7149
  130OSM    C9F13958   3.923   5.726   3.526 -0.3785 -0.1825 -0.0213
  130OSM    H9F13959   3.908   5.620   3.499  0.9065  0.7910 -5.1629
  130OSM   C10F13960   3.886   5.766   3.650  0.2490  0.0767 -0.0936
  130OSM   H10F13961   3.848   5.692   3.722  1.9910 -0.5446  0.2015
  130OSM   C11F13962   3.885   5.902   3.706 -0.5588 -0.0927 -0.0612
  130OSM   H11F13963   3.794   5.945   3.659 -0.5095  1.3641  1.1256
  130OSM   H11G13964   3.964   5.970   3.665  0.1471 -1.1542 -0.4676
  130OSM   C12F13965   3.897   5.903   3.859 -0.3363  0.0773 -0.0316
  130OSM   H12F13966   4.005   5.905   3.885 -1.0517  0.5504  3.0091
  130OSM   H12G13967   3.843   5.825   3.916 -0.8535 -0.1920 -0.8728
  130OSM   C13F13968   3.836   6.038   3.917 -0.0280  0.5722  0.2641
  130OSM   H13F13969   3.726   6.038   3.900  0.0321 -0.8386 -0.1944
  130OSM   H13G13970   3.869   6.120   3.850  1.8896 -0.4052 -0.0273
  130OSM   C14F13971   3.859   6.058   4.064 -0.2329 -0.0669  0.0321
  130OSM   H14F13972   3.838   5.958   4.106 -2.0225 -0.5992 -2.0184
  130OSM   H14G13973   3.776   6.121   4.101  0.8641  1.7945 -0.5886
  130OSM   C15F13974   3.992   6.105   4.106  0.2197 -1.0520 -0.3981
  130OSM   H15F13975   4.017   6.188   4.036 -0.2554  0.9633  1.7484
  130OSM   H15G13976   4.057   6.016   4.105  0.0725 -1.1660  0.1480
  130OSM   C16F13977   3.991   6.175   4.239 -0.3824 -0.1946 -0.6256
  130OSM   H16F13978   3.937   6.270   4.220 -2.7008 -1.0312  1.4885
  130OSM   H16G13979   4.094   6.203   4.271 -1.0852  1.6705  0.1242
  130OSM   C17F13980   3.931   6.089   4.349 -0.0297  0.3357  0.2005
  130OSM   H17F13981   3.951   5.984   4.322 -0.1417  0.5437 -0.7219
  130OSM   H17G13982   3.820   6.100   4.351  0.3371  5.4776 -0.7241
  130OSM   C18F13983   3.984   6.130   4.490 -0.5003  0.3483 -0.1968
  130OSM   H18F13984   4.002   6.239   4.500  0.4607  0.2623 -0.9280
  130OSM   H18G13985   4.089   6.101   4.511 -0.2083  2.1242  0.8887
  130OSM   H18H13986   3.913   6.094   4.567  1.4418 -2.1915  0.4608
  131OSM      N13987   1.280   2.593   2.514 -0.7754 -0.3254  0.3637
  131OSM    C1513988   1.405   2.620   2.585  0.0343 -0.3155  0.6585
  131OSM   H15A13989   1.464   2.683   2.521 -1.0398 -0.5355 -0.5832
  131OSM   H15B13990   1.470   2.535   2.599 -0.1381 -0.8268 -1.3385
  131OSM   H15C13991   1.392   2.668   2.681 -2.1556 -0.6852  0.5924
  131OSM    C1413992   1.307   2.508   2.396 -0.0551  0.1568  0.4474
  131OSM   H14A13993   1.378   2.553   2.328 -2.1523  1.6089 -0.8354
  131OSM   H14B13994   1.221   2.482   2.336  0.7033  1.6926 -1.3624
  131OSM   H14C13995   1.350   2.411   2.417 -1.5890 -0.8913 -1.0502
  131OSM    C1313996   1.186   2.512   2.601  0.2193 -0.2333 -0.4816
  131OSM   H13A13997   1.137   2.568   2.678 -1.5468 -4.0839  1.3201
  131OSM   H13B13998   1.249   2.431   2.635  1.2701  1.3323  1.4412
  131OSM   H13C13999   1.111   2.466   2.539 -1.7642  1.4361  0.6328
  131OSM    C1214000   1.210   2.720   2.474  0.3073  0.0409  0.1788
  131OSM   H12A14001   1.176   2.773   2.562  0.6471 -1.0971  1.0167
  131OSM   H12B14002   1.124   2.704   2.412 -0.0929  0.3102  0.6635
  131OSM    C1114003   1.288   2.835   2.399  0.6145  0.2053 -0.0584
  131OSM   H11A14004   1.371   2.863   2.468 -0.7715 -2.5039  2.8570
  131OSM   H11B14005   1.219   2.919   2.377  1.8760  1.0080 -1.0465
  131OSM      P14006   1.454   2.875   2.206  0.1477  0.3550 -0.2834
  131OSM    O1314007   1.516   2.803   2.094  0.2524 -0.0524 -0.0512
  131OSM    O1414008   1.390   3.002   2.169 -0.5901 -0.2400  0.5658
  131OSM    O1114009   1.574   2.907   2.299 -0.2637 -0.7649  0.3758
  131OSM    O1214010   1.358   2.775   2.291  0.6506 -0.0206 -0.1344
  131OSM    C1S14011   1.570   3.018   2.396  0.1406 -0.1389 -0.5819
  131OSM    H1S14012   1.475   3.076   2.391  0.9156  1.1709 -0.1178
  131OSM    H1T14013   1.654   3.085   2.370 -1.3408  1.2808 -1.8354
  131OSM     NF14014   1.583   3.084   2.635  0.0177  0.3270  0.0337
  131OSM    HNF14015   1.660   3.133   2.674 -0.2497 -0.6214  1.8588
  131OSM    C2S14016   1.605   2.975   2.548  0.3297 -0.1150  0.2656
  131OSM    H2S14017   1.543   2.887   2.576 -0.9388 -0.0879 -2.2705
  131OSM    C3S14018   1.754   2.921   2.551 -0.5853  0.2213 -0.1238
  131OSM    H3S14019   1.813   3.010   2.518 -1.1414  0.8560  0.5673
  131OSM     O314020   1.787   2.820   2.458  0.4489 -0.4683  0.0074
  131OSM    HO314021   1.724   2.842   2.388 -0.8687 -1.9170  0.7213
  131OSM    C4S14022   1.789   2.874   2.694 -0.0580 -0.2033  0.4859
  131OSM    H4S14023   1.731   2.792   2.740 -1.2130 -0.9037 -2.0994
  131OSM    C5S14024   1.901   2.911   2.759  0.2147  0.0564  0.1082
  131OSM    H5S14025   1.955   3.003   2.731  2.0676 -0.5513  1.5832
  131OSM    C6S14026   1.934   2.850   2.895 -0.8285  0.9382  1.5966
  131OSM    H6S14027   2.040   2.818   2.900 -0.8552  0.7828  1.2071
  131OSM    H6T14028   1.867   2.767   2.924 -1.2743  1.0015  0.7667
  131OSM    C7S14029   1.931   2.951   3.007 -0.7188 -0.0429  0.7521
  131OSM    H7S14030   1.845   3.019   3.023 -0.3069  0.4816  0.7694
  131OSM    H7T14031   2.014   3.024   2.989  0.0607 -0.9876  0.4615
  131OSM    C8S14032   1.963   2.893   3.141 -0.2882 -0.1025 -0.2748
  131OSM    H8S14033   2.055   2.830   3.137  1.1811  1.9051  1.0090
  131OSM    H8T14034   1.877   2.832   3.177 -0.2460  0.1269  0.2135
  131OSM    C9S14035   1.984   3.008   3.240 -0.1642 -0.1720  1.0112
  131OSM    H9S14036   1.929   3.104   3.229  0.0540 -0.0191  1.2271
  131OSM    H9T14037   2.091   3.040   3.237  0.2649 -1.7033 -1.5099
  131OSM   C10S14038   1.952   2.960   3.379  0.1137 -0.5544 -0.3300
  131OSM   H10S14039   2.011   2.872   3.412  0.7472 -0.6509 -1.6881
  131OSM   H10T14040   1.844   2.937   3.368 -0.3235  0.9350  0.6735
  131OSM   C11S14041   1.951   3.068   3.490 -0.1538 -0.2100 -0.0111
  131OSM   H11S14042   1.889   3.156   3.464 -1.6699 -1.9401 -2.4076
  131OSM   H11T14043   2.053   3.108   3.508 -0.8500  0.4248  2.6443
  131OSM   C12S14044   1.900   3.018   3.629 -0.3315  0.4336  0.9350
  131OSM   H12S14045   1.915   3.097   3.706  0.4517  0.1235  1.1067
  131OSM   H12T14046   1.963   2.933   3.663 -1.4379 -0.7753  0.0253
  131OSM   C13S14047   1.759   2.962   3.614 -0.7831 -0.4023 -0.4099
  131OSM   H13S14048   1.752   2.866   3.558  0.4034 -1.4988  1.2743
  131OSM   H13T14049   1.692   3.039   3.571  0.4999  1.2477  0.5276
  131OSM   C14S14050   1.702   2.919   3.748 -0.6453  0.5744  0.3135
  131OSM   H14S14051   1.697   3.011   3.810 -2.3520  1.5833 -1.2609
  131OSM   H14T14052   1.781   2.853   3.790  0.0890  1.5053  0.4269
  131OSM   C15S14053   1.560   2.856   3.733 -0.2555 -0.0757  0.5509
  131OSM   H15S14054   1.566   2.774   3.658 -1.4780  1.5727 -1.4022
  131OSM   H15T14055   1.496   2.936   3.690 -0.5893 -0.5750  0.1257
  131OSM   C16S14056   1.536   2.788   3.870  0.6430  0.0324  0.2595
  131OSM   H16S14057   1.552   2.859   3.954 -2.5009  0.5101  0.5130
  131OSM   H16T14058   1.611   2.708   3.885  2.6234  1.8022  0.0930
  131OSM   C17S14059   1.404   2.713   3.882 -0.0750 -0.7014 -0.0758
  131OSM   H17S14060   1.338   2.751   3.801  0.2396  0.5822  0.2553
  131OSM   H17T14061   1.363   2.748   3.979  0.0243 -2.9101  0.7744
  131OSM   C18S14062   1.407   2.564   3.899  0.6213 -0.7388  0.0512
  131OSM   H18S14063   1.306   2.519   3.908 -0.0321  0.7278  0.3194
  131OSM   H18T14064   1.460   2.547   3.996 -0.2692  1.1128  0.8988
  131OSM   H18U14065   1.461   2.528   3.809  0.5834  1.7164 -0.9912
  131OSM    C1F14066   1.453   3.119   2.660 -0.0623  0.4853 -0.1922
  131OSM     OF14067   1.363   3.054   2.620  0.6131  0.3583 -0.1056
  131OSM    C2F14068   1.430   3.249   2.741  0.2918 -0.3749 -0.2799
  131OSM    H2F14069   1.363   3.319   2.686  0.2535  0.3816  0.7087
  131OSM    H2G14070   1.532   3.294   2.749  0.6659 -1.6736  2.6904
  131OSM    C3F14071   1.387   3.216   2.887  0.6567 -0.3672  0.4867
  131OSM    H3F14072   1.297   3.150   2.881  0.3579  0.2681 -3.5906
  131OSM    H3G14073   1.370   3.308   2.947 -1.6831 -0.4134 -0.0363
  131OSM    C4F14074   1.498   3.140   2.963 -0.3469 -0.2954 -0.9757
  131OSM    H4F14075   1.604   3.155   2.931 -0.5222  0.2677 -1.3066
  131OSM    H4G14076   1.483   3.033   2.941 -1.5459 -0.4361  0.3903
  131OSM    C5F14077   1.497   3.164   3.121  0.9668  0.0971  0.1386
  131OSM    H5F14078   1.393   3.143   3.153  1.3827  0.0421  1.4560
  131OSM    H5G14079   1.523   3.270   3.142 -0.8544  0.1111  2.4861
  131OSM    C6F14080   1.593   3.074   3.199 -0.0551  0.2272 -0.4905
  131OSM    H6F14081   1.600   3.110   3.304 -2.6723 -0.2882 -0.1161
  131OSM    H6G14082   1.693   3.077   3.149  0.2995  0.3166  0.2157
  131OSM    C7F14083   1.552   2.927   3.201  0.8938 -0.0194 -0.3785
  131OSM    H7F14084   1.630   2.853   3.230  1.0133 -0.6433 -2.2055
  131OSM    H7G14085   1.532   2.886   3.100  0.8824  3.0235 -1.6697
  131OSM    C8F14086   1.424   2.897   3.290 -0.6019 -0.4516 -0.0903
  131OSM    H8F14087   1.331   2.945   3.255 -0.5646  3.1802  4.3541
  131OSM    H8G14088   1.443   2.944   3.389  1.7431  0.0791 -0.7558
  131OSM    C9F14089   1.399   2.746   3.294 -0.4036  0.4566  0.6009
  131OSM    H9F14090   1.483   2.677   3.281  0.4999  1.4850  0.9237
  131OSM   C10F14091   1.288   2.688   3.337 -0.9728 -0.0397 -0.1514
  131OSM   H10F14092   1.270   2.580   3.341  0.2502 -0.2852 -1.1183
  131OSM   C11F14093   1.168   2.776   3.374 -0.1785 -0.1964  0.3463
  131OSM   H11F14094   1.084   2.705   3.389  0.1608 -0.5549  0.5683
  131OSM   H11G14095   1.137   2.850   3.298 -1.3423 -0.2023  0.8097
  131OSM   C12F14096   1.176   2.841   3.517 -0.4477  0.1537 -0.4587
  131OSM   H12F14097   1.256   2.917   3.509 -2.1488  2.1672  1.1784
  131OSM   H12G14098   1.209   2.764   3.590 -2.3483 -1.3059 -1.0943
  131OSM   C13F14099   1.039   2.897   3.552  0.4400  0.4830 -0.0925
  131OSM   H13F14100   0.998   2.942   3.459  1.3606  0.9684 -0.2710
  131OSM   H13G14101   1.031   2.982   3.623  1.2592 -0.9726  1.7939
  131OSM   C14F14102   0.940   2.780   3.603 -0.1796  0.1642  0.4104
  131OSM   H14F14103   0.935   2.703   3.523 -1.0039  1.6362 -0.9961
  131OSM   H14G14104   0.841   2.826   3.621  0.7771  1.5021  2.4982
  131OSM   C15F14105   1.001   2.725   3.729  0.0273  0.1327  0.0255
  131OSM   H15F14106   1.054   2.801   3.790  3.4004 -1.0764 -1.2557
  131OSM   H15G14107   1.077   2.648   3.704 -1.8463 -1.3006 -1.4015
  131OSM   C16F14108   0.893   2.646   3.805  0.3845  0.2659  0.0887
  131OSM   H16F14109   0.825   2.588   3.739  1.4457  0.3770 -1.1304
  131OSM   H16G14110   0.824   2.708   3.865  0.1669  1.2331 -1.1339
  131OSM   C17F14111   0.953   2.551   3.901 -0.1825  0.6338 -0.0982
  131OSM   H17F14112   1.042   2.507   3.851  0.1945  0.3275  0.8373
  131OSM   H17G14113   0.863   2.488   3.921 -0.3692  0.8841 -0.1471
  131OSM   C18F14114   0.998   2.621   4.032  0.3020 -0.0658  0.1845
  131OSM   H18F14115   1.071   2.702   4.015 -1.4186  1.9962  2.3948
  131OSM   H18G14116   1.040   2.558   4.113 -0.4959 -1.5876 -0.5618
  131OSM   H18H14117   0.916   2.685   4.072 -0.6515 -1.5393  0.6426
  132OSM      N14118   1.060   3.242   2.380  0.3983 -0.0085  0.0476
  132OSM    C1514119   1.141   3.180   2.490  0.3816  0.2066 -0.9956
  132OSM   H15A14120   1.244   3.156   2.465  0.7809  1.1736 -0.3087
  132OSM   H15B14121   1.098   3.082   2.504 -0.3919  0.7421  0.4362
  132OSM   H15C14122   1.139   3.241   2.579  3.7742  0.2339 -0.8647
  132OSM    C1414123   1.069   3.147   2.264  0.5960  0.5244  0.0787
  132OSM   H14A14124   1.169   3.107   2.254 -0.0777 -1.5037  1.1691
  132OSM   H14B14125   1.033   3.199   2.177 -1.4564 -0.8047  0.0912
  132OSM   H14C14126   1.009   3.058   2.279 -0.4929  0.7272 -2.7465
  132OSM    C1314127   0.917   3.254   2.408 -0.0410  0.2014 -0.0320
  132OSM   H13A14128   0.891   3.315   2.493 -0.4088  2.5192 -1.7780
  132OSM   H13B14129   0.869   3.158   2.417 -1.5586  0.9484  0.0174
  132OSM   H13C14130   0.872   3.310   2.327 -1.4633 -1.9343 -0.7802
  132OSM    C1214131   1.123   3.374   2.333  0.5203 -0.0675 -0.5810
  132OSM   H12A14132   1.215   3.350   2.282  1.4435  0.9704  0.5671
  132OSM   H12B14133   1.145   3.432   2.422  2.2655 -0.3081 -0.8400
  132OSM    C1114134   1.033   3.458   2.241 -0.6306 -0.1675  0.5584
  132OSM   H11A14135   0.994   3.384   2.168 -0.0091 -0.5201  0.5784
  132OSM   H11B14136   1.098   3.528   2.184 -1.3465 -0.1071 -0.1958
  132OSM      P14137   0.965   3.682   2.355  0.3418 -0.4726  0.1164
  132OSM    O1314138   1.102   3.689   2.418  0.1324 -0.1686 -0.7277
  132OSM    O1414139   0.945   3.764   2.233  0.3322  0.2571  0.3399
  132OSM    O1114140   0.855   3.712   2.467 -0.2306  0.1588 -0.2842
  132OSM    O1214141   0.935   3.529   2.314  0.5369  1.0833 -0.3789
  132OSM    C1S14142   0.816   3.612   2.558  0.5525 -0.2118 -0.3992
  132OSM    H1S14143   0.849   3.509   2.532 -0.6069 -0.2687 -1.6915
  132OSM    H1T14144   0.706   3.604   2.566  0.4830  1.2234  0.2109
  132OSM     NF14145   0.851   3.526   2.782 -0.2998  0.0489 -0.0216
  132OSM    HNF14146   0.772   3.541   2.841  1.3381  1.3099  1.9418
  132OSM    C2S14147   0.867   3.645   2.700  0.4718 -0.2229 -0.0815
  132OSM    H2S14148   0.974   3.670   2.686  0.4590 -0.0244  0.1680
  132OSM    C3S14149   0.801   3.772   2.754  0.0579  0.0095 -0.4807
  132OSM    H3S14150   0.691   3.762   2.771  0.2944  0.2017  1.2468
  132OSM     O314151   0.811   3.877   2.657 -0.8498 -0.1175 -0.8005
  132OSM    HO314152   0.846   3.842   2.575  0.4349  0.8019 -0.6525
  132OSM    C4S14153   0.866   3.821   2.880  0.2702  0.1780 -0.1789
  132OSM    H4S14154   0.963   3.871   2.870  0.1550  0.2056 -1.3250
  132OSM    C5S14155   0.812   3.805   3.005 -0.3762  0.0768  0.3497
  132OSM    H5S14156   0.725   3.738   3.006 -0.2652 -0.0826 -0.4508
  132OSM    C6S14157   0.866   3.844   3.142  0.1693  0.4208  0.4419
  132OSM    H6S14158   0.796   3.922   3.180 -0.0550  0.7553 -0.6333
  132OSM    H6T14159   0.964   3.898   3.139 -1.1372  2.9260  1.1088
  132OSM    C7S14160   0.884   3.726   3.241  0.6398  0.2839 -0.4940
  132OSM    H7S14161   0.983   3.744   3.287  1.3404 -1.2640 -1.3744
  132OSM    H7T14162   0.900   3.636   3.177 -0.0156  0.3631 -0.7836
  132OSM    C8S14163   0.775   3.699   3.346  0.4778 -0.2875 -0.5197
  132OSM    H8S14164   0.681   3.691   3.289  0.6808  2.8093 -1.3761
  132OSM    H8T14165   0.764   3.787   3.413 -1.2505 -0.0790 -1.0721
  132OSM    C9S14166   0.815   3.586   3.441  0.3289  0.5127 -0.2657
  132OSM    H9S14167   0.822   3.491   3.385 -1.2873 -0.9177  1.8545
  132OSM    H9T14168   0.730   3.560   3.508  1.8727  1.0092  1.9413
  132OSM   C10S14169   0.951   3.602   3.505 -0.2867 -0.4747  0.2005
  132OSM   H10S14170   1.031   3.609   3.428  1.0259  0.3925  1.6044
  132OSM   H10T14171   0.981   3.506   3.552  0.2845  1.2276  3.4695
  132OSM   C11S14172   0.940   3.707   3.615 -0.2210  0.0812  0.1575
  132OSM   H11S14173   0.846   3.690   3.671  0.2999  0.2910  1.1003
  132OSM   H11T14174   0.950   3.803   3.560 -0.8439 -0.6446 -1.2561
  132OSM   C12S14175   1.056   3.697   3.725  0.0931  0.3377  0.1913
  132OSM   H12S14176   1.055   3.796   3.775 -1.8705  0.8557 -0.8325
  132OSM   H12T14177   1.152   3.684   3.669 -1.0022  1.4337 -2.0044
  132OSM   C13S14178   1.044   3.583   3.833  0.3459  0.4344  0.2637
  132OSM   H13S14179   1.095   3.498   3.783 -0.8473 -0.2618  0.2053
  132OSM   H13T14180   0.939   3.551   3.848 -0.6984  2.3419 -2.4947
  132OSM   C14S14181   1.105   3.626   3.968  0.5945  0.4765  0.0187
  132OSM   H14S14182   1.063   3.722   4.006 -1.4428 -0.4821  0.2463
  132OSM   H14T14183   1.213   3.643   3.945  0.9259  1.0864  1.9119
  132OSM   C15S14184   1.096   3.513   4.083  0.2183 -0.2346  0.4858
  132OSM   H15S14185   1.089   3.407   4.049  0.1990  0.0507 -0.3962
  132OSM   H15T14186   0.995   3.538   4.122  1.1129  0.3781  2.5023
  132OSM   C16S14187   1.193   3.513   4.194  0.1515 -0.0932  0.1284
  132OSM   H16S14188   1.290   3.490   4.144 -0.6287 -1.7884 -0.6662
  132OSM   H16T14189   1.169   3.435   4.270  0.1531 -0.6557 -0.4388
  132OSM   C17S14190   1.218   3.653   4.269  0.1471  0.4411 -0.4759
  132OSM   H17S14191   1.122   3.708   4.274  1.3420  2.5176  0.2289
  132OSM   H17T14192   1.283   3.719   4.207  0.0988 -0.9230 -2.0152
  132OSM   C18S14193   1.291   3.631   4.409  0.4549 -0.7722  0.2138
  132OSM   H18S14194   1.293   3.721   4.473  0.3270 -1.9145  1.8491
  132OSM   H18T14195   1.396   3.598   4.395  0.0918 -2.5989  1.6351
  132OSM   H18U14196   1.251   3.548   4.472 -0.8052 -0.1561  0.2431
  132OSM    C1F14197   0.923   3.406   2.761  0.0099  0.5140  0.3597
  132OSM     OF14198   1.030   3.414   2.700 -0.3721  0.3936  0.0334
  132OSM    C2F14199   0.858   3.277   2.795  0.3063  0.3828  0.2025
  132OSM    H2F14200   0.834   3.237   2.694 -0.9335 -0.8274  0.9467
  132OSM    H2G14201   0.763   3.303   2.847  1.6036  0.3977  2.6267
  132OSM    C3F14202   0.942   3.175   2.880 -0.1350  0.4198 -0.2789
  132OSM    H3F14203   1.049   3.187   2.854  0.2499 -0.2859  0.9353
  132OSM    H3G14204   0.905   3.073   2.855  1.0683  0.1053 -0.7730
  132OSM    C4F14205   0.936   3.182   3.034  0.3022 -0.4472 -0.3471
  132OSM    H4F14206   0.988   3.096   3.081  0.9346 -0.2830 -0.7370
  132OSM    H4G14207   0.828   3.175   3.058  0.1017  0.0934 -1.0522
  132OSM    C5F14208   1.013   3.304   3.107 -0.4798  0.3950 -0.2814
  132OSM    H5F14209   0.963   3.399   3.078 -1.3612 -0.8933 -3.1674
  132OSM    H5G14210   1.119   3.308   3.072 -0.3344  1.4106  0.2451
  132OSM    C6F14211   1.023   3.296   3.260 -0.2102 -0.5239  1.1481
  132OSM    H6F14212   0.927   3.282   3.314 -1.5215 -0.8825 -1.2073
  132OSM    H6G14213   1.054   3.399   3.289 -1.6196  0.2625 -0.0726
  132OSM    C7F14214   1.125   3.194   3.310  0.2254 -0.2307  0.5383
  132OSM    H7F14215   1.214   3.213   3.246  0.2175 -0.8629  0.3346
  132OSM    H7G14216   1.104   3.089   3.279  0.8521 -0.5329  1.1309
  132OSM    C8F14217   1.161   3.195   3.463  0.1887 -0.0408  0.5242
  132OSM    H8F14218   1.237   3.115   3.474  1.4158  0.7628 -1.7246
  132OSM    H8G14219   1.073   3.168   3.525  0.4532 -3.0087 -0.3153
  132OSM    C9F14220   1.221   3.324   3.502  0.2440 -0.5853  0.4870
  132OSM    H9F14221   1.178   3.416   3.460  1.2278 -0.8637 -1.1808
  132OSM   C10F14222   1.326   3.335   3.596 -0.2688  0.8344 -0.7339
  132OSM   H10F14223   1.378   3.425   3.631  0.4474  0.0415  0.2831
  132OSM   C11F14224   1.387   3.212   3.668 -0.4268  0.2418 -0.4334
  132OSM   H11F14225   1.493   3.195   3.640 -0.3923 -0.7313  0.2759
  132OSM   H11G14226   1.338   3.114   3.653  0.8255 -0.3749 -0.5521
  132OSM   C12F14227   1.373   3.238   3.826  0.1604  0.4385  0.3776
  132OSM   H12F14228   1.285   3.179   3.859 -0.7417  0.8799 -1.1871
  132OSM   H12G14229   1.362   3.347   3.844  1.9524  0.4247  1.6718
  132OSM   C13F14230   1.483   3.186   3.914  0.3242 -0.1856  0.7979
  132OSM   H13F14231   1.588   3.207   3.885 -0.2286  0.7297 -0.5717
  132OSM   H13G14232   1.474   3.075   3.911  0.6111 -0.2714  2.5624
  132OSM   C14F14233   1.474   3.237   4.061  0.3557  0.0367 -1.1622
  132OSM   H14F14234   1.499   3.344   4.077  1.7689  0.0755 -3.3649
  132OSM   H14G14235   1.548   3.178   4.118  0.5647 -0.8059 -2.2746
  132OSM   C15F14236   1.334   3.198   4.119  0.2473  0.0839  0.2624
  132OSM   H15F14237   1.254   3.242   4.055 -0.9141 -1.8375  0.3611
  132OSM   H15G14238   1.320   3.251   4.216 -0.7413 -2.1628  1.3832
  132OSM   C16F14239   1.317   3.053   4.157 -0.9271  0.2766 -0.4736
  132OSM   H16F14240   1.398   3.026   4.228 -1.4384  1.7225  0.7017
  132OSM   H16G14241   1.334   3.002   4.061 -0.1531 -1.3040  0.4917
  132OSM   C17F14242   1.182   3.015   4.216  0.0166 -0.7299 -0.4869
  132OSM   H17F14243   1.111   3.047   4.137 -0.4089 -1.6915 -0.4911
  132OSM   H17G14244   1.168   3.072   4.311 -0.3749 -1.9236  0.1898
  132OSM   C18F14245   1.166   2.867   4.243  0.1953  0.4083 -0.3140
  132OSM   H18F14246   1.182   2.809   4.149 -0.6188 -0.1535 -0.1142
  132OSM   H18G14247   1.068   2.838   4.287  1.6929 -0.4944  2.5326
  132OSM   H18H14248   1.241   2.835   4.317 -1.3732 -0.7230  0.8121
  133OSM      N14249   6.254   3.336   1.962 -0.1039  0.0557  0.7301
  133OSM    C1514250   6.151   3.434   1.965  0.0581 -0.5561  0.0062
  133OSM   H15A14251   6.197   3.531   1.953 -0.1892 -0.5407 -0.8632
  133OSM   H15B14252   6.101   3.432   2.061  1.3834 -1.8237  0.6912
  133OSM   H15C14253   6.073   3.426   1.891 -1.1580 -2.2428  1.4360
  133OSM    C1414254   6.193   3.199   1.988  0.4274 -0.0899 -0.6576
  133OSM   H14A14255   6.261   3.120   2.017 -0.9904 -1.0142  0.2268
  133OSM   H14B14256   6.136   3.173   1.900  1.5077 -0.0392 -1.3802
  133OSM   H14C14257   6.124   3.190   2.071 -0.7317 -1.1687 -1.7027
  133OSM    C1314258   6.325   3.319   1.829 -0.4775  0.0643 -0.7203
  133OSM   H13A14259   6.394   3.236   1.839 -0.4414  0.3946  2.4335
  133OSM   H13B14260   6.381   3.408   1.805  1.0287 -0.7825 -0.4325
  133OSM   H13C14261   6.258   3.288   1.750  1.4463 -3.4647 -1.0761
  133OSM    C1214262   6.368   3.352   2.066  0.0879  0.3829 -0.3586
  133OSM   H12A14263   6.327   3.352   2.166  2.4965 -0.1914  0.6703
  133OSM   H12B14264   6.402   3.450   2.038  1.0415 -1.0535 -4.4832
  133OSM    C1114265   6.491   3.251   2.063  0.3097 -0.0456  0.1025
  133OSM   H11A14266   6.578   3.288   2.120 -2.4441  1.2172  3.7255
  133OSM   H11B14267   6.534   3.241   1.961 -0.9192  0.8850 -0.5199
  133OSM      P14268   6.540   3.042   2.202  0.1811  0.0408  0.5512
  133OSM    O1314269   6.503   2.896   2.209 -0.0214  0.3721  0.4801
  133OSM    O1414270   6.677   3.059   2.158 -0.4980 -0.1611 -0.5808
  133OSM    O1114271   6.513   3.107   2.341 -0.1055 -0.0726 -0.2043
  133OSM    O1214272   6.438   3.119   2.113 -0.0896 -0.1127 -0.0695
  133OSM    C1S14273   6.430   3.033   2.437  0.9863  0.0380  0.2756
  133OSM    H1S14274   6.491   2.952   2.482  1.8685  1.4677  1.6980
  133OSM    H1T14275   6.336   2.998   2.389  2.1338 -1.0022 -1.2887
  133OSM     NF14276   6.344   3.041   2.670 -0.8411 -0.2535  0.5069
  133OSM    HNF14277   6.246   3.026   2.671 -1.1717  1.4193 -2.5268
  133OSM    C2S14278   6.392   3.125   2.557 -0.8525  0.5663 -0.4698
  133OSM    H2S14279   6.480   3.177   2.600 -0.4881  0.7860 -1.4649
  133OSM    C3S14280   6.296   3.227   2.492 -0.8343  0.7205  0.2365
  133OSM    H3S14281   6.205   3.171   2.461 -0.4237 -0.6041  1.3671
  133OSM     O314282   6.338   3.290   2.371 -0.0031 -0.0784  0.0270
  133OSM    HO314283   6.415   3.236   2.351 -0.4364 -0.7008  0.0450
  133OSM    C4S14284   6.259   3.336   2.590  0.5646  0.5035 -0.1095
  133OSM    H4S14285   6.164   3.314   2.640  1.3477 -1.3618  0.6299
  133OSM    C5S14286   6.333   3.446   2.623  0.2896 -0.0699 -0.2694
  133OSM    H5S14287   6.426   3.469   2.569  0.1007 -0.0820 -0.6025
  133OSM    C6S14288   6.299   3.552   2.727 -0.1847  0.0340  0.1143
  133OSM    H6S14289   6.192   3.538   2.752 -0.0906 -0.3218  0.3084
  133OSM    H6T14290   6.315   3.653   2.682 -0.8240 -1.0997 -2.7877
  133OSM    C7S14291   6.382   3.543   2.859  0.6012 -0.3340  0.3970
  133OSM    H7S14292   6.377   3.644   2.903 -2.0188 -0.1900 -0.1855
  133OSM    H7T14293   6.489   3.520   2.836 -0.4068 -2.9728 -2.0746
  133OSM    C8S14294   6.323   3.439   2.959  0.3611  0.1442  0.2077
  133OSM    H8S14295   6.397   3.409   3.036 -0.5170 -1.8128  0.3300
  133OSM    H8T14296   6.308   3.345   2.901 -0.4508  0.2636  0.2142
  133OSM    C9S14297   6.197   3.488   3.039  0.0951  0.3237  0.0179
  133OSM    H9S14298   6.178   3.398   3.101 -0.8581  0.1985 -0.4460
  133OSM    H9T14299   6.106   3.501   2.975 -0.4992  1.0475  0.9949
  133OSM   C10S14300   6.223   3.610   3.132 -0.1087  0.0921  0.5861
  133OSM   H10S14301   6.251   3.690   3.060 -0.6760  0.7757  1.1244
  133OSM   H10T14302   6.315   3.597   3.193 -0.5254 -1.0542  0.9847
  133OSM   C11S14303   6.110   3.655   3.223  0.9643 -0.4777 -0.2710
  133OSM   H11S14304   6.014   3.653   3.168  0.4822  1.4565  0.4704
  133OSM   H11T14305   6.127   3.758   3.259  1.9546 -0.7343  0.0079
  133OSM   C12S14306   6.098   3.575   3.352  0.1988  0.3861 -0.3345
  133OSM   H12S14307   6.088   3.466   3.336  1.4089  0.0725  0.9332
  133OSM   H12T14308   6.002   3.600   3.401 -0.0010 -0.4928 -0.2711
  133OSM   C13S14309   6.219   3.604   3.448 -0.4302 -0.4221 -0.4897
  133OSM   H13S14310   6.235   3.713   3.457  0.1730 -0.6648  1.7226
  133OSM   H13T14311   6.306   3.556   3.398 -0.0735 -0.3607  0.0701
  133OSM   C14S14312   6.195   3.532   3.576  0.0464 -0.5274  0.3385
  133OSM   H14S14313   6.110   3.586   3.624  0.0317  1.7629 -2.1461
  133OSM   H14T14314   6.281   3.559   3.641 -0.3833 -0.2993  0.8160
  133OSM   C15S14315   6.178   3.382   3.578 -0.2232  0.0435  1.1472
  133OSM   H15S14316   6.246   3.342   3.501  1.1316 -0.2827  2.4897
  133OSM   H15T14317   6.075   3.353   3.547 -0.2332 -0.1806  1.3923
  133OSM   C16S14318   6.215   3.328   3.717  0.1387 -0.5361 -0.2858
  133OSM   H16S14319   6.134   3.356   3.788 -0.6763 -0.4072 -1.2464
  133OSM   H16T14320   6.312   3.367   3.753 -0.1366 -1.2292  1.2442
  133OSM   C17S14321   6.234   3.174   3.728  0.5131  0.5711  0.3316
  133OSM   H17S14322   6.327   3.151   3.671  0.0987 -2.6165  0.8675
  133OSM   H17T14323   6.151   3.124   3.673 -0.6167  2.0564  0.6353
  133OSM   C18S14324   6.237   3.138   3.867  1.0869 -0.2586 -0.3280
  133OSM   H18S14325   6.272   3.032   3.871 -0.2786 -0.7206 -0.3881
  133OSM   H18T14326   6.138   3.153   3.913  0.5964 -1.9741 -0.7544
  133OSM   H18U14327   6.315   3.199   3.917 -0.4076 -0.8786  2.8995
  133OSM    C1F14328   6.432   2.975   2.743  0.0114  0.1384  0.8504
  133OSM     OF14329   6.551   2.967   2.712 -0.0538 -0.0856 -0.0084
  133OSM    C2F14330   6.381   2.897   2.856  0.2139 -0.4926 -0.0397
  133OSM    H2F14331   6.348   2.796   2.823 -1.0898  0.3277 -1.3327
  133OSM    H2G14332   6.292   2.950   2.897 -0.1839  0.8102 -2.4688
  133OSM    C3F14333   6.483   2.884   2.973 -0.5210 -0.5819  0.4051
  133OSM    H3F14334   6.511   2.991   2.990 -0.7131 -0.5825  0.7108
  133OSM    H3G14335   6.574   2.838   2.929 -0.2496 -0.0488  0.3978
  133OSM    C4F14336   6.443   2.813   3.103 -0.0396  0.3791 -0.0606
  133OSM    H4F14337   6.427   2.704   3.091 -1.3908  0.3816  1.5534
  133OSM    H4G14338   6.351   2.860   3.144  0.3970  1.6647 -0.5213
  133OSM    C5F14339   6.548   2.823   3.212 -1.4365  0.5134 -0.8767
  133OSM    H5F14340   6.587   2.927   3.214 -2.9891  1.1605  4.2199
  133OSM    H5G14341   6.622   2.745   3.185 -2.7134 -0.0986 -2.7393
  133OSM    C6F14342   6.497   2.793   3.356 -1.0051 -0.6970 -0.5455
  133OSM    H6F14343   6.465   2.688   3.367  0.8135 -1.0890  1.3682
  133OSM    H6G14344   6.415   2.866   3.376 -0.4190 -0.2695  0.3175
  133OSM    C7F14345   6.601   2.823   3.456  0.6146  0.0119  0.1948
  133OSM    H7F14346   6.627   2.931   3.470 -0.3792  0.5731 -2.0823
  133OSM    H7G14347   6.697   2.781   3.420  2.3121  3.2659  0.7328
  133OSM    C8F14348   6.567   2.753   3.589 -0.0890 -0.3481 -0.2933
  133OSM    H8F14349   6.653   2.765   3.658  0.9120 -0.1437 -1.5533
  133OSM    H8G14350   6.579   2.646   3.561 -2.2518 -0.8819  0.6729
  133OSM    C9F14351   6.437   2.796   3.656  0.3684 -0.4578  0.1901
  133OSM    H9F14352   6.369   2.851   3.590 -1.2004 -1.5704  0.8466
  133OSM   C10F14353   6.423   2.801   3.789 -0.2264 -0.3858  0.3107
  133OSM   H10F14354   6.332   2.844   3.832 -0.6446  2.5927 -3.3219
  133OSM   C11F14355   6.520   2.754   3.894  0.2652 -0.5119 -1.0178
  133OSM   H11F14356   6.605   2.825   3.884  0.5780 -0.2119  3.0460
  133OSM   H11G14357   6.561   2.654   3.867  0.3365 -0.1656 -2.1897
  133OSM   C12F14358   6.480   2.758   4.041 -0.0831  0.1164 -0.3213
  133OSM   H12F14359   6.551   2.708   4.112  0.5783  0.0201 -1.0435
  133OSM   H12G14360   6.382   2.706   4.046  0.2447 -0.3663  2.0702
  133OSM   C13F14361   6.448   2.895   4.099  0.0563  0.2587  0.0837
  133OSM   H13F14362   6.357   2.926   4.043 -1.5677 -2.7892  0.9382
  133OSM   H13G14363   6.523   2.975   4.081  0.0315  0.2594 -0.0123
  133OSM   C14F14364   6.410   2.900   4.248  0.2472  0.1910  0.6532
  133OSM   H14F14365   6.483   2.845   4.312  2.1349  2.5542  0.5733
  133OSM   H14G14366   6.310   2.856   4.272 -1.4019  0.6438 -4.7720
  133OSM   C15F14367   6.414   3.043   4.285  0.2642 -0.1550 -0.3640
  133OSM   H15F14368   6.520   3.075   4.281  0.1600  0.1586 -0.5983
  133OSM   H15G14369   6.394   3.045   4.394 -1.5506 -0.4169 -0.6837
  133OSM   C16F14370   6.328   3.144   4.211  0.6785 -0.0527 -0.1085
  133OSM   H16F14371   6.231   3.093   4.199  1.1907 -1.1029  0.1753
  133OSM   H16G14372   6.368   3.143   4.107 -1.3990  2.1089 -0.9779
  133OSM   C17F14373   6.310   3.283   4.264  0.1413  0.1690  0.1344
  133OSM   H17F14374   6.400   3.348   4.256 -2.0911  3.1522 -1.6912
  133OSM   H17G14375   6.290   3.268   4.372  1.2634 -1.1249  0.1737
  133OSM   C18F14376   6.197   3.355   4.200  0.5110 -0.1335  0.0631
  133OSM   H18F14377   6.212   3.466   4.199  1.9825 -0.3217 -1.8370
  133OSM   H18G14378   6.097   3.337   4.244 -0.2593  1.1954 -1.0887
  133OSM   H18H14379   6.186   3.334   4.092 -1.6693 -2.6093  0.7212
  134OSM      N14380   5.752   5.459   2.107 -0.5424  0.1848 -0.1124
  134OSM    C1514381   5.687   5.336   2.062 -0.1001 -0.4492 -0.6086
  134OSM   H15A14382   5.586   5.350   2.028 -0.8424  1.3295  2.1548
  134OSM   H15B14383   5.685   5.262   2.141 -2.2406 -0.3304 -0.5220
  134OSM   H15C14384   5.747   5.294   1.983 -0.5780 -3.3273  0.4898
  134OSM    C1414385   5.770   5.553   1.991 -0.0364 -0.2255  0.5543
  134OSM   H14A14386   5.837   5.512   1.916 -0.2974 -0.0020  0.1968
  134OSM   H14B14387   5.804   5.654   2.012  1.6109 -0.2596 -1.6606
  134OSM   H14C14388   5.677   5.573   1.939  0.2268  0.2406  0.2545
  134OSM    C1314389   5.659   5.523   2.211 -0.7668 -0.1454  0.1322
  134OSM   H13A14390   5.565   5.541   2.161 -0.5623  1.3270  0.2444
  134OSM   H13B14391   5.709   5.611   2.247 -1.1847  0.9248 -1.8161
  134OSM   H13C14392   5.635   5.462   2.297 -0.6796  1.0724  1.0290
  134OSM    C1214393   5.885   5.437   2.180  0.3032 -0.0186 -1.0750
  134OSM   H12A14394   5.867   5.392   2.277  3.8643  0.6768 -0.0171
  134OSM   H12B14395   5.919   5.534   2.212 -1.3030 -0.2493  1.4558
  134OSM    C1114396   6.003   5.351   2.121 -0.3521  0.7496  0.5319
  134OSM   H11A14397   6.089   5.359   2.191  1.0267 -0.3777 -0.9831
  134OSM   H11B14398   6.026   5.395   2.021  0.5669  1.3879  1.0168
  134OSM      P14399   5.973   5.110   2.230 -0.1945 -0.1269  0.2549
  134OSM    O1314400   5.873   5.000   2.208 -0.1597  1.0299  0.0288
  134OSM    O1414401   6.110   5.063   2.227  0.1760 -0.5253  0.0621
  134OSM    O1114402   5.933   5.178   2.370 -0.1314 -0.0558  0.6329
  134OSM    O1214403   5.952   5.214   2.111  0.5517  0.0734  0.2401
  134OSM    C1S14404   5.795   5.184   2.405 -0.2937  0.1470 -0.1232
  134OSM    H1S14405   5.738   5.090   2.389 -0.2688  0.2023 -0.5297
  134OSM    H1T14406   5.741   5.256   2.340 -2.9843  0.4538  2.3478
  134OSM     NF14407   5.783   5.364   2.597  0.0888 -0.0022  0.3005
  134OSM    HNF14408   5.872   5.398   2.627 -1.1104  1.7208  1.9977
  134OSM    C2S14409   5.767   5.214   2.563  1.0261  0.1998 -0.2779
  134OSM    H2S14410   5.658   5.196   2.576  1.7111 -2.8267  1.8099
  134OSM    C3S14411   5.846   5.112   2.640 -0.1235  0.1342  0.5222
  134OSM    H3S14412   5.955   5.113   2.619 -0.5084  2.0335 -1.5223
  134OSM     O314413   5.824   4.979   2.601 -0.3234 -0.0849  0.2775
  134OSM    HO314414   5.857   4.976   2.511 -0.4378 -1.3705  0.2683
  134OSM    C4S14415   5.808   5.110   2.785  0.0511 -1.1737  0.1415
  134OSM    H4S14416   5.714   5.061   2.814 -0.4558 -0.7113 -0.7062
  134OSM    C5S14417   5.871   5.162   2.889  0.4603  0.8351 -0.4389
  134OSM    H5S14418   5.967   5.213   2.871  1.8409 -2.3429 -2.5181
  134OSM    C6S14419   5.819   5.161   3.031  0.0796  0.3601 -0.0270
  134OSM    H6S14420   5.728   5.098   3.037 -0.1447  0.7340  0.6430
  134OSM    H6T14421   5.790   5.263   3.065 -1.4613  0.1823 -0.7620
  134OSM    C7S14422   5.927   5.106   3.130  0.3607 -0.2705  0.5387
  134OSM    H7S14423   6.029   5.149   3.122  0.8957 -1.7628 -1.1134
  134OSM    H7T14424   5.932   4.997   3.107  2.2115 -0.2249  0.6583
  134OSM    C8S14425   5.877   5.121   3.279 -0.1579 -0.6205 -0.1849
  134OSM    H8S14426   5.770   5.093   3.285 -0.1450 -0.6295  0.0170
  134OSM    H8T14427   5.889   5.230   3.299  2.8321 -1.2446  1.8671
  134OSM    C9S14428   5.980   5.052   3.381 -0.7787  0.4502  0.0863
  134OSM    H9S14429   6.081   5.099   3.371  0.9424 -3.3338 -1.0404
  134OSM    H9T14430   5.984   4.943   3.359 -1.0790  0.3490  0.5408
  134OSM   C10S14431   5.943   5.069   3.525 -0.6713 -0.0355  0.1472
  134OSM   H10S14432   5.862   4.997   3.551  1.5428 -3.0454 -0.9884
  134OSM   H10T14433   5.906   5.174   3.527  0.7650  0.4899 -0.1442
  134OSM   C11S14434   6.049   5.060   3.631 -0.2076  0.2487  0.5037
  134OSM   H11S14435   6.001   5.099   3.723  0.8028  2.2341  0.2028
  134OSM   H11T14436   6.129   5.134   3.611 -0.8825  1.2687  1.5551
  134OSM   C12S14437   6.109   4.915   3.652  0.3027 -0.3189 -0.0576
  134OSM   H12S14438   6.172   4.877   3.568 -1.2961  1.2559 -2.0251
  134OSM   H12T14439   6.025   4.843   3.658 -0.3749  0.3873 -0.9445
  134OSM   C13S14440   6.202   4.912   3.777 -0.4518 -0.5130  0.2937
  134OSM   H13S14441   6.181   4.984   3.860  1.1530  1.2377 -0.7804
  134OSM   H13T14442   6.297   4.958   3.743 -1.2737  1.7116  0.9196
  134OSM   C14S14443   6.226   4.777   3.850  0.2018 -0.0157 -0.0045
  134OSM   H14S14444   6.132   4.733   3.889  0.9391 -2.3031 -0.7736
  134OSM   H14T14445   6.298   4.796   3.932 -0.4415  1.6112  0.2148
  134OSM   C15S14446   6.296   4.678   3.742  0.3119  0.6810  0.0747
  134OSM   H15S14447   6.240   4.671   3.646  1.4934  0.1815 -0.5969
  134OSM   H15T14448   6.296   4.579   3.794  1.0190  1.0602  0.7979
  134OSM   C16S14449   6.447   4.710   3.717  0.0909  0.8317 -0.4277
  134OSM   H16S14450   6.467   4.810   3.672  0.2614  2.0702  2.3007
  134OSM   H16T14451   6.484   4.638   3.641 -0.0464 -0.9807  1.1881
  134OSM   C17S14452   6.538   4.684   3.834 -0.4048 -0.3145  0.5109
  134OSM   H17S14453   6.495   4.593   3.882 -1.3421 -1.2255 -1.9960
  134OSM   H17T14454   6.543   4.773   3.900  2.8726  1.8373 -2.4423
  134OSM   C18S14455   6.677   4.649   3.791  0.6171  0.4266  0.2029
  134OSM   H18S14456   6.749   4.733   3.778  2.2764 -0.5627  2.5931
  134OSM   H18T14457   6.673   4.583   3.701  0.6887 -0.6095  0.9564
  134OSM   H18U14458   6.725   4.588   3.870 -1.3932  0.6299  1.6300
  134OSM    C1F14459   5.689   5.457   2.566 -0.0881  0.8675 -0.0587
  134OSM     OF14460   5.590   5.427   2.500 -0.1731  0.1676  0.1198
  134OSM    C2F14461   5.695   5.598   2.611 -0.0606  0.3167  0.8092
  134OSM    H2F14462   5.701   5.664   2.522  1.3160  0.4528  0.9875
  134OSM    H2G14463   5.793   5.616   2.659 -0.1725 -1.9376  1.9504
  134OSM    C3F14464   5.573   5.654   2.700  0.6692 -0.0467  0.8631
  134OSM    H3F14465   5.478   5.617   2.655 -0.4398  1.0290  2.2690
  134OSM    H3G14466   5.573   5.765   2.702  0.4028 -0.0183 -0.3842
  134OSM    C4F14467   5.570   5.593   2.842  0.4980  0.0169 -0.3769
  134OSM    H4F14468   5.571   5.483   2.852 -1.3182  0.0259  0.0643
  134OSM    H4G14469   5.470   5.624   2.880  0.5320 -1.0148  0.5909
  134OSM    C5F14470   5.667   5.658   2.935 -0.5178  0.6896 -0.3873
  134OSM    H5F14471   5.667   5.769   2.930 -2.0036  0.7364  0.3532
  134OSM    H5G14472   5.774   5.628   2.930 -0.6446 -0.1904  1.7152
  134OSM    C6F14473   5.637   5.607   3.080 -0.5251  0.2570 -0.3464
  134OSM    H6F14474   5.654   5.498   3.085  0.4516  0.4921  1.8660
  134OSM    H6G14475   5.528   5.625   3.093 -0.7708 -2.6261  1.9198
  134OSM    C7F14476   5.710   5.677   3.194  0.3657  0.0742 -0.2404
  134OSM    H7F14477   5.676   5.782   3.184 -1.2595 -0.4907 -0.8342
  134OSM    H7G14478   5.821   5.673   3.188  0.6469 -2.1726  3.9688
  134OSM    C8F14479   5.671   5.628   3.338 -0.0501 -0.6063  0.5115
  134OSM    H8F14480   5.632   5.524   3.337  0.5144 -0.8207  1.2801
  134OSM    H8G14481   5.579   5.685   3.364  0.2845 -0.8282  2.2561
  134OSM    C9F14482   5.778   5.638   3.449  0.0535  0.4379  0.1679
  134OSM    H9F14483   5.837   5.731   3.445  0.6711  0.0851  1.0343
  134OSM   C10F14484   5.821   5.548   3.532 -0.8051 -0.3662  0.0466
  134OSM   H10F14485   5.893   5.576   3.611 -1.4806 -1.6682  1.1274
  134OSM   C11F14486   5.782   5.407   3.545  0.7939  0.2162  0.3412
  134OSM   H11F14487   5.865   5.362   3.603  0.5357  0.6576  1.0591
  134OSM   H11G14488   5.791   5.369   3.441 -0.6277  2.9038 -0.8091
  134OSM   C12F14489   5.644   5.386   3.614 -0.2083  0.0914 -0.0275
  134OSM   H12F14490   5.570   5.438   3.550  0.0856  0.4622 -0.0657
  134OSM   H12G14491   5.632   5.431   3.714  0.0333  0.8482 -0.3362
  134OSM   C13F14492   5.618   5.234   3.621 -0.7788 -0.1974  0.5595
  134OSM   H13F14493   5.678   5.188   3.703  0.9151  0.6600 -0.1596
  134OSM   H13G14494   5.642   5.183   3.525  0.0579 -1.0067  1.1815
  134OSM   C14F14495   5.467   5.206   3.652 -0.0061 -0.5577 -0.1808
  134OSM   H14F14496   5.437   5.102   3.626 -2.8946  0.0510  0.4860
  134OSM   H14G14497   5.404   5.277   3.593 -0.1879  0.1065  0.8078
  134OSM   C15F14498   5.438   5.230   3.796  0.1235  0.0308 -0.1379
  134OSM   H15F14499   5.465   5.335   3.822  0.6363 -0.2062  0.3026
  134OSM   H15G14500   5.507   5.162   3.849 -1.4777 -1.4415  0.0886
  134OSM   C16F14501   5.296   5.199   3.831  0.0896 -0.1960 -0.6316
  134OSM   H16F14502   5.267   5.102   3.785 -1.3449 -0.6626  1.1884
  134OSM   H16G14503   5.234   5.281   3.789 -0.2261  1.1337  2.3352
  134OSM   C17F14504   5.267   5.190   3.987 -0.3242  0.0993 -0.1579
  134OSM   H17F14505   5.297   5.287   4.034 -1.5227 -0.1964  1.2748
  134OSM   H17G14506   5.333   5.108   4.023  1.3857  0.7529 -1.7558
  134OSM   C18F14507   5.120   5.175   4.029  0.0342  0.8826  0.2945
  134OSM   H18F14508   5.113   5.164   4.139  1.0417  1.1880  0.3948
  134OSM   H18G14509   5.069   5.101   3.964 -0.7930  2.2470 -0.6490
  134OSM   H18H14510   5.063   5.267   4.002  0.7005  1.0866 -0.4422
  135OSM      N14511   0.808   4.593   2.136 -0.1402 -0.2426  0.3062
  135OSM    C1514512   0.705   4.546   2.033 -0.5890 -0.3024  0.0688
  135OSM   H15A14513   0.727   4.582   1.933  1.5388 -0.3559  0.5109
  135OSM   H15B14514   0.606   4.567   2.072  0.1426  0.6167  1.4515
  135OSM   H15C14515   0.715   4.440   2.015 -0.8046 -0.5314  1.2693
  135OSM    C1414516   0.769   4.542   2.271 -0.1166  0.3109  0.5488
  135OSM   H14A14517   0.766   4.435   2.282 -0.7524  0.0811 -1.5315
  135OSM   H14B14518   0.675   4.591   2.291  0.1394  0.8581  0.4336
  135OSM   H14C14519   0.840   4.585   2.340 -0.3078 -0.8178  1.4530
  135OSM    C1314520   0.948   4.544   2.109  1.0910 -0.0481 -0.7635
  135OSM   H13A14521   0.978   4.593   2.017  0.6549  0.3821 -0.6780
  135OSM   H13B14522   0.955   4.437   2.117  1.6174  0.2181  3.4020
  135OSM   H13C14523   1.008   4.582   2.190 -0.2145  3.7997 -1.4658
  135OSM    C1214524   0.809   4.747   2.138 -0.3126 -0.8823  0.0006
  135OSM   H12A14525   0.712   4.792   2.157  0.7056  0.5377  1.9159
  135OSM   H12B14526   0.820   4.770   2.033  3.0900 -1.0686  0.2674
  135OSM    C1114527   0.925   4.805   2.226 -0.0830  0.0130 -0.5167
  135OSM   H11A14528   0.927   4.735   2.313  1.4764 -0.1716 -0.6913
  135OSM   H11B14529   0.903   4.909   2.259  1.8933  0.5170 -0.7040
  135OSM      P14530   1.168   4.889   2.178  0.3708 -0.1288 -0.2174
  135OSM    O1314531   1.265   4.861   2.071  0.3799 -0.9569  0.2258
  135OSM    O1414532   1.120   5.031   2.180  0.0933 -0.1293 -0.3887
  135OSM    O1114533   1.221   4.836   2.322  0.4002 -0.5718 -0.0297
  135OSM    O1214534   1.047   4.797   2.154  0.4168  0.0728 -0.5022
  135OSM    C1S14535   1.139   4.848   2.439  0.1264 -0.5664  0.3560
  135OSM    H1S14536   1.098   4.747   2.460  2.3632 -1.6384 -0.3050
  135OSM    H1T14537   1.059   4.925   2.435  1.3840  0.8098  1.1517
  135OSM     NF14538   1.123   4.870   2.676 -0.9603  0.5810  0.1160
  135OSM    HNF14539   1.072   4.955   2.687  0.3128  1.3726 -0.1507
  135OSM    C2S14540   1.220   4.875   2.570  0.0109  0.1776 -0.7531
  135OSM    H2S14541   1.296   4.797   2.592 -0.8421 -0.6712 -0.7711
  135OSM    C3S14542   1.295   5.007   2.542  0.0133  0.3467 -0.1006
  135OSM    H3S14543   1.228   5.082   2.494  1.9713  0.8139 -2.2019
  135OSM     O314544   1.406   4.994   2.456 -0.0732 -0.5944  0.4916
  135OSM    HO314545   1.386   4.911   2.412 -1.4775 -0.2791  0.5374
  135OSM    C4S14546   1.336   5.077   2.672 -0.2114  1.1685  0.5047
  135OSM    H4S14547   1.399   5.017   2.740  0.5997  1.9791  0.4871
  135OSM    C5S14548   1.294   5.194   2.721  0.4293  0.7143 -0.0356
  135OSM    H5S14549   1.215   5.250   2.668  0.4297  0.4325 -0.3403
  135OSM    C6S14550   1.327   5.250   2.850 -0.1365 -0.0129  0.3964
  135OSM    H6S14551   1.254   5.222   2.929  0.6694 -2.3599  0.3438
  135OSM    H6T14552   1.316   5.360   2.851 -3.9116 -0.3223  0.1414
  135OSM    C7S14553   1.463   5.220   2.911 -0.4698 -0.8795 -0.0142
  135OSM    H7S14554   1.545   5.250   2.842 -2.2823 -1.2372 -2.4066
  135OSM    H7T14555   1.473   5.112   2.932 -3.8552 -1.2632 -0.0109
  135OSM    C8S14556   1.485   5.303   3.042  0.7963 -0.5475  0.0935
  135OSM    H8S14557   1.398   5.284   3.109  0.6744 -1.6270 -0.3533
  135OSM    H8T14558   1.479   5.409   3.009 -1.8310 -0.3700  0.9862
  135OSM    C9S14559   1.625   5.275   3.107  0.0606 -0.2955 -0.3449
  135OSM    H9S14560   1.667   5.368   3.150 -0.3731 -0.1062 -0.3225
  135OSM    H9T14561   1.685   5.242   3.019  0.4175 -1.1558  0.2181
  135OSM   C10S14562   1.634   5.170   3.225  0.6462  0.0191 -0.0614
  135OSM   H10S14563   1.570   5.084   3.192  1.1725  0.4148 -2.1882
  135OSM   H10T14564   1.577   5.217   3.307 -1.5417  0.1617 -1.5957
  135OSM   C11S14565   1.781   5.131   3.263  0.3856  0.3227  0.8106
  135OSM   H11S14566   1.857   5.212   3.266 -0.4493  1.2158 -1.0612
  135OSM   H11T14567   1.822   5.053   3.194 -0.0859  2.4230 -1.9357
  135OSM   C12S14568   1.783   5.078   3.409  0.1631  0.5507  0.8335
  135OSM   H12S14569   1.876   5.020   3.425 -0.0691 -0.1167 -0.1988
  135OSM   H12T14570   1.706   4.998   3.416  1.2873 -0.4133  2.8361
  135OSM   C13S14571   1.774   5.185   3.512  0.2074 -0.3435  0.0314
  135OSM   H13S14572   1.700   5.265   3.492  1.2064  1.2604  2.5363
  135OSM   H13T14573   1.873   5.233   3.525 -0.1144 -0.0424  1.4256
  135OSM   C14S14574   1.735   5.138   3.664 -0.8946  0.1373 -0.6781
  135OSM   H14S14575   1.823   5.079   3.696  0.4858  0.7936 -3.1306
  135OSM   H14T14576   1.657   5.059   3.662 -0.6337 -0.1257 -0.4459
  135OSM   C15S14577   1.702   5.247   3.759  0.0317 -0.2727  0.1545
  135OSM   H15S14578   1.622   5.312   3.716  1.3730  0.7009 -0.9300
  135OSM   H15T14579   1.793   5.308   3.778 -0.7556  1.6499 -1.9294
  135OSM   C16S14580   1.647   5.192   3.887  0.2087 -0.6332  0.0826
  135OSM   H16S14581   1.552   5.137   3.869 -0.9776  1.4081 -0.1498
  135OSM   H16T14582   1.624   5.281   3.951  5.3453  2.3528 -1.9295
  135OSM   C17S14583   1.741   5.099   3.968 -0.4341 -0.0878 -0.7445
  135OSM   H17S14584   1.842   5.146   3.970  0.0309 -1.1235  0.6938
  135OSM   H17T14585   1.762   5.001   3.920 -1.1302 -0.2938 -0.6281
  135OSM   C18S14586   1.696   5.082   4.117 -0.2922 -0.4435 -0.5077
  135OSM   H18S14587   1.589   5.051   4.107  0.2587 -2.1253 -1.4304
  135OSM   H18T14588   1.700   5.176   4.176  0.3295 -0.1131 -1.0699
  135OSM   H18U14589   1.766   5.009   4.164 -0.0257 -1.0015 -1.7531
  135OSM    C1F14590   1.063   4.765   2.732  0.2241  0.6756  0.7454
  135OSM     OF14591   1.086   4.650   2.697 -0.3970 -0.0101  0.0691
  135OSM    C2F14592   0.955   4.802   2.828  0.1162  0.3262 -0.5137
  135OSM    H2F14593   0.909   4.707   2.863  1.5092 -0.5483 -0.9978
  135OSM    H2G14594   0.887   4.859   2.762  0.8412  0.3641 -1.2483
  135OSM    C3F14595   0.999   4.891   2.954  0.8285  0.0395  0.0076
  135OSM    H3F14596   0.909   4.909   3.015 -0.0643 -1.6009 -0.7966
  135OSM    H3G14597   1.041   4.989   2.922  1.2766 -0.3832 -0.7114
  135OSM    C4F14598   1.110   4.817   3.035 -0.3183  0.1911 -0.2184
  135OSM    H4F14599   1.198   4.796   2.970  1.7796  0.9028  2.3091
  135OSM    H4G14600   1.071   4.721   3.074 -0.3346  0.6871  0.9927
  135OSM    C5F14601   1.174   4.910   3.139  0.2916  0.2879  0.0697
  135OSM    H5F14602   1.199   5.010   3.098 -1.0702  0.7738  0.3920
  135OSM    H5G14603   1.266   4.867   3.185 -0.2087  0.1458  0.9633
  135OSM    C6F14604   1.076   4.923   3.259 -0.0755  0.2871 -0.2571
  135OSM    H6F14605   1.064   4.818   3.293  3.0701 -0.6519 -1.8087
  135OSM    H6G14606   0.976   4.956   3.223  0.0294  0.3704 -0.4755
  135OSM    C7F14607   1.124   5.012   3.379  0.0425  0.7319 -0.3971
  135OSM    H7F14608   1.058   4.996   3.467  1.4755 -0.3533  0.5101
  135OSM    H7G14609   1.122   5.119   3.348  0.9722  0.2656 -2.0977
  135OSM    C8F14610   1.275   4.989   3.426  0.0435  0.0287  0.1647
  135OSM    H8F14611   1.293   5.070   3.501 -1.4138  0.5305  0.0007
  135OSM    H8G14612   1.337   5.015   3.337  1.4126  1.6841  1.5544
  135OSM    C9F14613   1.282   4.848   3.479  0.1104  0.1092 -0.9075
  135OSM    H9F14614   1.268   4.767   3.406  0.9141 -1.0952  0.2526
  135OSM   C10F14615   1.295   4.816   3.611  0.4379  0.4659  0.3909
  135OSM   H10F14616   1.297   4.712   3.648  0.1304  0.5660  0.6893
  135OSM   C11F14617   1.308   4.922   3.726  0.1909 -0.5581 -0.5579
  135OSM   H11F14618   1.294   5.030   3.702  1.8077 -0.3692 -0.6627
  135OSM   H11G14619   1.411   4.909   3.764 -0.1524  0.7192  0.8425
  135OSM   C12F14620   1.193   4.885   3.827 -0.2674  0.2712  0.4617
  135OSM   H12F14621   1.096   4.869   3.776 -1.0747 -0.7418  2.2792
  135OSM   H12G14622   1.181   4.974   3.894  1.5249  1.5383 -0.8364
  135OSM   C13F14623   1.230   4.768   3.914 -0.5350  0.6487 -0.1315
  135OSM   H13F14624   1.336   4.775   3.945  0.0443  0.4962 -2.0150
  135OSM   H13G14625   1.233   4.679   3.847  0.6915  0.8520 -0.3570
  135OSM   C14F14626   1.147   4.742   4.037  0.4847  0.1202 -0.7050
  135OSM   H14F14627   1.040   4.752   4.009 -0.0812 -1.2891  0.8920
  135OSM   H14G14628   1.176   4.817   4.114 -1.4106 -0.0439  0.1940
  135OSM   C15F14629   1.168   4.607   4.103  0.2810  0.3134  0.5425
  135OSM   H15F14630   1.156   4.534   4.020  4.6788  0.3560 -0.2412
  135OSM   H15G14631   1.094   4.589   4.184 -0.3458 -0.0561 -0.1026
  135OSM   C16F14632   1.306   4.588   4.156 -0.0684 -0.0296  0.5271
  135OSM   H16F14633   1.365   4.578   4.062  0.2426 -1.6034  0.8705
  135OSM   H16G14634   1.303   4.489   4.206  1.1733  0.5994  1.9060
  135OSM   C17F14635   1.363   4.698   4.248  0.8839 -0.0196 -0.9371
  135OSM   H17F14636   1.293   4.695   4.334 -0.2091 -0.2112 -1.8219
  135OSM   H17G14637   1.361   4.801   4.206 -0.5362  0.0695 -0.6841
  135OSM   C18F14638   1.497   4.657   4.309 -0.2140 -0.5216 -0.4257
  135OSM   H18F14639   1.516   4.734   4.387 -1.9822  1.2355 -1.6836
  135OSM   H18G14640   1.581   4.665   4.237 -1.3965  1.4841 -1.6189
  135OSM   H18H14641   1.493   4.556   4.356 -0.0437  0.1169  0.9736
  136OSM      N14642   3.482   0.917   1.879 -0.3442 -0.0894  0.0083
  136OSM    C1514643   3.395   0.796   1.905 -0.1880 -0.7228  0.1645
  136OSM   H15A14644   3.439   0.711   1.855 -0.8766 -1.2839  0.4970
  136OSM   H15B14645   3.295   0.810   1.864 -0.8623 -3.7798  0.7080
  136OSM   H15C14646   3.387   0.766   2.008 -1.8342  0.3575  0.3739
  136OSM    C1414647   3.610   0.901   1.956 -0.6264  0.5961 -0.4898
  136OSM   H14A14648   3.589   0.904   2.062 -1.4913 -3.4589 -0.4915
  136OSM   H14B14649   3.680   0.983   1.954 -0.5873  0.5694 -0.2482
  136OSM   H14C14650   3.650   0.804   1.934 -0.4630  0.5266  0.0932
  136OSM    C1314651   3.515   0.925   1.738 -0.2440  0.8555  0.0845
  136OSM   H13A14652   3.603   0.987   1.726  1.1405 -0.9730  0.4250
  136OSM   H13B14653   3.430   0.953   1.678 -0.0224  0.8995 -0.2104
  136OSM   H13C14654   3.563   0.835   1.701 -0.2072  0.5404  0.8733
  136OSM    C1214655   3.409   1.041   1.930 -0.1947  0.0890  0.3547
  136OSM   H12A14656   3.406   1.036   2.038  3.4708  0.6832  0.5443
  136OSM   H12B14657   3.310   1.033   1.889 -1.4523 -0.0803  3.3320
  136OSM    C1114658   3.472   1.181   1.908 -0.3364 -0.4206  0.4429
  136OSM   H11A14659   3.393   1.257   1.923 -0.1157 -0.3870  1.4681
  136OSM   H11B14660   3.511   1.186   1.804 -1.2024 -2.8085 -0.0301
  136OSM      P14661   3.632   1.355   2.021 -0.0971 -0.2048  0.0705
  136OSM    O1314662   3.767   1.365   1.968  0.0974  0.8651  0.6665
  136OSM    O1414663   3.524   1.448   1.966 -0.7351 -0.1367 -0.7219
  136OSM    O1114664   3.636   1.376   2.181 -0.0777 -0.1790  0.6193
  136OSM    O1214665   3.586   1.205   2.002 -0.4331  0.1434  0.0587
  136OSM    C1S14666   3.709   1.282   2.259 -0.1342  0.4382 -0.4705
  136OSM    H1S14667   3.818   1.295   2.241  0.0402 -0.3985 -0.0592
  136OSM    H1T14668   3.693   1.175   2.234  1.3052 -0.0189  0.4393
  136OSM     NF14669   3.764   1.195   2.486 -0.0132  0.6653 -0.3994
  136OSM    HNF14670   3.751   1.096   2.492 -3.4174  1.0797 -0.2885
  136OSM    C2S14671   3.672   1.279   2.412  0.1809  0.7907 -0.1705
  136OSM    H2S14672   3.695   1.383   2.445  0.7396  0.6432 -0.0903
  136OSM    C3S14673   3.528   1.235   2.431  0.1428  0.3314  1.1962
  136OSM    H3S14674   3.506   1.141   2.375 -0.1919  1.9325 -1.4576
  136OSM     O314675   3.432   1.323   2.369 -0.2340  0.2535 -0.6839
  136OSM    HO314676   3.476   1.344   2.286  1.1297 -0.9470 -0.2898
  136OSM    C4S14677   3.490   1.210   2.571 -0.1452 -0.5897 -0.3526
  136OSM    H4S14678   3.470   1.103   2.589 -0.3456 -0.1233  2.3806
  136OSM    C5S14679   3.479   1.303   2.668  0.6703  0.5172  0.7469
  136OSM    H5S14680   3.491   1.410   2.643 -2.0192  1.0379  1.5092
  136OSM    C6S14681   3.432   1.276   2.812 -0.3172  0.3260 -0.1951
  136OSM    H6S14682   3.424   1.168   2.839  2.0284 -0.0596 -0.9211
  136OSM    H6T14683   3.337   1.324   2.843  1.2050  2.2222  1.5837
  136OSM    C7S14684   3.540   1.329   2.906  0.4348  0.2151 -0.6304
  136OSM    H7S14685   3.489   1.339   3.004 -0.3505 -2.7816 -0.6785
  136OSM    H7T14686   3.569   1.433   2.880  0.4505  0.2554 -0.4500
  136OSM    C8S14687   3.652   1.227   2.931 -0.1366  0.6457 -0.9960
  136OSM    H8S14688   3.712   1.208   2.840 -1.1897  0.4293 -1.6538
  136OSM    H8T14689   3.610   1.128   2.958 -2.9879  2.2690  0.8442
  136OSM    C9S14690   3.761   1.279   3.030 -0.2652 -0.0347  0.3894
  136OSM    H9S14691   3.787   1.373   2.978 -0.3348  0.2295  0.8250
  136OSM    H9T14692   3.847   1.209   3.040  0.2211  0.3965 -0.7574
  136OSM   C10S14693   3.711   1.310   3.172  0.0430 -0.1812  0.3047
  136OSM   H10S14694   3.699   1.209   3.217 -2.1297 -0.2722 -0.4257
  136OSM   H10T14695   3.626   1.382   3.177 -1.5112 -1.9016 -0.7499
  136OSM   C11S14696   3.828   1.369   3.255  0.2162  0.3767 -0.0939
  136OSM   H11S14697   3.848   1.469   3.209 -1.4623 -0.3266 -2.4232
  136OSM   H11T14698   3.917   1.304   3.242  0.3169  0.8279 -1.7284
  136OSM   C12S14699   3.792   1.397   3.403  0.2025 -0.3015  0.4466
  136OSM   H12S14700   3.700   1.460   3.398 -0.4246 -1.3526 -1.6258
  136OSM   H12T14701   3.865   1.473   3.438 -0.8439  1.2870 -0.7610
  136OSM   C13S14702   3.765   1.282   3.493  0.8545 -0.2239 -0.2658
  136OSM   H13S14703   3.852   1.214   3.489 -0.3534 -1.7230 -1.8158
  136OSM   H13T14704   3.684   1.218   3.452 -0.5563  0.5588  1.2360
  136OSM   C14S14705   3.735   1.333   3.641  0.4003  0.0719 -0.4625
  136OSM   H14S14706   3.638   1.386   3.643  0.7676  0.7010  2.5225
  136OSM   H14T14707   3.809   1.405   3.684 -1.6321  1.0639  1.4238
  136OSM   C15S14708   3.730   1.222   3.751  0.0601  0.0878  0.1091
  136OSM   H15S14709   3.832   1.198   3.788  0.1141  2.0922  1.3376
  136OSM   H15T14710   3.672   1.140   3.704 -4.4697  2.5746  1.0524
  136OSM   C16S14711   3.641   1.267   3.870 -0.2103  0.4124 -0.4504
  136OSM   H16S14712   3.570   1.189   3.904 -1.5548  0.6327 -2.6777
  136OSM   H16T14713   3.576   1.353   3.847 -0.4462  0.5732  0.7560
  136OSM   C17S14714   3.735   1.309   3.987 -0.0123 -0.5313 -0.6201
  136OSM   H17S14715   3.817   1.373   3.950 -1.2795  0.5033 -1.7021
  136OSM   H17T14716   3.779   1.210   4.013  1.0892 -0.7943 -3.3367
  136OSM   C18S14717   3.671   1.375   4.111 -0.3869  0.4840  0.4264
  136OSM   H18S14718   3.728   1.356   4.203 -3.0625  1.4763  2.3563
  136OSM   H18T14719   3.566   1.349   4.137 -0.8231  1.2317 -0.5095
  136OSM   H18U14720   3.676   1.485   4.094  1.6961  0.6755  2.0872
  136OSM    C1F14721   3.887   1.239   2.510 -0.7092  0.0656 -0.3159
  136OSM     OF14722   3.921   1.353   2.493  0.0796  0.1609  0.0977
  136OSM    C2F14723   3.986   1.137   2.565  0.0150  0.1842 -0.2476
  136OSM    H2F14724   4.055   1.199   2.626 -2.7761  2.7569  0.4289
  136OSM    H2G14725   4.045   1.084   2.487 -0.3216  1.1441 -1.1684
  136OSM    C3F14726   3.919   1.035   2.654 -0.0146  0.1975  0.1851
  136OSM    H3F14727   3.861   0.968   2.586  0.2740  0.7014 -0.5624
  136OSM    H3G14728   3.842   1.080   2.720 -0.4916 -0.0242 -0.2133
  136OSM    C4F14729   4.015   0.947   2.725 -0.1306  0.1979  0.1909
  136OSM    H4F14730   4.089   1.003   2.786 -1.8382  2.5606  0.2005
  136OSM    H4G14731   4.072   0.896   2.645 -2.1091 -2.0230  0.1239
  136OSM    C5F14732   3.949   0.839   2.810  1.1961  0.4724  0.4431
  136OSM    H5F14733   4.029   0.773   2.851  1.2680 -0.0209 -0.4772
  136OSM    H5G14734   3.882   0.774   2.751 -1.8405  1.0056  3.1461
  136OSM    C6F14735   3.859   0.876   2.935  0.2620 -0.2383 -0.4711
  136OSM    H6F14736   3.783   0.956   2.917 -1.0488 -1.3488  0.0762
  136OSM    H6G14737   3.928   0.903   3.017  0.4353  0.2484 -0.7734
  136OSM    C7F14738   3.774   0.753   2.983  0.1199  0.1166  0.2690
  136OSM    H7F14739   3.697   0.734   2.905  0.4861  1.5328 -0.4491
  136OSM    H7G14740   3.711   0.790   3.067 -0.8416  0.0813 -0.4291
  136OSM    C8F14741   3.857   0.629   3.015 -0.6231  0.7319  0.3529
  136OSM    H8F14742   3.935   0.676   3.078 -0.7438  2.9437 -1.0893
  136OSM    H8G14743   3.920   0.594   2.931  2.5542  0.8737  2.5902
  136OSM    C9F14744   3.775   0.534   3.089 -0.2229 -0.1965 -1.0529
  136OSM    H9F14745   3.706   0.476   3.026  0.3217  0.2645 -2.1028
  136OSM   C10F14746   3.766   0.525   3.223 -0.0344  0.2949  0.1057
  136OSM   H10F14747   3.708   0.439   3.261  0.4044  0.1313  0.4113
  136OSM   C11F14748   3.834   0.601   3.338 -0.0111 -0.0023 -0.1825
  136OSM   H11F14749   3.897   0.685   3.302  0.9107 -2.0507 -3.6972
  136OSM   H11G14750   3.898   0.531   3.396  0.2549 -0.3878 -0.9218
  136OSM   C12F14751   3.741   0.674   3.436 -0.7638 -0.5216 -0.2306
  136OSM   H12F14752   3.694   0.764   3.390  0.6122 -0.1663 -0.9583
  136OSM   H12G14753   3.802   0.717   3.518  1.5884  0.2034 -2.2958
  136OSM   C13F14754   3.637   0.584   3.516  0.8463 -0.3057  0.3399
  136OSM   H13F14755   3.677   0.481   3.528 -1.6542 -1.1296  1.7913
  136OSM   H13G14756   3.545   0.570   3.456  1.7702  0.3069 -1.2469
  136OSM   C14F14757   3.604   0.631   3.662  0.4060 -0.8158 -0.0467
  136OSM   H14F14758   3.542   0.724   3.667  0.0128 -1.0488 -0.6561
  136OSM   H14G14759   3.707   0.657   3.694  0.2531 -1.7463  1.2582
  136OSM   C15F14760   3.540   0.526   3.746  0.3980 -0.0488 -0.7367
  136OSM   H15F14761   3.498   0.450   3.676 -0.6488 -0.2223  0.0687
  136OSM   H15G14762   3.449   0.556   3.803  1.1115 -0.2633  0.5232
  136OSM   C16F14763   3.640   0.453   3.830  0.2948  0.2848 -0.4981
  136OSM   H16F14764   3.680   0.518   3.911  0.9250  0.3540 -0.8649
  136OSM   H16G14765   3.726   0.427   3.764  0.0686 -0.1142 -0.6373
  136OSM   C17F14766   3.582   0.331   3.909 -0.3420 -0.0607  0.9288
  136OSM   H17F14767   3.503   0.361   3.981 -0.8732 -0.0096  0.3215
  136OSM   H17G14768   3.661   0.280   3.968  0.8861  0.5179 -0.1793
  136OSM   C18F14769   3.527   0.226   3.819  0.5638 -0.3854  0.5038
  136OSM   H18F14770   3.601   0.191   3.744 -2.1636  0.3618 -2.6447
  136OSM   H18G14771   3.440   0.261   3.759  1.3229 -1.4768 -1.2955
  136OSM   H18H14772   3.494   0.139   3.880  0.2592 -0.3942  0.3258
  137OSM      N14773   0.568   3.812   2.169  0.3909  0.4296  0.0643
  137OSM    C1514774   0.681   3.881   2.098  0.2991  0.3756 -0.1799
  137OSM   H15A14775   0.681   3.988   2.105  0.2982  0.5032 -1.9198
  137OSM   H15B14776   0.685   3.857   1.993  2.3776 -1.4584  0.2656
  137OSM   H15C14777   0.770   3.845   2.147 -1.6734 -0.1708  3.1996
  137OSM    C1414778   0.568   3.673   2.114 -0.2750  0.4626 -0.0286
  137OSM   H14A14779   0.534   3.666   2.012  0.5229 -2.5902 -0.1411
  137OSM   H14B14780   0.483   3.625   2.161  0.9534  0.5377  2.3249
  137OSM   H14C14781   0.655   3.614   2.138 -0.5838 -0.4623 -1.1265
  137OSM    C1314782   0.591   3.821   2.312 -0.2145  0.4575  0.4711
  137OSM   H13A14783   0.671   3.754   2.342 -1.4700 -1.6176 -0.6956
  137OSM   H13B14784   0.507   3.776   2.364  0.2997 -1.4171 -0.2691
  137OSM   H13C14785   0.595   3.924   2.345 -0.1696  0.1885  1.3358
  137OSM    C1214786   0.430   3.878   2.129 -0.6711  0.1941 -0.4026
  137OSM   H12A14787   0.347   3.842   2.188 -0.6604  1.0670  0.1607
  137OSM   H12B14788   0.415   3.844   2.028 -0.6283  1.9863 -1.0398
  137OSM    C1114789   0.421   4.036   2.129 -0.5213 -0.1365  0.0664
  137OSM   H11A14790   0.318   4.071   2.108 -0.6973 -2.0920 -2.5645
  137OSM   H11B14791   0.482   4.062   2.040 -1.0941 -1.8312 -0.8294
  137OSM      P14792   0.472   4.250   2.272  0.0474  0.0875  0.0632
  137OSM    O1314793   0.534   4.315   2.154  0.2466  0.5134  0.4103
  137OSM    O1414794   0.330   4.285   2.303 -0.4632 -0.6720 -0.2839
  137OSM    O1114795   0.566   4.268   2.392  0.3957 -0.2919 -0.1989
  137OSM    O1214796   0.477   4.088   2.254  0.6655  0.4187  0.8046
  137OSM    C1S14797   0.684   4.185   2.407  0.2096 -0.5710 -0.4782
  137OSM    H1S14798   0.753   4.179   2.321  1.0031  1.5222 -0.0205
  137OSM    H1T14799   0.660   4.083   2.444 -0.5485  1.0008  3.6532
  137OSM     NF14800   0.895   4.189   2.558  0.1582 -0.0934  0.3044
  137OSM    HNF14801   0.887   4.112   2.620  2.2645 -1.1746 -0.7207
  137OSM    C2S14802   0.769   4.254   2.523 -0.0218  0.1911 -0.7060
  137OSM    H2S14803   0.810   4.352   2.489  0.6641  0.1627  0.0126
  137OSM    C3S14804   0.685   4.276   2.650  0.3152 -0.8021 -0.0291
  137OSM    H3S14805   0.658   4.177   2.694  3.8264 -1.4365  0.8361
  137OSM     O314806   0.561   4.343   2.627  1.1704  0.4033  0.5075
  137OSM    HO314807   0.556   4.333   2.532 -0.1739  1.0230  0.5071
  137OSM    C4S14808   0.758   4.357   2.751  0.9669  0.6536  0.2748
  137OSM    H4S14809   0.751   4.464   2.727  0.3050  0.6685  0.5257
  137OSM    C5S14810   0.820   4.312   2.868 -0.6738 -0.0062 -0.0278
  137OSM    H5S14811   0.830   4.204   2.887 -0.0283  0.3268  1.6478
  137OSM    C6S14812   0.902   4.403   2.962 -0.4397  0.5238 -0.5378
  137OSM    H6S14813   0.870   4.398   3.069  0.8613 -0.9072 -0.2148
  137OSM    H6T14814   0.889   4.509   2.930 -1.0704  0.9776  1.1670
  137OSM    C7S14815   1.057   4.369   2.961 -0.9095  0.2852 -0.6483
  137OSM    H7S14816   1.118   4.457   2.991  0.7642 -1.1701  0.2866
  137OSM    H7T14817   1.081   4.343   2.856 -1.2024 -2.1561 -0.1304
  137OSM    C8S14818   1.087   4.251   3.047  1.1206 -0.4792  0.2342
  137OSM    H8S14819   1.191   4.218   3.026  1.0736  0.5198 -1.6548
  137OSM    H8T14820   1.006   4.176   3.036 -0.7349  1.6915 -1.4253
  137OSM    C9S14821   1.087   4.280   3.198  0.3585 -0.6715 -0.2238
  137OSM    H9S14822   1.123   4.189   3.252  0.7743 -0.4239 -0.0829
  137OSM    H9T14823   0.985   4.302   3.236  1.1218  0.3803  1.2342
  137OSM   C10S14824   1.192   4.391   3.232 -0.4640 -0.9023 -1.1684
  137OSM   H10S14825   1.153   4.492   3.206  0.6059 -0.2015 -0.1033
  137OSM   H10T14826   1.275   4.372   3.161 -0.1333 -0.1511 -0.9912
  137OSM   C11S14827   1.253   4.376   3.374 -0.1681  0.3818 -0.9817
  137OSM   H11S14828   1.346   4.436   3.377 -1.8332  2.9750  0.4263
  137OSM   H11T14829   1.287   4.271   3.387  0.1718  0.7219  1.0524
  137OSM   C12S14830   1.170   4.417   3.496  0.1533 -0.5970  0.4958
  137OSM   H12S14831   1.072   4.367   3.490 -0.7845  1.0132  1.9130
  137OSM   H12T14832   1.145   4.525   3.503 -0.9061 -0.7414 -0.7372
  137OSM   C13S14833   1.229   4.380   3.629  0.2238  0.0199 -0.2014
  137OSM   H13S14834   1.193   4.445   3.712  1.9891 -0.7818  1.2391
  137OSM   H13T14835   1.337   4.407   3.627  0.3705 -0.5286  0.2296
  137OSM   C14S14836   1.202   4.231   3.662 -0.6196  0.6751 -0.4929
  137OSM   H14S14837   1.186   4.169   3.571 -0.1972  0.8075 -0.6608
  137OSM   H14T14838   1.115   4.239   3.730 -0.0151  3.4178  0.0069
  137OSM   C15S14839   1.315   4.163   3.747 -0.0549  0.1221 -0.3148
  137OSM   H15S14840   1.414   4.172   3.698 -0.0984  1.0818 -0.2336
  137OSM   H15T14841   1.291   4.056   3.766  1.0351  0.1211  1.0960
  137OSM   C16S14842   1.337   4.234   3.882  0.3508  0.4582 -0.7393
  137OSM   H16S14843   1.242   4.219   3.938 -0.7500  1.0485 -2.3959
  137OSM   H16T14844   1.362   4.342   3.874 -0.0448  0.8649  2.8765
  137OSM   C17S14845   1.462   4.171   3.953 -0.2585  0.1721 -0.5721
  137OSM   H17S14846   1.542   4.162   3.876 -0.5634  1.1609 -1.0067
  137OSM   H17T14847   1.434   4.069   3.989  1.6926  0.3470  1.5452
  137OSM   C18S14848   1.515   4.255   4.071  0.2332 -0.4341 -1.0118
  137OSM   H18S14849   1.433   4.267   4.145 -0.5565  2.4983 -2.2858
  137OSM   H18T14850   1.560   4.356   4.058 -1.0657  0.1546 -0.9399
  137OSM   H18U14851   1.598   4.206   4.127 -0.5144 -1.7294 -1.0310
  137OSM    C1F14852   1.001   4.189   2.468 -0.1058  0.2419 -0.2825
  137OSM     OF14853   1.017   4.283   2.395  0.0857  0.0237  0.1842
  137OSM    C2F14854   1.078   4.065   2.463  0.2757  0.7870  0.4454
  137OSM    H2F14855   1.072   4.024   2.359 -2.0139  0.0860  0.8254
  137OSM    H2G14856   1.046   3.984   2.532 -3.2539  1.3916 -0.3981
  137OSM    C3F14857   1.229   4.082   2.501 -0.8803  0.4966 -0.4307
  137OSM    H3F14858   1.269   4.169   2.446  1.9167 -0.8345 -0.6007
  137OSM    H3G14859   1.285   3.994   2.461 -1.9398 -1.9337  3.1265
  137OSM    C4F14860   1.258   4.100   2.651  0.7035  0.2036  0.2126
  137OSM    H4F14861   1.194   4.179   2.695 -1.2247 -0.3199 -1.5708
  137OSM    H4G14862   1.361   4.136   2.671  0.1617  0.7040  2.2435
  137OSM    C5F14863   1.242   3.971   2.736  0.2439 -0.1616  0.0424
  137OSM    H5F14864   1.252   3.884   2.667  1.7303 -0.0393  0.0877
  137OSM    H5G14865   1.143   3.973   2.787  1.2618  0.9999  2.0195
  137OSM    C6F14866   1.348   3.965   2.849  0.2573  0.1688  0.3796
  137OSM    H6F14867   1.321   4.036   2.931 -2.2037  1.0892 -1.1794
  137OSM    H6G14868   1.451   3.989   2.815  0.8286 -1.1465  1.1484
  137OSM    C7F14869   1.360   3.822   2.902  0.5543 -0.0865  0.1130
  137OSM    H7F14870   1.465   3.810   2.936  1.7314  0.4126 -3.1321
  137OSM    H7G14871   1.344   3.757   2.813  0.7584 -1.2953  0.9498
  137OSM    C8F14872   1.260   3.792   3.013  1.0142  0.2173 -0.9307
  137OSM    H8F14873   1.159   3.820   2.975  0.4612 -0.2025  0.2335
  137OSM    H8G14874   1.282   3.854   3.102 -2.4358  1.0847 -0.6072
  137OSM    C9F14875   1.258   3.640   3.051  0.1973 -0.1271 -0.7695
  137OSM    H9F14876   1.191   3.571   2.998  1.3302  0.2611 -2.7547
  137OSM   C10F14877   1.335   3.592   3.151 -0.2726 -0.3483  0.0168
  137OSM   H10F14878   1.341   3.485   3.178  0.3027 -0.3789 -0.2156
  137OSM   C11F14879   1.431   3.668   3.239  1.5127  0.2856 -0.0548
  137OSM   H11F14880   1.463   3.762   3.189 -0.0642  1.0139  0.2856
  137OSM   H11G14881   1.528   3.622   3.267  2.1744  1.6764 -0.0340
  137OSM   C12F14882   1.373   3.695   3.381  0.3761 -0.1866  0.3318
  137OSM   H12F14883   1.341   3.602   3.433  1.5888 -0.5031  0.5392
  137OSM   H12G14884   1.277   3.751   3.371 -0.1821 -1.7257 -3.7718
  137OSM   C13F14885   1.468   3.770   3.470 -0.4939 -0.8470  0.0562
  137OSM   H13F14886   1.449   3.877   3.448 -1.4516 -0.8169  1.0176
  137OSM   H13G14887   1.577   3.762   3.450 -0.1609  0.8911  1.1153
  137OSM   C14F14888   1.457   3.745   3.626 -0.0501 -0.1248 -0.0725
  137OSM   H14F14889   1.367   3.683   3.644  0.5970 -0.8460  0.6941
  137OSM   H14G14890   1.447   3.847   3.669 -1.2843  0.7797 -2.4008
  137OSM   C15F14891   1.573   3.674   3.688  0.6572 -0.1254  0.4365
  137OSM   H15F14892   1.660   3.735   3.656  0.2532 -0.8699 -2.1385
  137OSM   H15G14893   1.578   3.579   3.631  0.0546  0.5632 -0.7880
  137OSM   C16F14894   1.568   3.633   3.838 -0.3094  0.1947  0.1328
  137OSM   H16F14895   1.667   3.587   3.857  0.1382  0.8454 -0.5656
  137OSM   H16G14896   1.493   3.552   3.849  1.6857 -2.0103 -1.9201
  137OSM   C17F14897   1.541   3.741   3.940  0.1006  0.2804 -0.1496
  137OSM   H17F14898   1.445   3.793   3.919 -0.3032 -0.2445  0.3908
  137OSM   H17G14899   1.612   3.824   3.918  2.2952 -1.2903  0.7775
  137OSM   C18F14900   1.544   3.693   4.087 -0.3022  0.1708  0.1330
  137OSM   H18F14901   1.466   3.615   4.096  0.9154 -1.0752  0.0685
  137OSM   H18G14902   1.525   3.783   4.149 -2.2642  0.2383 -0.5496
  137OSM   H18H14903   1.639   3.638   4.105 -0.5398 -0.6148 -0.9787
  138OSM      N14904   6.853   1.305   2.138  0.1135  0.0328 -0.2513
  138OSM    C1514905   6.792   1.299   2.272  0.0173  0.7360 -0.5469
  138OSM   H15A14906   6.737   1.209   2.295 -0.4774  0.6269 -2.0635
  138OSM   H15B14907   6.715   1.374   2.275 -0.8778 -0.1769 -0.3807
  138OSM   H15C14908   6.874   1.315   2.340  0.7785  0.7204 -1.4536
  138OSM    C1414909   6.932   1.430   2.119  0.3099 -0.2958 -0.1214
  138OSM   H14A14910   6.860   1.510   2.123  0.2001 -0.2489 -2.2324
  138OSM   H14B14911   6.980   1.436   2.023 -0.6288  0.0450 -0.5788
  138OSM   H14C14912   7.011   1.450   2.190  0.3994 -0.7622 -0.0850
  138OSM    C1314913   6.941   1.183   2.101 -0.0256 -0.0292  0.5416
  138OSM   H13A14914   6.898   1.086   2.121 -0.6461  0.4437  1.5634
  138OSM   H13B14915   7.028   1.183   2.166 -0.0838 -0.0879  0.6195
  138OSM   H13C14916   6.968   1.195   1.997 -0.3478  2.8094  0.7247
  138OSM    C1214917   6.735   1.305   2.036  0.2144 -0.8226 -0.3804
  138OSM   H12A14918   6.699   1.204   2.047  0.8234 -0.8381  1.7972
  138OSM   H12B14919   6.776   1.321   1.938 -0.2045 -1.7803 -0.7182
  138OSM    C1114920   6.621   1.411   2.055  0.3744  0.5038 -0.1270
  138OSM   H11A14921   6.556   1.393   2.143  0.5464  1.2139  0.1513
  138OSM   H11B14922   6.562   1.404   1.961 -1.1507 -0.1660  0.8601
  138OSM      P14923   6.571   1.673   2.058 -0.7344 -0.0941  0.0407
  138OSM    O1314924   6.656   1.789   2.039  0.2462 -0.3394 -0.3653
  138OSM    O1414925   6.474   1.652   1.955  0.2737  0.1713 -0.3205
  138OSM    O1114926   6.507   1.678   2.204  0.1898 -0.5698  0.2813
  138OSM    O1214927   6.668   1.543   2.060 -0.4951 -0.4260  0.1678
  138OSM    C1S14928   6.594   1.665   2.318 -0.8479 -0.0958  0.2449
  138OSM    H1S14929   6.660   1.754   2.318 -2.2848  0.9777  0.3799
  138OSM    H1T14930   6.662   1.577   2.308 -2.7680 -1.7979  1.8207
  138OSM     NF14931   6.459   1.535   2.472  0.3114  0.6431  0.8313
  138OSM    HNF14932   6.364   1.521   2.444  0.4782  2.7817 -0.8720
  138OSM    C2S14933   6.514   1.663   2.453  0.3477 -0.1772  0.3167
  138OSM    H2S14934   6.571   1.682   2.546 -2.0719 -0.2607  1.8536
  138OSM    C3S14935   6.397   1.764   2.454  0.8836  0.7418  0.3690
  138OSM    H3S14936   6.319   1.745   2.377  0.8314  0.8936  0.3830
  138OSM     O314937   6.430   1.902   2.423  0.1070  0.0269 -0.1978
  138OSM    HO314938   6.523   1.892   2.402  0.1958  0.2210  0.0977
  138OSM    C4S14939   6.339   1.765   2.595 -0.5855 -0.0371 -0.0234
  138OSM    H4S14940   6.401   1.819   2.668 -0.4118 -0.8491  0.4310
  138OSM    C5S14941   6.226   1.716   2.647  0.0758 -0.0879  0.6080
  138OSM    H5S14942   6.157   1.660   2.582  2.6396 -3.2254  0.5204
  138OSM    C6S14943   6.187   1.726   2.797  0.0264 -0.4000  0.4253
  138OSM    H6S14944   6.080   1.699   2.810  0.3714 -2.2320 -0.4546
  138OSM    H6T14945   6.201   1.830   2.834 -0.4867 -0.4359  0.7294
  138OSM    C7S14946   6.273   1.640   2.890 -0.0816  0.3733 -1.1506
  138OSM    H7S14947   6.381   1.660   2.872 -0.1150 -0.0859 -1.8871
  138OSM    H7T14948   6.260   1.531   2.872  0.3033  0.5847 -2.7993
  138OSM    C8S14949   6.255   1.682   3.039 -0.6906 -0.0564  0.1890
  138OSM    H8S14950   6.148   1.689   3.071 -0.5251  1.2474  0.4686
  138OSM    H8T14951   6.306   1.776   3.066  0.7569 -1.2170  1.5394
  138OSM    C9S14952   6.303   1.562   3.125 -0.3457  0.0347  0.3120
  138OSM    H9S14953   6.408   1.536   3.100  0.3908  2.6037  0.6147
  138OSM    H9T14954   6.253   1.467   3.098  0.2343 -0.1606 -0.0919
  138OSM   C10S14955   6.278   1.585   3.271 -0.0463  0.1260 -0.4364
  138OSM   H10S14956   6.174   1.614   3.297  0.4459  1.6047 -0.0543
  138OSM   H10T14957   6.325   1.681   3.301 -2.5304  1.8436 -1.8329
  138OSM   C11S14958   6.323   1.465   3.354  0.2545 -0.0130  0.2040
  138OSM   H11S14959   6.386   1.496   3.441  0.8964  1.4928 -0.7844
  138OSM   H11T14960   6.393   1.402   3.294 -0.0377 -0.2283  0.0900
  138OSM   C12S14961   6.218   1.372   3.404  0.3340 -0.0383 -0.1309
  138OSM   H12S14962   6.162   1.417   3.489  0.5452  2.0296 -1.0510
  138OSM   H12T14963   6.260   1.281   3.452 -2.2197 -1.1501  0.1133
  138OSM   C13S14964   6.114   1.332   3.302  0.7937  0.1774  0.5777
  138OSM   H13S14965   6.158   1.281   3.213 -2.3698 -0.8014 -0.4993
  138OSM   H13T14966   6.066   1.430   3.279  0.8210  0.4769  1.7669
  138OSM   C14S14967   6.002   1.235   3.357 -0.8408 -0.6655  0.0531
  138OSM   H14S14968   5.939   1.215   3.268  1.9742 -2.7081 -1.5585
  138OSM   H14T14969   5.948   1.272   3.446  0.5324  0.4802  0.4404
  138OSM   C15S14970   6.064   1.092   3.395  0.0234  0.2365 -0.4265
  138OSM   H15S14971   6.148   1.099   3.468 -0.4383 -0.3400  0.1697
  138OSM   H15T14972   6.106   1.055   3.299  1.5296 -2.3963  1.1650
  138OSM   C16S14973   5.964   0.991   3.449  0.1724  0.2737  1.0903
  138OSM   H16S14974   5.927   1.018   3.550 -0.1898  0.2114  0.9759
  138OSM   H16T14975   6.027   0.900   3.461  1.6736  1.1184 -0.2390
  138OSM   C17S14976   5.848   0.981   3.353 -0.1600  0.3807  0.9529
  138OSM   H17S14977   5.885   1.000   3.250 -2.1886  1.9285  0.4701
  138OSM   H17T14978   5.773   1.059   3.378 -1.6705  0.4272 -3.2391
  138OSM   C18S14979   5.765   0.852   3.377  0.5398  0.6193  0.2563
  138OSM   H18S14980   5.667   0.857   3.325 -0.9020 -0.8758  2.7395
  138OSM   H18T14981   5.737   0.852   3.484  1.8687 -1.6422  0.6502
  138OSM   H18U14982   5.814   0.757   3.345  0.2428  0.1489  1.1850
  138OSM    C1F14983   6.542   1.423   2.490 -0.2132 -1.2960 -0.3995
  138OSM     OF14984   6.662   1.427   2.497  0.3670  0.5203  0.4379
  138OSM    C2F14985   6.466   1.288   2.475  0.1776 -0.1533 -0.5984
  138OSM    H2F14986   6.503   1.233   2.386 -1.0215 -0.6727 -0.7712
  138OSM    H2G14987   6.361   1.309   2.446 -0.3531  1.1218  2.1425
  138OSM    C3F14988   6.473   1.185   2.593  0.8680  0.3112  0.0421
  138OSM    H3F14989   6.578   1.160   2.619  1.6876  1.9611 -1.5475
  138OSM    H3G14990   6.412   1.095   2.572  0.2522  1.1412 -1.8186
  138OSM    C4F14991   6.419   1.252   2.720  0.0903  0.6999  0.1746
  138OSM    H4F14992   6.309   1.262   2.727  0.0297  0.1556  0.0022
  138OSM    H4G14993   6.463   1.353   2.733  0.9556  0.6744 -2.2934
  138OSM    C5F14994   6.467   1.171   2.841  0.0751  0.4030  1.3574
  138OSM    H5F14995   6.578   1.165   2.836  0.0267  0.8149 -0.4248
  138OSM    H5G14996   6.423   1.070   2.832  2.7611 -0.7160  0.3726
  138OSM    C6F14997   6.439   1.223   2.983  0.9021 -0.0981 -0.1382
  138OSM    H6F14998   6.356   1.295   2.965  0.7042 -0.3205 -0.1106
  138OSM    H6G14999   6.520   1.280   3.033  1.0639  0.7525 -1.3542
  138OSM    C7F15000   6.395   1.116   3.079  0.1362 -0.2839 -0.2443
  138OSM    H7F15001   6.303   1.073   3.034 -0.3783  1.4746 -0.8883
  138OSM    H7G15002   6.369   1.160   3.177 -0.2801  1.4745 -1.1288
  138OSM    C8F15003   6.508   1.011   3.102 -0.6630  0.3458 -0.6549
  138OSM    H8F15004   6.601   1.058   3.139 -0.1860 -2.0744  1.3369
  138OSM    H8G15005   6.532   0.947   3.014  1.3520 -0.1267  0.2072
  138OSM    C9F15006   6.477   0.903   3.205 -0.5860  0.0965  0.9104
  138OSM    H9F15007   6.454   0.805   3.160 -1.9855  0.9227 -0.1962
  138OSM   C10F15008   6.520   0.910   3.334  0.6847  0.5223  0.5256
  138OSM   H10F15009   6.494   0.825   3.399  0.2853  0.4308  0.2467
  138OSM   C11F15010   6.566   1.037   3.399 -0.1465  0.1680  0.7701
  138OSM   H11F15011   6.586   1.120   3.327 -0.2655  1.2903  2.0106
  138OSM   H11G15012   6.660   1.023   3.456 -0.5334  0.9386  1.6175
  138OSM   C12F15013   6.457   1.089   3.496 -0.5875  0.1324  0.1551
  138OSM   H12F15014   6.369   1.106   3.430 -0.5551 -2.0033 -0.4743
  138OSM   H12G15015   6.485   1.185   3.543  0.6883  0.2584 -0.8512
  138OSM   C13F15016   6.424   0.984   3.595 -0.0872 -0.4212 -0.6827
  138OSM   H13F15017   6.516   0.928   3.624 -0.3761 -0.9376 -0.7441
  138OSM   H13G15018   6.348   0.912   3.558  0.4017 -0.4651 -1.6024
  138OSM   C14F15019   6.364   1.048   3.725 -0.6269  0.1770  0.0562
  138OSM   H14F15020   6.290   1.130   3.708  2.3469  2.7328 -0.9892
  138OSM   H14G15021   6.454   1.095   3.770 -1.4898  3.2042 -1.2442
  138OSM   C15F15022   6.307   0.949   3.829  0.0445 -0.4975 -0.2828
  138OSM   H15F15023   6.377   0.862   3.833 -0.7567 -1.1223  0.2022
  138OSM   H15G15024   6.217   0.909   3.778  0.7235 -0.5325 -1.4944
  138OSM   C16F15025   6.279   1.007   3.967  0.1021  0.1296  0.0268
  138OSM   H16F15026   6.205   1.089   3.963  0.0883  0.1086 -0.1342
  138OSM   H16G15027   6.374   1.053   4.003 -0.6827  1.8269 -0.0579
  138OSM   C17F15028   6.225   0.903   4.066  0.1791 -0.4394 -0.1088
  138OSM   H17F15029   6.296   0.818   4.076 -0.7196 -0.9613  2.1430
  138OSM   H17G15030   6.126   0.866   4.029 -0.5098 -2.1990  3.3289
  138OSM   C18F15031   6.189   0.960   4.206  0.0654 -0.1354  0.0696
  138OSM   H18F15032   6.108   1.037   4.207 -2.0676 -2.3412  1.1001
  138OSM   H18G15033   6.280   1.008   4.249 -0.5859  2.6409 -1.4923
  138OSM   H18H15034   6.162   0.875   4.272  0.2770 -0.5358 -0.3672
  139OSM      N15035   7.202   3.492   2.295 -0.3254 -0.1664  0.4872
  139OSM    C1515036   7.093   3.426   2.372 -0.2559 -0.0660 -0.5307
  139OSM   H15A15037   7.014   3.494   2.399  0.4490 -0.0060  1.4172
  139OSM   H15B15038   7.143   3.385   2.458 -1.6370 -0.9688 -0.1272
  139OSM   H15C15039   7.039   3.353   2.312 -2.7976  0.0297  1.5454
  139OSM    C1415040   7.297   3.387   2.249  0.3946  0.5814  0.3988
  139OSM   H14A15041   7.288   3.314   2.328 -1.3660 -0.4757 -0.7533
  139OSM   H14B15042   7.400   3.416   2.231  2.1811 -3.7066  2.7663
  139OSM   H14C15043   7.257   3.344   2.159  2.3107  3.6941 -2.0405
  139OSM    C1315044   7.161   3.559   2.169 -0.4221  0.5740  0.4472
  139OSM   H13A15045   7.126   3.481   2.103 -0.1499 -0.2264  1.2421
  139OSM   H13B15046   7.251   3.603   2.128  0.9558  0.3239  3.0937
  139OSM   H13C15047   7.076   3.625   2.176 -0.4959  0.6474 -0.9932
  139OSM    C1215048   7.283   3.600   2.373 -0.0634 -0.7393 -0.2504
  139OSM   H12A15049   7.210   3.654   2.431  0.3826 -1.1221  0.6926
  139OSM   H12B15050   7.329   3.671   2.307 -0.1240  0.0838  0.5902
  139OSM    C1115051   7.383   3.553   2.486 -0.5743 -0.1830 -0.1502
  139OSM   H11A15052   7.341   3.481   2.559  0.0595  2.5408  3.0532
  139OSM   H11B15053   7.423   3.640   2.543 -0.2367 -0.2471 -0.2865
  139OSM      P15054   7.619   3.574   2.383  0.4415 -0.1567 -0.3403
  139OSM    O1315055   7.694   3.499   2.286  1.0905  0.3319  0.4863
  139OSM    O1415056   7.570   3.705   2.345  1.0176  0.5215  0.2818
  139OSM    O1115057   7.700   3.583   2.519  0.1489 -0.4726  0.5904
  139OSM    O1215058   7.496   3.481   2.419  0.7899 -0.5151  0.1652
  139OSM    C1S15059   7.694   3.484   2.615 -0.0757  0.3072  0.1825
  139OSM    H1S15060   7.772   3.407   2.594  0.4145  0.5326  1.1522
  139OSM    H1T15061   7.599   3.426   2.623  0.5408 -0.3990  2.7123
  139OSM     NF15062   7.757   3.428   2.838  0.4112  0.3579 -0.0080
  139OSM    HNF15063   7.713   3.340   2.823  0.6969 -0.5248  3.8124
  139OSM    C2S15064   7.724   3.544   2.752  0.1324 -0.0206  0.0058
  139OSM    H2S15065   7.819   3.599   2.733  0.5693 -0.6555  0.3598
  139OSM    C3S15066   7.615   3.644   2.808  0.9612 -0.4573 -0.1795
  139OSM    H3S15067   7.515   3.597   2.807  1.1658 -0.9139  0.4760
  139OSM     O315068   7.603   3.760   2.728 -0.2484  0.1234  0.5525
  139OSM    HO315069   7.657   3.743   2.651  0.6518  1.8031  0.7822
  139OSM    C4S15070   7.652   3.687   2.950  0.0440  0.1983 -0.3450
  139OSM    H4S15071   7.755   3.721   2.965  0.4478 -0.4236 -1.6257
  139OSM    C5S15072   7.573   3.712   3.060 -0.3847 -0.5715  0.3485
  139OSM    H5S15073   7.463   3.710   3.060 -0.4795  2.1246  1.1003
  139OSM    C6S15074   7.627   3.766   3.186  0.5579  0.3972 -0.0270
  139OSM    H6S15075   7.738   3.767   3.179  0.4974  1.7334 -0.9762
  139OSM    H6T15076   7.595   3.715   3.279 -0.7522 -0.6104 -1.0075
  139OSM    C7S15077   7.579   3.916   3.199 -0.1028 -0.1086 -0.6868
  139OSM    H7S15078   7.615   3.948   3.300  2.6327 -1.2364 -1.2724
  139OSM    H7T15079   7.468   3.923   3.203 -0.2001 -1.4048 -1.1425
  139OSM    C8S15080   7.628   4.007   3.088  0.6924  0.4179  0.0647
  139OSM    H8S15081   7.580   4.107   3.092  0.7911  0.4588  0.2773
  139OSM    H8T15082   7.609   3.965   2.988 -0.8270  1.2110  0.0027
  139OSM    C9S15083   7.780   4.031   3.089  0.4470 -0.2294  0.0903
  139OSM    H9S15084   7.807   4.099   3.006  0.4098 -0.2568  0.0563
  139OSM    H9T15085   7.844   3.940   3.088 -1.4816 -1.6283  0.6773
  139OSM   C10S15086   7.811   4.129   3.211  0.1175 -0.4002  0.1147
  139OSM   H10S15087   7.789   4.083   3.309 -0.0992 -0.3967  0.0672
  139OSM   H10T15088   7.748   4.220   3.198  1.6224  0.8756  1.4841
  139OSM   C11S15089   7.954   4.185   3.215  1.2943 -0.3040  0.2736
  139OSM   H11S15090   7.968   4.255   3.131 -2.0067  0.6598  0.4668
  139OSM   H11T15091   8.041   4.116   3.213  3.1729  2.0011  0.7513
  139OSM   C12S15092   7.972   4.259   3.349 -0.3415 -0.3365  0.6963
  139OSM   H12S15093   7.885   4.320   3.380  1.0642  2.2848 -0.4361
  139OSM   H12T15094   8.050   4.328   3.312 -2.5236  1.1212 -1.2999
  139OSM   C13S15095   8.030   4.167   3.458 -0.0588  0.4398  0.4817
  139OSM   H13S15096   8.127   4.127   3.419 -0.9230 -2.4055  1.1077
  139OSM   H13T15097   7.965   4.078   3.472 -0.8190  0.4527 -2.6339
  139OSM   C14S15098   8.037   4.232   3.597 -0.2892  0.0469  0.2615
  139OSM   H14S15099   7.933   4.256   3.628 -0.1282  2.4982 -1.0379
  139OSM   H14T15100   8.102   4.322   3.593  0.8351 -0.7704 -0.0713
  139OSM   C15S15101   8.105   4.134   3.709  0.3396 -0.1423  1.0318
  139OSM   H15S15102   8.213   4.126   3.684  0.3431  2.8155 -0.0659
  139OSM   H15T15103   8.054   4.036   3.697  0.7730 -0.1564 -0.8181
  139OSM   C16S15104   8.081   4.183   3.848 -0.2858 -0.3566  0.4280
  139OSM   H16S15105   7.986   4.238   3.861  0.8842  2.0446 -0.8189
  139OSM   H16T15106   8.151   4.267   3.872  0.1167  0.1374 -2.3207
  139OSM   C17S15107   8.099   4.073   3.954  0.1595 -0.1247 -0.9137
  139OSM   H17S15108   8.002   4.020   3.968  0.2151  0.1835  0.8297
  139OSM   H17T15109   8.112   4.126   4.051  1.5086  0.0689 -1.1948
  139OSM   C18S15110   8.215   3.971   3.941  0.3198  0.2672  0.7616
  139OSM   H18S15111   8.222   3.942   3.834 -2.0057  2.7532 -0.0950
  139OSM   H18T15112   8.205   3.882   4.007  1.8173  0.7308  1.6599
  139OSM   H18U15113   8.311   4.014   3.979  2.1375 -0.1823 -3.0901
  139OSM    C1F15114   7.848   3.441   2.938  0.8574  0.4211 -0.7071
  139OSM     OF15115   7.930   3.530   2.943 -0.0565  0.5553  0.1095
  139OSM    C2F15116   7.841   3.334   3.049 -0.2226 -0.6379  0.3714
  139OSM    H2F15117   7.942   3.287   3.045 -0.1749 -0.3598 -1.9026
  139OSM    H2G15118   7.763   3.260   3.024 -2.2734  1.1267  1.3200
  139OSM    C3F15119   7.797   3.389   3.193 -0.3204  0.0928 -0.3136
  139OSM    H3F15120   7.699   3.437   3.176 -1.0166 -1.2784 -0.2631
  139OSM    H3G15121   7.871   3.464   3.230 -0.3938  0.7007 -1.3780
  139OSM    C4F15122   7.794   3.276   3.298  0.3437  0.3814 -0.2396
  139OSM    H4F15123   7.736   3.195   3.248  1.3872 -1.4466  1.4159
  139OSM    H4G15124   7.731   3.305   3.386 -1.6354  2.2152 -2.1973
  139OSM    C5F15125   7.931   3.216   3.348  0.1579  0.1063  0.2399
  139OSM    H5F15126   8.004   3.297   3.371  0.3124  0.2165 -0.6114
  139OSM    H5G15127   7.968   3.157   3.261 -0.1622  0.0247  0.1576
  139OSM    C6F15128   7.915   3.107   3.461 -0.0245 -0.4799 -0.5207
  139OSM    H6F15129   7.894   3.021   3.394 -0.2576 -1.4981  0.8351
  139OSM    H6G15130   7.822   3.125   3.519  0.0406  1.5592 -1.0217
  139OSM    C7F15131   8.039   3.095   3.547  1.0262 -0.0704 -0.3305
  139OSM    H7F15132   8.138   3.095   3.497  1.7237  0.2898  1.0076
  139OSM    H7G15133   8.033   2.993   3.591 -1.5545  0.5118  0.7021
  139OSM    C8F15134   8.039   3.208   3.651 -0.3646 -0.1934 -0.2088
  139OSM    H8F15135   7.941   3.199   3.702  0.9476 -1.2206  2.2230
  139OSM    H8G15136   8.032   3.310   3.608 -2.1259 -1.1597 -2.2578
  139OSM    C9F15137   8.161   3.201   3.738  0.3959  0.1223  0.5268
  139OSM    H9F15138   8.259   3.215   3.691  1.0091 -3.0422  0.7795
  139OSM   C10F15139   8.167   3.165   3.869 -1.0056 -0.6810  0.3280
  139OSM   H10F15140   8.266   3.167   3.918 -1.0046  1.9003  0.2894
  139OSM   C11F15141   8.062   3.130   3.960 -0.1876 -0.3030 -0.1190
  139OSM   H11F15142   8.087   3.031   4.004  1.8397  0.4366  0.4659
  139OSM   H11G15143   7.972   3.112   3.897  0.3670 -2.5942 -0.2919
  139OSM   C12F15144   8.039   3.225   4.081 -0.4379  0.4430 -0.4063
  139OSM   H12F15145   8.134   3.268   4.117 -0.6678  0.1963  0.4950
  139OSM   H12G15146   7.983   3.171   4.160  0.6164  0.0755  0.1000
  139OSM   C13F15147   7.958   3.349   4.040 -0.1717 -0.2896 -0.5424
  139OSM   H13F15148   7.857   3.314   4.010 -1.1946  2.2846 -0.2220
  139OSM   H13G15149   8.002   3.403   3.954 -0.2215 -0.7740 -0.8748
  139OSM   C14F15150   7.955   3.455   4.150  0.3682 -0.4935  0.5479
  139OSM   H14F15151   8.049   3.472   4.208  0.6727  0.4167 -0.1913
  139OSM   H14G15152   7.888   3.424   4.233  0.2133 -1.9188 -0.0977
  139OSM   C15F15153   7.907   3.591   4.085 -0.4820  0.3308  0.4583
  139OSM   H15F15154   7.822   3.564   4.020  0.4045 -1.0600 -0.1727
  139OSM   H15G15155   7.988   3.608   4.012 -1.1319 -0.1716 -0.3819
  139OSM   C16F15156   7.890   3.708   4.179 -0.2768  0.6589 -0.4782
  139OSM   H16F15157   7.983   3.755   4.216  1.3392 -1.3578 -1.8468
  139OSM   H16G15158   7.830   3.671   4.265 -0.8259 -0.7187 -1.4283
  139OSM   C17F15159   7.801   3.807   4.116 -0.3260 -0.2026 -0.7854
  139OSM   H17F15160   7.727   3.749   4.056 -0.6486 -1.9892  1.2681
  139OSM   H17G15161   7.843   3.884   4.048  0.8396 -0.1039  0.0378
  139OSM   C18F15162   7.728   3.900   4.225  0.4991 -0.4838 -0.5422
  139OSM   H18F15163   7.804   3.960   4.280  1.8502 -0.3358 -2.5287
  139OSM   H18G15164   7.654   3.849   4.290  0.5463 -0.9693 -0.8700
  139OSM   H18H15165   7.659   3.971   4.176 -1.7786 -2.8659 -0.8904
  140OSM      N15166   0.123   1.695   1.940  0.6864  0.3312  0.0554
  140OSM    C1515167   0.120   1.571   1.851 -0.2695 -0.0409  0.3514
  140OSM   H15A15168   0.208   1.510   1.864  0.1165  0.8398  1.9452
  140OSM   H15B15169   0.122   1.614   1.752  1.6128 -0.0296  0.3784
  140OSM   H15C15170   0.029   1.518   1.876 -0.8789  0.4772 -0.7412
  140OSM    C1415171   0.248   1.779   1.910  0.4593 -0.0414 -0.6252
  140OSM   H14A15172   0.240   1.883   1.936  1.6951  0.0080 -0.3826
  140OSM   H14B15173   0.242   1.797   1.804 -0.7238 -0.0394 -0.5594
  140OSM   H14C15174   0.345   1.743   1.944  1.1862  2.7611  0.3652
  140OSM    C1315175   0.002   1.779   1.906  0.3702  0.2027  0.8135
  140OSM   H13A15176  -0.025   1.791   1.802 -0.6886 -0.1960  1.0383
  140OSM   H13B15177   0.001   1.874   1.957  0.5268  1.9291 -2.2574
  140OSM   H13C15178  -0.081   1.736   1.960  1.7940 -1.3324  1.8013
  140OSM    C1215179   0.123   1.660   2.089 -0.2257 -0.1710  0.3234
  140OSM   H12A15180   0.147   1.749   2.146 -1.0024  1.0096 -1.1374
  140OSM   H12B15181   0.201   1.588   2.108  0.1099 -0.0875 -0.6867
  140OSM    C1115182  -0.004   1.601   2.155 -0.1821 -0.4822  1.0008
  140OSM   H11A15183   0.025   1.569   2.258 -2.1316 -0.9690  1.4255
  140OSM   H11B15184  -0.026   1.509   2.098 -1.9528 -0.6000  1.8513
  140OSM      P15185  -0.122   1.810   2.258 -0.0852 -0.0912  0.1734
  140OSM    O1315186   0.013   1.864   2.289  0.4102  0.1385 -0.1645
  140OSM    O1415187  -0.221   1.910   2.216  0.2677 -0.0124  1.0093
  140OSM    O1115188  -0.175   1.742   2.388 -0.1506 -0.8596  0.4768
  140OSM    O1215189  -0.113   1.692   2.149 -0.9039 -0.0639 -0.0342
  140OSM    C1S15190  -0.232   1.617   2.390 -0.1380  0.4907 -0.2552
  140OSM    H1S15191  -0.152   1.544   2.364 -0.2756  0.9489 -2.0219
  140OSM    H1T15192  -0.315   1.617   2.317  1.3169  0.9233 -1.9465
  140OSM     NF15193  -0.339   1.455   2.538  0.1322 -0.0919  0.4377
  140OSM    HNF15194  -0.439   1.444   2.539  0.1867 -0.5620  1.1905
  140OSM    C2S15195  -0.284   1.582   2.536 -0.1983 -0.3176  0.1381
  140OSM    H2S15196  -0.194   1.578   2.600 -2.0471 -2.7633  2.7118
  140OSM    C3S15197  -0.383   1.691   2.583 -0.4609  0.0612  0.0762
  140OSM    H3S15198  -0.473   1.689   2.518 -1.4015 -0.3067  1.3875
  140OSM     O315199  -0.330   1.819   2.589  0.2440 -0.2850  0.4228
  140OSM    HO315200  -0.249   1.806   2.539  0.0897  1.4017 -0.3355
  140OSM    C4S15201  -0.435   1.657   2.726  0.0446  0.0190 -0.1055
  140OSM    H4S15202  -0.362   1.666   2.808 -0.4429  0.3116  0.2987
  140OSM    C5S15203  -0.556   1.610   2.757 -0.6554 -0.0682 -0.3097
  140OSM    H5S15204  -0.635   1.597   2.681  0.5071  0.1911 -1.5934
  140OSM    C6S15205  -0.598   1.581   2.901  0.5969 -0.2383 -0.3791
  140OSM    H6S15206  -0.653   1.485   2.901 -0.3413  0.2677  1.5098
  140OSM    H6T15207  -0.663   1.666   2.932 -1.4804 -1.3400 -1.6373
  140OSM    C7S15208  -0.504   1.558   3.023 -0.2196 -0.1678  0.3652
  140OSM    H7S15209  -0.433   1.642   3.036 -2.0439  1.0194  3.0216
  140OSM    H7T15210  -0.438   1.475   2.987 -1.6762 -1.2353  0.1226
  140OSM    C8S15211  -0.583   1.529   3.160  0.5683 -1.2345  0.8800
  140OSM    H8S15212  -0.627   1.428   3.143 -0.9241 -0.4708  0.0329
  140OSM    H8T15213  -0.665   1.601   3.179 -2.7217 -4.6934  0.5326
  140OSM    C9S15214  -0.489   1.533   3.288 -0.3308  0.6125 -0.3309
  140OSM    H9S15215  -0.450   1.636   3.293 -0.4446  0.5631  2.3394
  140OSM    H9T15216  -0.405   1.460   3.283  1.2306  2.1196  2.5972
  140OSM   C10S15217  -0.570   1.491   3.414 -0.5118 -0.9493 -0.3015
  140OSM   H10S15218  -0.596   1.384   3.399 -0.5862 -1.0446  0.4999
  140OSM   H10T15219  -0.666   1.547   3.407  0.3056  0.5785  0.4658
  140OSM   C11S15220  -0.492   1.508   3.537 -0.5815  0.5106 -0.4436
  140OSM   H11S15221  -0.399   1.447   3.532 -1.7964 -1.3844 -0.2528
  140OSM   H11T15222  -0.541   1.471   3.630 -0.4119  1.9191  0.2201
  140OSM   C12S15223  -0.437   1.651   3.559 -0.2125  0.2840 -1.1456
  140OSM   H12S15224  -0.514   1.731   3.546 -0.8022 -0.5014 -2.6365
  140OSM   H12T15225  -0.351   1.669   3.491  1.6149 -2.8081  0.2406
  140OSM   C13S15226  -0.381   1.671   3.706 -0.2167  0.1765 -0.3579
  140OSM   H13S15227  -0.296   1.601   3.721  1.2498  1.0238 -3.9686
  140OSM   H13T15228  -0.456   1.641   3.782 -1.4247  0.9278 -1.2415
  140OSM   C14S15229  -0.328   1.813   3.745  0.0179 -0.0258 -0.0018
  140OSM   H14S15230  -0.382   1.898   3.697 -1.0924 -1.2000 -0.8578
  140OSM   H14T15231  -0.222   1.830   3.716  0.3217  2.2140  2.2293
  140OSM   C15S15232  -0.309   1.844   3.897  0.0345  0.2290  0.1690
  140OSM   H15S15233  -0.262   1.751   3.937  2.8758  1.2672 -0.6746
  140OSM   H15T15234  -0.409   1.850   3.945 -1.2038 -2.1854 -1.9520
  140OSM   C16S15235  -0.210   1.965   3.919 -0.0514  0.0957  0.3942
  140OSM   H16S15236  -0.246   2.056   3.867  1.1345 -0.0966 -0.7967
  140OSM   H16T15237  -0.108   1.945   3.879 -0.1844 -1.9532  1.0061
  140OSM   C17S15238  -0.189   1.991   4.071 -0.1101  0.1748  0.4161
  140OSM   H17S15239  -0.113   2.067   4.098  0.8944 -0.3189 -0.9416
  140OSM   H17T15240  -0.157   1.889   4.103 -0.3044  0.4066  1.3501
  140OSM   C18S15241  -0.313   2.018   4.153  0.6564  0.1435  0.3065
  140OSM   H18S15242  -0.400   1.970   4.103  0.5390 -0.3292  0.9578
  140OSM   H18T15243  -0.330   2.126   4.169  0.6497 -0.1435  2.3881
  140OSM   H18U15244  -0.314   1.967   4.252  0.4678 -0.5832 -0.0611
  140OSM    C1F15245  -0.271   1.342   2.534  0.4151  0.8837 -0.2173
  140OSM     OF15246  -0.148   1.341   2.513  0.4370  0.0737 -0.5709
  140OSM    C2F15247  -0.349   1.217   2.571 -0.3129  0.0397  0.7751
  140OSM    H2F15248  -0.345   1.143   2.488  0.7910  0.2705  0.6130
  140OSM    H2G15249  -0.454   1.251   2.585 -0.2129  0.9659 -0.6612
  140OSM    C3F15250  -0.288   1.147   2.698  0.0184 -0.8423  0.3695
  140OSM    H3F15251  -0.179   1.126   2.688  0.1322  0.7449 -2.1672
  140OSM    H3G15252  -0.320   1.040   2.695  3.5660 -1.9742  0.5896
  140OSM    C4F15253  -0.332   1.218   2.829  0.1317 -0.2387  0.9771
  140OSM    H4F15254  -0.442   1.228   2.844 -0.2455 -0.1403 -1.6105
  140OSM    H4G15255  -0.291   1.321   2.831  1.4701 -0.7416  0.3200
  140OSM    C5F15256  -0.273   1.140   2.951  0.8826 -0.3902  0.3618
  140OSM    H5F15257  -0.165   1.167   2.957  1.5857 -2.7492 -0.8710
  140OSM    H5G15258  -0.289   1.031   2.941  2.9696 -0.4698 -2.6835
  140OSM    C6F15259  -0.331   1.182   3.084  0.3212  0.1494  0.5400
  140OSM    H6F15260  -0.440   1.165   3.072 -0.1136  2.9550  0.2589
  140OSM    H6G15261  -0.335   1.292   3.096  0.4097  0.1426  0.6300
  140OSM    C7F15262  -0.270   1.102   3.202  0.0099 -0.2159 -0.2467
  140OSM    H7F15263  -0.160   1.112   3.197 -0.1836  2.7694  0.6053
  140OSM    H7G15264  -0.281   0.992   3.195 -1.0259 -0.2072  1.1456
  140OSM    C8F15265  -0.322   1.144   3.336 -0.2451  0.6038  0.0473
  140OSM    H8F15266  -0.433   1.138   3.329 -0.0095 -1.0376 -3.7138
  140OSM    H8G15267  -0.298   1.251   3.351  1.1800  0.3212 -0.1567
  140OSM    C9F15268  -0.268   1.050   3.438  0.1063 -0.4724  0.0849
  140OSM    H9F15269  -0.233   0.954   3.398 -0.8711 -0.1197 -1.6728
  140OSM   C10F15270  -0.280   1.056   3.574  0.1509  0.5085 -0.3718
  140OSM   H10F15271  -0.224   0.986   3.638 -1.4018 -0.7035 -0.3068
  140OSM   C11F15272  -0.350   1.160   3.659  0.2881 -0.0623 -0.0913
  140OSM   H11F15273  -0.461   1.157   3.656  0.2976 -0.3844 -0.1033
  140OSM   H11G15274  -0.327   1.261   3.620 -1.3506  0.0091 -0.9330
  140OSM   C12F15275  -0.321   1.149   3.813 -0.2660 -0.6770 -0.2093
  140OSM   H12F15276  -0.214   1.146   3.844  0.6614  2.3816 -2.8677
  140OSM   H12G15277  -0.369   1.055   3.849 -0.1756 -0.4954  0.3800
  140OSM   C13F15278  -0.386   1.262   3.897 -0.1820  1.1732 -0.0455
  140OSM   H13F15279  -0.497   1.257   3.886 -0.0397 -0.0042 -1.1125
  140OSM   H13G15280  -0.351   1.358   3.854 -0.4289  0.4262 -1.9716
  140OSM   C14F15281  -0.348   1.265   4.039  0.5022  0.1765 -0.4512
  140OSM   H14F15282  -0.238   1.264   4.054  0.6078 -2.1229 -1.1623
  140OSM   H14G15283  -0.384   1.165   4.072 -0.0274  0.3638 -0.4534
  140OSM   C15F15284  -0.422   1.375   4.116 -0.8132  0.3996 -0.1406
  140OSM   H15F15285  -0.414   1.353   4.225 -1.5375  2.9429  0.4789
  140OSM   H15G15286  -0.531   1.363   4.099 -0.6715  1.4578 -1.9441
  140OSM   C16F15287  -0.399   1.523   4.080 -0.2590  0.7846 -0.5525
  140OSM   H16F15288  -0.455   1.532   3.984  2.3545  0.2094 -2.1554
  140OSM   H16G15289  -0.292   1.540   4.060  0.2011 -1.8213 -0.4398
  140OSM   C17F15290  -0.444   1.627   4.186 -0.3612  0.0630  0.0985
  140OSM   H17F15291  -0.420   1.722   4.134  0.9688 -0.1817  0.2500
  140OSM   H17G15292  -0.385   1.618   4.280 -0.7631 -1.2958  0.2229
  140OSM   C18F15293  -0.594   1.608   4.218 -0.1270 -0.1694  0.2302
  140OSM   H18F15294  -0.618   1.690   4.289 -0.5664 -0.4431  0.3992
  140OSM   H18G15295  -0.604   1.506   4.262  0.5482 -0.4174 -0.1822
  140OSM   H18H15296  -0.658   1.625   4.129  1.4457  1.6927 -0.5823
  141OSM      N15297   1.336   6.735   2.280 -0.3399  0.4903  0.0145
  141OSM    C1515298   1.334   6.636   2.168  0.0793 -0.5474  0.2352
  141OSM   H15A15299   1.406   6.556   2.178  1.1448  0.3204 -0.3150
  141OSM   H15B15300   1.348   6.683   2.072  1.3643 -1.4457 -0.0311
  141OSM   H15C15301   1.232   6.601   2.162 -0.9540  2.5650 -1.3698
  141OSM    C1415302   1.284   6.673   2.405  0.6394 -0.0366 -0.1007
  141OSM   H14A15303   1.183   6.639   2.386  0.8360  1.1041 -3.5906
  141OSM   H14B15304   1.265   6.753   2.474  3.4442  0.7052 -0.1510
  141OSM   H14C15305   1.355   6.604   2.448  0.0349  0.7249  2.1783
  141OSM    C1315306   1.479   6.776   2.296  0.0519 -0.1719  0.7546
  141OSM   H13A15307   1.545   6.690   2.298  0.8295  0.4192  0.8887
  141OSM   H13B15308   1.497   6.836   2.384 -0.7532 -0.9616  1.4540
  141OSM   H13C15309   1.512   6.841   2.216  0.3024 -0.3504  0.7101
  141OSM    C1215310   1.249   6.863   2.246  0.6141  0.8768  0.4937
  141OSM   H12A15311   1.282   6.903   2.152 -0.2071  2.1139  0.7337
  141OSM   H12B15312   1.270   6.929   2.329 -0.3657  1.7513  0.0569
  141OSM    C1115313   1.097   6.830   2.232  0.3070  0.4461 -0.0361
  141OSM   H11A15314   1.041   6.924   2.214 -1.4003  0.0204  2.7315
  141OSM   H11B15315   1.061   6.797   2.332  0.1162  2.2811  0.5151
  141OSM      P15316   0.920   6.666   2.119 -0.0105 -0.4279 -0.2043
  141OSM    O1315317   0.834   6.740   2.031  1.0374 -0.0605  0.3141
  141OSM    O1415318   0.945   6.524   2.074  0.5014 -0.1325  0.1502
  141OSM    O1115319   0.856   6.658   2.263 -0.4643 -0.3368 -0.3341
  141OSM    O1215320   1.063   6.734   2.137 -0.1859 -0.4067  0.4226
  141OSM    C1S15321   0.867   6.547   2.342  0.1984 -0.5223  0.7970
  141OSM    H1S15322   0.973   6.517   2.345  0.5345  0.7414  2.7377
  141OSM    H1T15323   0.810   6.463   2.297  1.8306 -0.1549 -2.0642
  141OSM     NF15324   0.877   6.456   2.563 -0.1514 -0.0742 -0.2685
  141OSM    HNF15325   0.816   6.402   2.620  0.2778  0.9925  1.2128
  141OSM    C2S15326   0.830   6.565   2.488  0.4924  0.4833 -0.0437
  141OSM    H2S15327   0.886   6.657   2.516  0.7066  0.1445  0.6454
  141OSM    C3S15328   0.680   6.594   2.499  0.1876  0.1035  1.2110
  141OSM    H3S15329   0.626   6.503   2.466 -0.1899  1.2004 -1.2931
  141OSM     O315330   0.639   6.700   2.411  1.3422 -0.2449 -0.6883
  141OSM    HO315331   0.710   6.691   2.347 -0.7690  1.6022 -3.4386
  141OSM    C4S15332   0.646   6.626   2.635  0.9405 -0.3767  0.0486
  141OSM    H4S15333   0.686   6.724   2.667  0.4673  0.3128 -1.4295
  141OSM    C5S15334   0.572   6.547   2.717  0.1775 -0.1002  0.2338
  141OSM    H5S15335   0.530   6.454   2.676  0.2650  0.0888 -0.2843
  141OSM    C6S15336   0.550   6.575   2.862  0.2040  0.2198  0.2212
  141OSM    H6S15337   0.454   6.631   2.876 -0.0260  0.3074 -1.6638
  141OSM    H6T15338   0.625   6.645   2.905 -0.4459  1.5872 -0.8360
  141OSM    C7S15339   0.546   6.458   2.966 -0.2677  0.7293  0.5588
  141OSM    H7S15340   0.625   6.463   3.044  1.5222 -0.8601 -1.1057
  141OSM    H7T15341   0.564   6.359   2.921 -1.1774  1.3442 -1.1865
  141OSM    C8S15342   0.406   6.446   3.035  0.0241  0.1095 -0.3192
  141OSM    H8S15343   0.323   6.436   2.962 -1.1112 -0.7514  1.0584
  141OSM    H8T15344   0.387   6.544   3.083  0.9134 -0.9950  2.3823
  141OSM    C9S15345   0.396   6.330   3.134  0.2947 -0.3499 -0.6574
  141OSM    H9S15346   0.452   6.237   3.110  0.2140  0.3930 -3.9273
  141OSM    H9T15347   0.288   6.304   3.137  0.4192 -0.7896  0.1984
  141OSM   C10S15348   0.440   6.383   3.276 -0.1409 -0.0166  0.1374
  141OSM   H10S15349   0.358   6.440   3.323 -0.1301  0.5085 -0.4748
  141OSM   H10T15350   0.537   6.437   3.281 -0.0505 -0.3176  1.7957
  141OSM   C11S15351   0.438   6.266   3.373  0.7436 -0.2312 -0.4910
  141OSM   H11S15352   0.521   6.199   3.342  1.3919  1.1978 -1.8919
  141OSM   H11T15353   0.344   6.209   3.358  0.8215 -0.8518  1.2087
  141OSM   C12S15354   0.478   6.304   3.521 -0.6722  0.1307  0.3386
  141OSM   H12S15355   0.394   6.365   3.559 -1.9503 -1.4077  0.0225
  141OSM   H12T15356   0.579   6.348   3.533 -0.3047 -0.4292 -0.6385
  141OSM   C13S15357   0.474   6.178   3.608  0.5551  0.4414  0.3079
  141OSM   H13S15358   0.553   6.101   3.593 -0.4554 -0.8234  1.3105
  141OSM   H13T15359   0.381   6.123   3.582 -0.0123  1.4728  0.1468
  141OSM   C14S15360   0.465   6.205   3.760 -0.0207 -1.0570  0.8756
  141OSM   H14S15361   0.407   6.298   3.772  3.1186  0.7402  2.8380
  141OSM   H14T15362   0.568   6.236   3.788 -0.0112  0.9874 -1.3255
  141OSM   C15S15363   0.400   6.086   3.833  0.2639 -0.1356 -0.0816
  141OSM   H15S15364   0.410   6.106   3.941 -1.6944 -1.9553  0.4695
  141OSM   H15T15365   0.457   5.995   3.804 -1.5949 -1.2623 -0.2755
  141OSM   C16S15366   0.254   6.065   3.801  0.1839 -0.0674 -0.2669
  141OSM   H16S15367   0.226   6.081   3.694  1.0887  2.1732 -0.1911
  141OSM   H16T15368   0.205   6.148   3.855 -1.2916 -1.2462  0.2425
  141OSM   C17S15369   0.195   5.930   3.846  0.1739 -0.1521 -0.3342
  141OSM   H17S15370   0.226   5.915   3.952 -2.1254 -0.7005  0.2762
  141OSM   H17T15371   0.218   5.849   3.774  1.7683 -1.2092  1.3070
  141OSM   C18S15372   0.043   5.935   3.844  0.0549 -0.2161  0.5181
  141OSM   H18S15373   0.012   5.843   3.899 -0.4517  0.1700  0.8857
  141OSM   H18T15374   0.005   5.944   3.740  1.4743  3.3910  0.2448
  141OSM   H18U15375   0.008   6.020   3.906 -0.4368  0.1848 -0.2940
  141OSM    C1F15376   1.002   6.440   2.592  0.0902  0.1519 -0.3391
  141OSM     OF15377   1.088   6.509   2.540  0.0565 -0.1551  0.0570
  141OSM    C2F15378   1.038   6.340   2.703  0.2256  0.1166 -0.2607
  141OSM    H2F15379   1.097   6.266   2.645  1.7363 -0.3491  1.8205
  141OSM    H2G15380   0.941   6.292   2.730 -1.1133  1.8766 -1.7838
  141OSM    C3F15381   1.114   6.412   2.816  0.6614  0.3874 -0.0584
  141OSM    H3F15382   1.211   6.457   2.784  0.6952  0.5939  0.3417
  141OSM    H3G15383   1.141   6.335   2.891  3.2293  0.4408 -0.8542
  141OSM    C4F15384   1.029   6.519   2.886 -0.3591 -0.7355 -0.5794
  141OSM    H4F15385   0.938   6.477   2.933 -0.9685  1.2133  0.0534
  141OSM    H4G15386   0.992   6.584   2.804  1.9782  2.9117  1.1112
  141OSM    C5F15387   1.105   6.593   2.995 -0.4125 -0.1380 -0.5040
  141OSM    H5F15388   1.188   6.652   2.952 -0.7882  1.2762  0.6670
  141OSM    H5G15389   1.155   6.526   3.069  1.1677  0.4024 -1.0627
  141OSM    C6F15390   1.021   6.700   3.071  0.0451 -0.4418 -0.2859
  141OSM    H6F15391   0.992   6.772   2.992  0.4269 -0.1152 -0.1318
  141OSM    H6G15392   1.079   6.758   3.147  1.0452 -0.5243 -0.9743
  141OSM    C7F15393   0.892   6.658   3.147 -0.2421 -0.3661  0.3762
  141OSM    H7F15394   0.823   6.611   3.074 -1.6305 -0.3583  1.6534
  141OSM    H7G15395   0.852   6.755   3.185  1.2872  0.8826 -1.1530
  141OSM    C8F15396   0.920   6.575   3.273  0.1407  0.3772  0.1666
  141OSM    H8F15397   0.915   6.636   3.366  1.6320 -0.4615  0.8148
  141OSM    H8G15398   1.021   6.531   3.274 -0.6511 -1.4676  1.4391
  141OSM    C9F15399   0.819   6.466   3.304 -0.1974  0.3275  0.1595
  141OSM    H9F15400   0.761   6.498   3.392  1.4922 -0.9294  1.7785
  141OSM   C10F15401   0.803   6.342   3.252 -0.2337  0.0861  0.6221
  141OSM   H10F15402   0.723   6.282   3.298 -1.8005  0.2034 -1.8971
  141OSM   C11F15403   0.889   6.268   3.149  0.8117 -0.1738 -0.1856
  141OSM   H11F15404   0.953   6.344   3.098  0.3068 -0.1072 -0.7226
  141OSM   H11G15405   0.814   6.226   3.079  1.7926 -0.3344 -1.1433
  141OSM   C12F15406   0.987   6.168   3.214  0.5335 -0.4343  0.0738
  141OSM   H12F15407   1.038   6.120   3.129  1.3370 -1.2421  0.9993
  141OSM   H12G15408   0.920   6.094   3.263  0.4757 -1.1372 -1.0612
  141OSM   C13F15409   1.097   6.231   3.301 -0.5275 -0.3696 -0.2022
  141OSM   H13F15410   1.053   6.290   3.385 -0.5659  1.8492 -1.7192
  141OSM   H13G15411   1.147   6.301   3.231 -1.4281 -0.3087 -0.7906
  141OSM   C14F15412   1.181   6.115   3.363  0.0791 -0.0304 -0.7064
  141OSM   H14F15413   1.223   6.051   3.283 -3.9157 -1.0595 -2.0958
  141OSM   H14G15414   1.110   6.049   3.418  1.5527 -0.9586  0.0956
  141OSM   C15F15415   1.291   6.155   3.459  0.2783 -0.0664 -0.7345
  141OSM   H15F15416   1.358   6.233   3.417 -1.5769  0.7663 -2.2323
  141OSM   H15G15417   1.349   6.064   3.487  1.5315  1.3386  1.4036
  141OSM   C16F15418   1.238   6.207   3.594 -0.1843  0.2445 -0.2297
  141OSM   H16F15419   1.151   6.142   3.616  0.9072 -1.4313 -0.7270
  141OSM   H16G15420   1.190   6.304   3.569  2.0211  0.9318 -1.9218
  141OSM   C17F15421   1.334   6.211   3.711  0.2908  0.2138 -0.0721
  141OSM   H17F15422   1.280   6.256   3.796 -3.1313  0.2763 -2.1709
  141OSM   H17G15423   1.424   6.271   3.684  0.4913  0.7451  1.7491
  141OSM   C18F15424   1.386   6.079   3.773  0.3600 -0.4071  0.1903
  141OSM   H18F15425   1.443   6.107   3.864  0.9409 -1.9186  0.2945
  141OSM   H18G15426   1.444   6.009   3.709 -1.3507 -2.0251  0.3485
  141OSM   H18H15427   1.296   6.026   3.811 -0.9215  1.8568  0.4310
  142OSM      N15428   0.851   1.521   2.074  0.1559 -0.0282  0.3353
  142OSM    C1515429   0.784   1.429   2.162  1.1505 -0.1798  0.2490
  142OSM   H15A15430   0.683   1.453   2.190  0.4288 -2.1570 -0.5744
  142OSM   H15B15431   0.837   1.414   2.256  0.5122 -1.2283  0.4502
  142OSM   H15C15432   0.785   1.333   2.113  0.3933 -0.7362  1.3012
  142OSM    C1415433   0.784   1.518   1.939  0.6866  0.4276  0.0726
  142OSM   H14A15434   0.784   1.420   1.893  2.5675  0.3072  0.2844
  142OSM   H14B15435   0.835   1.572   1.861  0.0199  1.0394  0.0523
  142OSM   H14C15436   0.687   1.565   1.943 -0.1522 -1.2510 -0.2755
  142OSM    C1315437   0.837   1.656   2.120  0.4179  0.1780  0.1881
  142OSM   H13A15438   0.903   1.729   2.076  0.4237  1.1557  1.7945
  142OSM   H13B15439   0.848   1.666   2.227 -1.6923 -0.3062  0.4759
  142OSM   H13C15440   0.737   1.683   2.092 -0.0009  0.3518  1.7920
  142OSM    C1215441   0.999   1.485   2.050  0.4290  0.0320  0.1097
  142OSM   H12A15442   1.038   1.530   1.960  0.3945  2.2719  1.1932
  142OSM   H12B15443   0.999   1.377   2.039 -2.3286 -0.0001  0.1097
  142OSM    C1115444   1.103   1.507   2.165 -0.6265  0.8238 -0.0489
  142OSM   H11A15445   1.103   1.612   2.203  0.9769  1.0636 -0.6683
  142OSM   H11B15446   1.202   1.491   2.116  0.1121  1.8060  1.0752
  142OSM      P15447   1.141   1.272   2.259  0.1602 -0.7447 -0.0338
  142OSM    O1315448   1.107   1.217   2.127  0.2967  0.2094 -0.3315
  142OSM    O1415449   1.284   1.259   2.301  0.7696 -0.0286 -0.5391
  142OSM    O1115450   1.048   1.198   2.366  0.7649  0.2737  0.3401
  142OSM    O1215451   1.086   1.421   2.275  0.1256 -0.4021  0.1303
  142OSM    C1S15452   1.000   1.063   2.347  0.3436  0.2916 -0.2451
  142OSM    H1S15453   1.085   0.991   2.348  1.9559  2.1407  2.0041
  142OSM    H1T15454   0.952   1.054   2.248  1.0430  0.7806 -0.6364
  142OSM     NF15455   0.899   0.884   2.468 -0.1558  0.1766 -0.0177
  142OSM    HNF15456   0.833   0.838   2.410 -1.5424  2.5515 -0.3856
  142OSM    C2S15457   0.903   1.033   2.459 -0.6087  0.2346 -0.1180
  142OSM    H2S15458   0.936   1.069   2.559  2.3698 -2.3869 -0.0826
  142OSM    C3S15459   0.765   1.097   2.424 -0.3974 -0.9254 -0.6058
  142OSM    H3S15460   0.728   1.065   2.325 -0.4256 -0.9868 -0.5755
  142OSM     O315461   0.766   1.241   2.408 -0.0638 -0.6283  0.3577
  142OSM    HO315462   0.860   1.256   2.396  0.0993 -2.0879 -0.3926
  142OSM    C4S15463   0.671   1.050   2.526  0.5533  0.5809 -0.1084
  142OSM    H4S15464   0.622   0.955   2.499 -0.3152  0.9487  0.1661
  142OSM    C5S15465   0.643   1.105   2.642  0.0001 -0.2879  0.8654
  142OSM    H5S15466   0.693   1.200   2.666  0.3898 -0.2955  0.1024
  142OSM    C6S15467   0.543   1.050   2.737 -0.4178 -0.1099  0.3555
  142OSM    H6S15468   0.502   0.951   2.707 -1.3190  0.1722  0.6301
  142OSM    H6T15469   0.455   1.114   2.761 -1.3940 -1.6786  1.0848
  142OSM    C7S15470   0.608   1.032   2.879 -0.2666  0.3272  0.4515
  142OSM    H7S15471   0.652   1.128   2.914  0.1006  0.5993 -0.7083
  142OSM    H7T15472   0.695   0.965   2.865 -0.8096  0.0550 -1.8829
  142OSM    C8S15473   0.505   0.980   2.984  0.0594  0.3137 -0.3347
  142OSM    H8S15474   0.554   0.962   3.082 -2.1887 -1.7719  0.4680
  142OSM    H8T15475   0.480   0.878   2.948  3.1524 -0.5772 -0.1181
  142OSM    C9S15476   0.389   1.073   3.025 -0.5770 -0.0057  0.2720
  142OSM    H9S15477   0.338   1.035   3.117 -2.1156  0.4339 -0.3961
  142OSM    H9T15478   0.311   1.075   2.947  0.5959 -1.8315 -1.0063
  142OSM   C10S15479   0.430   1.223   3.055 -0.1661  0.5334 -0.0943
  142OSM   H10S15480   0.341   1.286   3.077 -0.7548 -0.2019 -0.3183
  142OSM   H10T15481   0.485   1.264   2.968  0.9306  2.7286  1.5944
  142OSM   C11S15482   0.518   1.244   3.187  0.5382  0.2257  0.0748
  142OSM   H11S15483   0.622   1.205   3.176  0.7282  0.7179  0.1377
  142OSM   H11T15484   0.462   1.187   3.264 -2.0800  1.3089 -0.9867
  142OSM   C12S15485   0.527   1.388   3.219 -0.4181  0.4055  0.2423
  142OSM   H12S15486   0.425   1.430   3.232 -1.0118 -0.9494 -0.0009
  142OSM   H12T15487   0.572   1.446   3.135  1.8835 -1.0474  0.4226
  142OSM   C13S15488   0.602   1.433   3.350 -0.0605  0.5459  0.2359
  142OSM   H13S15489   0.596   1.542   3.370  1.2793  0.7320 -0.3092
  142OSM   H13T15490   0.710   1.411   3.341 -0.1030  0.5579 -0.3596
  142OSM   C14S15491   0.560   1.357   3.483 -0.4832 -0.6821  0.1992
  142OSM   H14S15492   0.574   1.249   3.464 -2.9408 -0.8429 -0.8319
  142OSM   H14T15493   0.455   1.387   3.502 -0.5583  0.0376 -1.3048
  142OSM   C15S15494   0.647   1.403   3.606 -0.1059 -0.2555  0.3342
  142OSM   H15S15495   0.669   1.511   3.599  2.2016 -0.8360 -3.2848
  142OSM   H15T15496   0.748   1.360   3.619  1.3398  2.4927 -1.3249
  142OSM   C16S15497   0.580   1.361   3.738 -0.6696  0.0025 -0.7382
  142OSM   H16S15498   0.559   1.252   3.746 -3.4309  0.4712 -1.1204
  142OSM   H16T15499   0.476   1.402   3.738 -0.7149 -0.1007 -1.6526
  142OSM   C17S15500   0.664   1.393   3.870 -0.6112  0.6795  0.0479
  142OSM   H17S15501   0.761   1.341   3.856 -0.6612 -0.2587  2.7932
  142OSM   H17T15502   0.619   1.336   3.954  0.5252 -0.3618 -0.0370
  142OSM   C18S15503   0.684   1.536   3.886  0.0574 -0.5806 -0.0852
  142OSM   H18S15504   0.579   1.567   3.906 -0.0105 -1.8737  1.6820
  142OSM   H18T15505   0.728   1.597   3.804 -1.0104 -0.3575 -0.4934
  142OSM   H18U15506   0.744   1.563   3.976  1.9438 -2.8147 -0.6125
  142OSM    C1F15507   0.984   0.807   2.530 -0.2373  0.8909 -0.0964
  142OSM     OF15508   1.076   0.856   2.583 -0.6953 -0.4280 -0.4014
  142OSM    C2F15509   0.964   0.656   2.514  0.5041  0.5465 -0.0721
  142OSM    H2F15510   1.010   0.622   2.418  1.3809  2.3070 -0.2975
  142OSM    H2G15511   0.854   0.639   2.513  0.4264  0.6860  2.8107
  142OSM    C3F15512   1.036   0.577   2.625  0.1744 -0.4823  0.1159
  142OSM    H3F15513   1.143   0.602   2.608 -0.0661 -0.3291 -1.2288
  142OSM    H3G15514   1.013   0.475   2.588 -2.5277 -0.5245  1.7630
  142OSM    C4F15515   0.979   0.614   2.765  0.0149 -0.6645 -0.4588
  142OSM    H4F15516   0.869   0.604   2.764 -0.0215 -0.2454 -0.6873
  142OSM    H4G15517   1.007   0.719   2.789  0.5302 -0.6918 -0.9129
  142OSM    C5F15518   1.030   0.522   2.873 -0.4454 -0.4032 -0.4466
  142OSM    H5F15519   1.137   0.505   2.848 -0.8134 -1.8502 -1.0787
  142OSM    H5G15520   0.972   0.427   2.866  0.6469 -1.3257  2.2640
  142OSM    C6F15521   1.034   0.579   3.013  0.3965  0.4523  0.6389
  142OSM    H6F15522   0.936   0.600   3.062  0.8937  1.3769  1.2591
  142OSM    H6G15523   1.080   0.680   3.008  0.0315  0.5302 -1.3910
  142OSM    C7F15524   1.108   0.494   3.114 -0.3538  0.0399 -0.6133
  142OSM    H7F15525   1.216   0.515   3.127 -0.7745  4.3094 -3.1679
  142OSM    H7G15526   1.104   0.392   3.070  0.6104 -0.8112  1.2361
  142OSM    C8F15527   1.065   0.489   3.257 -0.5105 -0.4047 -0.1056
  142OSM    H8F15528   1.125   0.412   3.309  0.2804  0.7948  0.8035
  142OSM    H8G15529   0.957   0.468   3.267  0.4997 -6.2311 -0.1612
  142OSM    C9F15530   1.098   0.628   3.313  0.0213 -0.2719  0.2522
  142OSM    H9F15531   1.029   0.710   3.292 -0.3560 -0.6293  0.0809
  142OSM   C10F15532   1.188   0.650   3.410 -0.0031  0.1594  0.0885
  142OSM   H10F15533   1.207   0.756   3.434  0.8361  0.1189 -0.3643
  142OSM   C11F15534   1.275   0.546   3.471  0.4762 -0.7259 -0.1278
  142OSM   H11F15535   1.384   0.567   3.476  0.8012 -2.6203  1.6424
  142OSM   H11G15536   1.272   0.451   3.413  0.0213 -0.9722  0.3000
  142OSM   C12F15537   1.231   0.503   3.612 -0.9079  0.6641 -0.0603
  142OSM   H12F15538   1.229   0.599   3.668  0.3957  1.4609 -1.3586
  142OSM   H12G15539   1.312   0.447   3.663 -0.0538  1.0809 -0.9482
  142OSM   C13F15540   1.110   0.413   3.623 -0.1598  0.2511  0.5339
  142OSM   H13F15541   1.140   0.320   3.570 -1.2181 -0.9896  2.0781
  142OSM   H13G15542   1.021   0.453   3.570  0.0010  0.5157  0.4647
  142OSM   C14F15543   1.078   0.384   3.767 -0.0946 -0.4352  0.3175
  142OSM   H14F15544   1.174   0.357   3.817  0.8737 -2.1992 -2.4273
  142OSM   H14G15545   1.015   0.294   3.774  1.0834 -1.2877  0.0601
  142OSM   C15F15546   1.000   0.506   3.833 -0.4952  0.0697 -0.0941
  142OSM   H15F15547   0.891   0.498   3.814 -0.4829 -0.3912  0.0417
  142OSM   H15G15548   1.038   0.605   3.800 -1.3744  0.5637  0.3539
  142OSM   C16F15549   1.043   0.502   3.981 -0.4360  0.6025 -0.1250
  142OSM   H16F15550   1.154   0.503   3.982 -0.3760 -1.8824 -1.4347
  142OSM   H16G15551   1.024   0.403   4.027  0.9048  1.2534  1.8941
  142OSM   C17F15552   0.986   0.618   4.058 -0.0999  0.2903 -0.1230
  142OSM   H17F15553   0.879   0.594   4.079  0.0997 -0.6752 -0.1941
  142OSM   H17G15554   0.988   0.712   3.999  2.0222  1.1538  1.3121
  142OSM   C18F15555   1.046   0.630   4.197  0.2705  0.3980 -0.4564
  142OSM   H18F15556   1.152   0.663   4.206  0.6045 -1.1838  1.8321
  142OSM   H18G15557   1.050   0.532   4.248 -2.5490 -0.3520 -1.6088
  142OSM   H18H15558   0.975   0.695   4.252  2.9034  2.6569  0.3830
  143OSM      N15559   0.375   6.483   2.014  0.3877 -0.1480  0.2297
  143OSM    C1515560   0.353   6.518   2.154 -0.6552  0.6138 -0.5624
  143OSM   H15A15561   0.273   6.460   2.199 -0.3042 -1.5179 -2.5949
  143OSM   H15B15562   0.317   6.619   2.153 -0.4114  0.7098 -3.4030
  143OSM   H15C15563   0.443   6.519   2.215 -0.8983 -3.3419  0.0019
  143OSM    C1415564   0.242   6.499   1.945 -0.3266 -0.1759 -0.0897
  143OSM   H14A15565   0.196   6.593   1.971  0.7239  0.1768  0.5290
  143OSM   H14B15566   0.176   6.419   1.975  2.3364 -2.0849  0.8766
  143OSM   H14C15567   0.244   6.489   1.838  0.1803 -0.1979 -0.0774
  143OSM    C1315568   0.468   6.585   1.960  0.7353 -0.8935 -0.0965
  143OSM   H13A15569   0.472   6.569   1.853 -1.2252 -2.6611  0.0496
  143OSM   H13B15570   0.567   6.565   1.997  1.2537  0.1021 -0.9514
  143OSM   H13C15571   0.430   6.683   1.985 -0.3077 -1.0461 -1.0335
  143OSM    C1215572   0.434   6.343   1.997  0.4806 -0.0108  0.0966
  143OSM   H12A15573   0.531   6.340   2.044  0.5168 -1.9634 -0.0787
  143OSM   H12B15574   0.441   6.321   1.892  0.7028 -1.3534  0.3886
  143OSM    C1115575   0.363   6.220   2.068 -0.0412  0.8242  0.1880
  143OSM   H11A15576   0.416   6.130   2.030 -0.9620 -0.4093  1.7709
  143OSM   H11B15577   0.256   6.217   2.037 -0.2262  1.6885  0.6983
  143OSM      P15578   0.520   6.205   2.286 -0.1488  0.0215 -0.0984
  143OSM    O1315579   0.564   6.065   2.288 -0.2615  0.0802 -0.1452
  143OSM    O1415580   0.616   6.291   2.220  0.2760 -0.0925  0.5472
  143OSM    O1115581   0.493   6.261   2.432  0.3865 -0.6499  0.3058
  143OSM    O1215582   0.373   6.227   2.210 -0.0974 -0.3263  0.4974
  143OSM    C1S15583   0.415   6.200   2.526 -0.4515  0.4324  0.9688
  143OSM    H1S15584   0.326   6.155   2.477 -0.1123  1.4504 -0.6263
  143OSM    H1T15585   0.384   6.284   2.592  0.2579 -0.0043  1.8579
  143OSM     NF15586   0.399   6.012   2.697 -0.6645  0.6188 -0.0101
  143OSM    HNF15587   0.436   5.990   2.787  1.1682  2.7374 -0.2011
  143OSM    C2S15588   0.493   6.090   2.609  0.4170  0.3605  0.2375
  143OSM    H2S15589   0.551   6.027   2.538 -0.5236 -0.3249  0.0641
  143OSM    C3S15590   0.610   6.163   2.686 -0.0006 -0.0110 -0.0009
  143OSM    H3S15591   0.575   6.240   2.758  0.4060  0.5612 -0.4107
  143OSM     O315592   0.705   6.239   2.611 -0.1635 -0.2336  0.4741
  143OSM    HO315593   0.651   6.257   2.534  1.4808 -0.0477 -0.6613
  143OSM    C4S15594   0.690   6.061   2.756 -0.6359 -0.1528  0.2767
  143OSM    H4S15595   0.746   6.002   2.682  0.1934 -0.6535  1.2999
  143OSM    C5S15596   0.691   6.038   2.885  0.7970 -0.8988  0.1599
  143OSM    H5S15597   0.639   6.097   2.962  0.5731  2.7950 -2.6978
  143OSM    C6S15598   0.776   5.927   2.946  1.1520 -0.4616  0.1035
  143OSM    H6S15599   0.854   5.961   3.016  0.8221  0.9182 -0.1938
  143OSM    H6T15600   0.825   5.862   2.869 -1.7102 -0.6152 -1.6856
  143OSM    C7S15601   0.668   5.835   3.009  0.0226 -1.3444  0.1183
  143OSM    H7S15602   0.715   5.736   3.020  0.2143 -1.3166 -0.4549
  143OSM    H7T15603   0.577   5.821   2.946 -1.3692  1.6986  1.3364
  143OSM    C8S15604   0.639   5.880   3.152 -0.8649 -0.0887  0.2385
  143OSM    H8S15605   0.595   5.983   3.153 -1.0301 -0.1644  0.8117
  143OSM    H8T15606   0.736   5.881   3.205  0.5085 -1.4939 -2.1618
  143OSM    C9S15607   0.543   5.794   3.235 -0.6916  0.1768 -0.1216
  143OSM    H9S15608   0.594   5.696   3.228  0.0270  0.3856  2.0635
  143OSM    H9T15609   0.441   5.787   3.192  0.3615  0.7225 -2.8407
  143OSM   C10S15610   0.532   5.826   3.386 -0.2955  0.0801 -0.6088
  143OSM   H10S15611   0.453   5.903   3.402 -0.3315  0.6043 -3.1372
  143OSM   H10T15612   0.624   5.877   3.420 -1.0109  1.1079 -0.1749
  143OSM   C11S15613   0.524   5.703   3.480  0.4092  0.7778  0.2262
  143OSM   H11S15614   0.604   5.630   3.456 -2.1283 -1.8378 -0.4991
  143OSM   H11T15615   0.433   5.648   3.447  0.6670  0.9712 -0.8000
  143OSM   C12S15616   0.529   5.736   3.627 -0.2246 -0.0494 -0.2777
  143OSM   H12S15617   0.442   5.802   3.648  0.8487  1.2569  0.1253
  143OSM   H12T15618   0.610   5.811   3.635 -0.7636  0.3327  2.0134
  143OSM   C13S15619   0.543   5.611   3.710 -0.3152  1.0288 -0.6241
  143OSM   H13S15620   0.619   5.548   3.659 -0.0034  1.5201 -0.7703
  143OSM   H13T15621   0.457   5.541   3.717  1.9164 -1.6826  0.3374
  143OSM   C14S15622   0.587   5.639   3.852  0.3733  0.5459  0.1789
  143OSM   H14S15623   0.497   5.671   3.910  0.8541  1.9048  0.1816
  143OSM   H14T15624   0.670   5.712   3.857  1.9525 -1.2316  0.5349
  143OSM   C15S15625   0.649   5.506   3.908  0.4668 -0.0412  0.9665
  143OSM   H15S15626   0.752   5.480   3.876 -0.1987 -2.2868  0.5756
  143OSM   H15T15627   0.589   5.419   3.875  2.0752 -0.5816 -0.5952
  143OSM   C16S15628   0.657   5.511   4.068  0.5146 -0.4072 -0.2764
  143OSM   H16S15629   0.709   5.418   4.101 -1.5044 -1.7729 -0.8633
  143OSM   H16T15630   0.551   5.506   4.100  0.9626 -1.0019  1.1755
  143OSM   C17S15631   0.730   5.638   4.133  0.6935  0.1718 -0.0680
  143OSM   H17S15632   0.677   5.647   4.230 -0.4088 -0.4212 -0.6024
  143OSM   H17T15633   0.702   5.730   4.078 -0.7373  0.3810  1.0159
  143OSM   C18S15634   0.878   5.623   4.143  0.0970 -0.1379  0.3722
  143OSM   H18S15635   0.932   5.620   4.047  1.0130  1.5780  0.8160
  143OSM   H18T15636   0.894   5.533   4.207 -0.8819  0.7754  1.9535
  143OSM   H18U15637   0.920   5.708   4.201  0.0208 -0.6348  1.1641
  143OSM    C1F15638   0.286   5.951   2.651 -0.2304  0.2225 -0.1848
  143OSM     OF15639   0.270   5.938   2.532 -0.3444  0.5479 -0.6136
  143OSM    C2F15640   0.191   5.885   2.754  1.0592  0.0018 -0.2920
  143OSM    H2F15641   0.172   5.779   2.726 -0.7249 -0.0514  1.0498
  143OSM    H2G15642   0.097   5.944   2.748  0.6879 -0.8816 -4.5333
  143OSM    C3F15643   0.244   5.889   2.900 -0.0770 -0.1750  0.1496
  143OSM    H3F15644   0.277   5.993   2.919  1.8212 -0.6791 -0.2814
  143OSM    H3G15645   0.333   5.826   2.921 -1.7371 -2.3656  0.7393
  143OSM    C4F15646   0.135   5.849   3.007 -0.6021  0.2550  0.2846
  143OSM    H4F15647   0.181   5.799   3.096 -4.1614  0.1129  2.1430
  143OSM    H4G15648   0.059   5.780   2.964 -1.0179  0.4036  0.7763
  143OSM    C5F15649   0.060   5.975   3.059  0.3992  0.7117  0.0631
  143OSM    H5F15650  -0.048   5.956   3.078  0.3884  2.1744  1.5580
  143OSM    H5G15651   0.063   6.050   2.977  0.5017 -0.0024 -0.5955
  143OSM    C6F15652   0.113   6.028   3.194  0.5255  0.1356  1.4001
  143OSM    H6F15653   0.094   6.137   3.203  2.3173  0.4846  1.1431
  143OSM    H6G15654   0.223   6.016   3.201  0.7316  1.2227  0.2729
  143OSM    C7F15655   0.048   5.972   3.321 -1.1624  0.3289  0.0869
  143OSM    H7F15656   0.093   5.875   3.351 -1.2621  0.2722  0.0527
  143OSM    H7G15657  -0.050   5.929   3.292 -1.5394  1.0523  0.2598
  143OSM    C8F15658   0.058   6.071   3.439 -0.1020 -0.0239 -0.1954
  143OSM    H8F15659   0.156   6.123   3.439 -0.2330  0.2250 -0.1714
  143OSM    H8G15660   0.034   6.009   3.528 -1.1392 -1.7123 -1.6124
  143OSM    C9F15661  -0.057   6.163   3.430  0.4924 -0.0633  0.2007
  143OSM    H9F15662  -0.147   6.112   3.392  0.5293  0.2512 -0.3128
  143OSM   C10F15663  -0.062   6.293   3.459  0.0853 -0.2226 -0.0453
  143OSM   H10F15664  -0.161   6.340   3.455 -1.1987 -2.5537  2.2639
  143OSM   C11F15665   0.056   6.377   3.509 -0.1450  0.5906  0.0014
  143OSM   H11F15666   0.035   6.483   3.482 -0.0056  0.3098 -1.2429
  143OSM   H11G15667   0.147   6.349   3.453  0.3599  2.8041 -0.3436
  143OSM   C12F15668   0.091   6.373   3.657 -0.4749 -0.0486  0.1511
  143OSM   H12F15669   0.184   6.432   3.668 -0.8924  0.7471 -0.5142
  143OSM   H12G15670   0.121   6.271   3.688 -0.4624 -0.1650 -0.2464
  143OSM   C13F15671  -0.024   6.430   3.743  0.1208  0.1409  0.5422
  143OSM   H13F15672  -0.111   6.362   3.734 -0.0668  0.3576  0.7190
  143OSM   H13G15673  -0.064   6.528   3.710 -3.4178 -1.6867 -0.8655
  143OSM   C14F15674   0.004   6.435   3.893  0.6717  0.5474  1.0729
  143OSM   H14F15675   0.095   6.497   3.912  0.1922  1.4125  0.5642
  143OSM   H14G15676   0.015   6.327   3.916 -1.8236 -0.5264 -2.3952
  143OSM   C15F15677  -0.105   6.491   3.985 -0.0683  0.0845  0.2528
  143OSM   H15F15678  -0.185   6.414   3.985  0.9944 -1.0360 -0.5145
  143OSM   H15G15679  -0.140   6.588   3.942 -0.0552 -0.0108  0.0282
  143OSM   C16F15680  -0.056   6.513   4.127 -0.0255 -0.2525  0.5384
  143OSM   H16F15681   0.021   6.594   4.131 -0.4815  0.1950  0.3200
  143OSM   H16G15682  -0.020   6.416   4.167 -1.9948 -1.0254  0.5000
  143OSM   C17F15683  -0.163   6.557   4.226  0.0709 -0.1381  0.3039
  143OSM   H17F15684  -0.124   6.531   4.327 -0.6649  2.1935  1.2163
  143OSM   H17G15685  -0.256   6.495   4.218 -0.5505  0.3526  3.0200
  143OSM   C18F15686  -0.194   6.702   4.210  0.0031 -0.0318 -0.1242
  143OSM   H18F15687  -0.095   6.754   4.209  0.1736 -0.3587 -0.8253
  143OSM   H18G15688  -0.249   6.746   4.295  0.9189  1.2308 -0.1670
  143OSM   H18H15689  -0.241   6.716   4.110 -1.5446 -2.0237  0.3085
  144OSM      N15690   6.614   7.037   1.816 -0.4385 -0.4967  0.1034
  144OSM    C1515691   6.690   6.909   1.853  0.4489 -0.3722  0.1704
  144OSM   H15A15692   6.655   6.876   1.950  0.5739  2.3359  1.1707
  144OSM   H15B15693   6.792   6.944   1.844  0.1898  0.8370  1.7508
  144OSM   H15C15694   6.670   6.826   1.786  0.5120  0.5884 -1.0709
  144OSM    C1415695   6.679   7.108   1.692  0.3781 -0.2093  0.2450
  144OSM   H14A15696   6.648   7.211   1.689  0.1383 -0.2680  0.6861
  144OSM   H14B15697   6.675   7.056   1.597  0.3996  1.7996 -0.8861
  144OSM   H14C15698   6.786   7.120   1.703  0.3783 -1.3653  1.5661
  144OSM    C1315699   6.477   6.999   1.776  1.0351  0.6699 -0.0325
  144OSM   H13A15700   6.482   6.922   1.701 -1.6654 -1.1026  1.5271
  144OSM   H13B15701   6.421   7.086   1.745  1.1719  0.4071 -1.0377
  144OSM   H13C15702   6.422   6.963   1.862  3.1844  0.0953  1.1332
  144OSM    C1215703   6.613   7.138   1.933  0.0212  1.2041  0.0967
  144OSM   H12A15704   6.547   7.094   2.006 -0.6828 -0.0262 -1.2607
  144OSM   H12B15705   6.563   7.230   1.910  1.5777  2.2370  0.7070
  144OSM    C1115706   6.748   7.185   1.997 -0.4904 -0.1627 -0.3862
  144OSM   H11A15707   6.810   7.096   2.019 -1.1060 -0.0892  1.7365
  144OSM   H11B15708   6.733   7.239   2.094  1.2753  1.5406 -1.0123
  144OSM      P15709   6.966   7.237   1.865  0.1696 -0.2599 -0.0597
  144OSM    O1315710   6.981   7.096   1.815 -0.0362 -0.1302 -0.0143
  144OSM    O1415711   7.017   7.342   1.774 -0.2463  0.2865 -0.3133
  144OSM    O1115712   7.033   7.252   2.002 -0.7683 -0.1953  0.2996
  144OSM    O1215713   6.820   7.274   1.905 -0.1922 -0.0148  0.1773
  144OSM    C1S15714   7.010   7.365   2.084 -0.0160 -0.0122 -0.1529
  144OSM    H1S15715   6.917   7.422   2.067 -1.2943 -2.3594 -1.2339
  144OSM    H1T15716   7.099   7.431   2.080 -2.0170  2.9716  2.6485
  144OSM     NF15717   7.012   7.461   2.306 -0.1825 -0.4238  0.3859
  144OSM    HNF15718   7.101   7.496   2.332 -0.0607  0.9598 -1.7150
  144OSM    C2S15719   7.005   7.333   2.238  0.4581 -0.0611 -0.0032
  144OSM    H2S15720   6.911   7.277   2.254  1.1004 -1.2089 -0.2081
  144OSM    C3S15721   7.120   7.238   2.280 -0.3440 -0.4004 -1.1441
  144OSM    H3S15722   7.214   7.297   2.273 -0.4343 -0.2113 -0.7958
  144OSM     O315723   7.135   7.113   2.209 -0.4923 -0.0084  0.4317
  144OSM    HO315724   7.088   7.126   2.126  0.1801 -1.0279 -0.1151
  144OSM    C4S15725   7.101   7.212   2.434 -0.4939  0.8795 -0.0780
  144OSM    H4S15726   7.014   7.145   2.448  1.5485 -1.8175  0.2238
  144OSM    C5S15727   7.173   7.233   2.547 -0.4631  0.1454 -0.1854
  144OSM    H5S15728   7.265   7.292   2.540 -0.5309  0.1920 -0.6688
  144OSM    C6S15729   7.136   7.195   2.689 -0.2033  0.3867 -0.6759
  144OSM    H6S15730   7.113   7.290   2.743  0.5275  1.0469 -1.4961
  144OSM    H6T15731   7.225   7.164   2.748 -1.8168 -0.7419  1.1900
  144OSM    C7S15732   7.032   7.088   2.708 -0.3492 -0.1479 -0.7865
  144OSM    H7S15733   7.042   7.003   2.636 -2.2529 -1.2503  0.2296
  144OSM    H7T15734   6.936   7.137   2.683  0.7071  2.5932  0.3677
  144OSM    C8S15735   7.020   7.032   2.847  0.3221 -0.0923  0.4974
  144OSM    H8S15736   7.114   6.987   2.885  0.0787 -1.5834 -0.6301
  144OSM    H8T15737   6.936   6.960   2.856 -0.1416  0.4263  0.3116
  144OSM    C9S15738   6.996   7.144   2.953 -0.1511  0.2866  0.2266
  144OSM    H9S15739   6.911   7.213   2.934  1.5131  2.1556 -0.5504
  144OSM    H9T15740   7.084   7.210   2.954  1.0606 -1.2299 -1.8143
  144OSM   C10S15741   6.978   7.086   3.093  0.3015 -0.7252  0.0857
  144OSM   H10S15742   7.047   7.001   3.115 -0.2067 -0.6579  2.0238
  144OSM   H10T15743   6.875   7.047   3.108 -0.3275  0.5081 -0.9720
  144OSM   C11S15744   6.990   7.195   3.201 -0.5230 -0.1351 -0.2947
  144OSM   H11S15745   6.962   7.148   3.298 -0.2226  1.3318  0.5078
  144OSM   H11T15746   6.909   7.267   3.180  0.4501  1.3989  1.0112
  144OSM   C12S15747   7.126   7.265   3.213  0.5892 -0.1570 -0.2805
  144OSM   H12S15748   7.126   7.364   3.265 -3.1621 -0.9174  1.3384
  144OSM   H12T15749   7.168   7.281   3.112  2.8135  0.4342  0.7047
  144OSM   C13S15750   7.225   7.173   3.278 -0.2042 -0.3458 -0.4340
  144OSM   H13S15751   7.317   7.231   3.256 -1.2102  1.6426  0.4926
  144OSM   H13T15752   7.225   7.073   3.230 -0.0244 -0.0539 -1.0458
  144OSM   C14S15753   7.214   7.150   3.434 -0.2419 -0.6315 -0.7331
  144OSM   H14S15754   7.293   7.078   3.464 -0.4260 -0.0469  1.2810
  144OSM   H14T15755   7.117   7.097   3.447 -0.7096  0.5947  0.9928
  144OSM   C15S15756   7.222   7.274   3.535 -0.6099  0.2643 -0.2155
  144OSM   H15S15757   7.151   7.353   3.502 -0.9362  0.4798  0.9806
  144OSM   H15T15758   7.324   7.318   3.546 -1.3837  1.8201  0.9799
  144OSM   C16S15759   7.163   7.237   3.671  0.0604  0.3965 -0.4005
  144OSM   H16S15760   7.221   7.154   3.717  0.5746  0.7861 -0.3430
  144OSM   H16T15761   7.066   7.192   3.644  0.9292 -0.5511 -1.9915
  144OSM   C17S15762   7.166   7.354   3.782  0.3201  0.3472 -0.3995
  144OSM   H17S15763   7.097   7.320   3.863  0.2215  0.6895 -0.3426
  144OSM   H17T15764   7.119   7.442   3.734  1.1826  1.6714  1.1098
  144OSM   C18S15765   7.308   7.402   3.831 -0.1250 -0.0791 -0.1599
  144OSM   H18S15766   7.291   7.495   3.888  0.9495 -0.4669  0.8014
  144OSM   H18T15767   7.378   7.425   3.749 -1.0421 -2.6568 -1.7640
  144OSM   H18U15768   7.362   7.332   3.898 -0.6660 -0.9888 -0.6546
  144OSM    C1F15769   6.916   7.552   2.313 -0.1860  0.8945  0.6027
  144OSM     OF15770   6.808   7.537   2.255  0.0151  0.3217 -0.0849
  144OSM    C2F15771   6.933   7.678   2.388  0.5783 -0.3646  0.6874
  144OSM    H2F15772   6.829   7.693   2.425  1.0103  2.1722  0.9911
  144OSM    H2G15773   6.952   7.759   2.314  0.6291 -1.1892 -0.2092
  144OSM    C3F15774   7.047   7.673   2.494 -0.3274  0.1482 -0.0274
  144OSM    H3F15775   7.062   7.776   2.531  0.0219  0.1632 -0.2114
  144OSM    H3G15776   7.146   7.655   2.447 -0.5686 -0.1592 -0.4272
  144OSM    C4F15777   7.038   7.575   2.609  0.2811 -0.1604  0.2525
  144OSM    H4F15778   7.135   7.587   2.661  0.9895 -1.5112 -0.7006
  144OSM    H4G15779   7.022   7.469   2.579  0.7941 -0.1305 -0.1336
  144OSM    C5F15780   6.916   7.601   2.702 -0.1277 -0.5187  0.6012
  144OSM    H5F15781   6.830   7.610   2.632  0.2910  0.2005  0.1695
  144OSM    H5G15782   6.925   7.702   2.748  0.8671  0.5950 -1.9282
  144OSM    C6F15783   6.892   7.491   2.809  0.0630  0.0852  0.2484
  144OSM    H6F15784   6.966   7.513   2.889  2.5333 -2.0776 -1.3744
  144OSM    H6G15785   6.918   7.393   2.765 -0.5244  1.0589 -2.3281
  144OSM    C7F15786   6.745   7.500   2.859 -0.2021  0.1529  0.2084
  144OSM    H7F15787   6.719   7.420   2.931 -0.1026 -2.0653 -2.1284
  144OSM    H7G15788   6.672   7.484   2.777 -0.0985 -0.7030  0.2739
  144OSM    C8F15789   6.708   7.628   2.937  0.1232 -0.2762  0.4234
  144OSM    H8F15790   6.604   7.607   2.970 -0.6102  1.1309 -0.9920
  144OSM    H8G15791   6.697   7.713   2.867  0.3807  1.4308  2.4074
  144OSM    C9F15792   6.809   7.660   3.044  0.5364 -0.2592  0.1443
  144OSM    H9F15793   6.914   7.685   3.021  0.3450  0.5781  0.1749
  144OSM   C10F15794   6.793   7.642   3.173  0.0417 -0.1283 -0.5766
  144OSM   H10F15795   6.876   7.676   3.237  0.4972 -1.3923 -0.4967
  144OSM   C11F15796   6.669   7.586   3.248 -0.2236  0.2327  0.2038
  144OSM   H11F15797   6.660   7.478   3.227  1.0346  0.2608 -0.5230
  144OSM   H11G15798   6.576   7.632   3.208 -0.4954 -0.9158 -0.4953
  144OSM   C12F15799   6.682   7.597   3.403 -1.0747 -0.1330  0.2273
  144OSM   H12F15800   6.641   7.698   3.424  1.5502  0.8990  0.6247
  144OSM   H12G15801   6.792   7.598   3.422 -0.4379  2.4144 -3.1943
  144OSM   C13F15802   6.612   7.500   3.493 -0.0714 -0.0162  0.1614
  144OSM   H13F15803   6.504   7.516   3.475  0.3502  2.1015 -0.6718
  144OSM   H13G15804   6.629   7.530   3.599  0.3779  0.6258 -0.0873
  144OSM   C14F15805   6.662   7.357   3.480 -0.1108 -0.7468 -0.3850
  144OSM   H14F15806   6.766   7.354   3.518 -0.8798 -1.3196  1.7293
  144OSM   H14G15807   6.659   7.329   3.372  0.5840  0.9428 -0.8644
  144OSM   C15F15808   6.587   7.265   3.571  0.6265 -0.1283 -0.2732
  144OSM   H15F15809   6.485   7.243   3.532  0.5886  0.5369 -0.5513
  144OSM   H15G15810   6.576   7.315   3.669  2.2625 -1.4376  0.6145
  144OSM   C16F15811   6.662   7.131   3.591  0.1675  0.0194  0.6131
  144OSM   H16F15812   6.601   7.068   3.659 -3.5899  1.1652 -1.5173
  144OSM   H16G15813   6.766   7.137   3.629 -0.1830 -1.3869  1.8512
  144OSM   C17F15814   6.684   7.061   3.454 -0.2683  0.2368  0.4722
  144OSM   H17F15815   6.742   6.969   3.473 -1.7015 -1.3666 -2.6540
  144OSM   H17G15816   6.753   7.120   3.390 -0.2929  0.0523  0.2763
  144OSM   C18F15817   6.558   7.026   3.369 -0.6153 -0.6856 -0.0419
  144OSM   H18F15818   6.583   6.967   3.278 -0.6296  0.6864 -0.9489
  144OSM   H18G15819   6.510   7.121   3.336 -0.4712 -0.7991 -0.5715
  144OSM   H18H15820   6.482   6.963   3.419 -1.4009  0.5920  0.4165
  145SAPE     N15821   2.050   3.244   6.496  0.3902  0.4078  0.4266
  145SAPE   HN115822   2.062   3.247   6.599  0.8187  1.0366  0.3669
  145SAPE   HN215823   2.145   3.263   6.459  1.2175 -0.7805  1.8863
  145SAPE   HN315824   1.981   3.313   6.459 -1.2351 -1.6988 -0.5427
  145SAPE   C1215825   2.012   3.102   6.450 -0.0853 -0.5524 -0.2416
  145SAPE  H12A15826   2.071   3.026   6.506 -0.9973  0.4671  2.1545
  145SAPE  H12B15827   2.024   3.094   6.340 -4.3084  3.7793 -1.1942
  145SAPE   C1115828   1.865   3.063   6.468 -0.6209  0.8138 -0.4137
  145SAPE  H11A15829   1.855   3.059   6.579  3.8242 -0.4096  0.0747
  145SAPE  H11B15830   1.846   2.963   6.423  0.4254 -0.0241  0.9405
  145SAPE     P15831   1.651   3.139   6.332  0.4553  0.0767 -0.6274
  145SAPE   O1315832   1.587   3.012   6.380 -0.0061 -0.0942  0.2958
  145SAPE   O1415833   1.574   3.264   6.350  0.1293 -0.2044 -0.1010
  145SAPE   O1215834   1.782   3.170   6.407  0.0326  0.1833  0.1216
  145SAPE   O1115835   1.700   3.132   6.181  0.1167 -0.3349  0.1839
  145SAPE    C115836   1.801   3.212   6.133 -0.7882 -0.9247  0.0316
  145SAPE    HA15837   1.893   3.199   6.194  0.1970  0.4165 -1.1600
  145SAPE    HB15838   1.818   3.180   6.028 -2.4409  0.2223 -0.5989
  145SAPE    C215839   1.760   3.365   6.121  0.3617  0.1063 -0.0061
  145SAPE    HS15840   1.726   3.396   6.223 -1.2043 -0.6375 -0.2876
  145SAPE   O2115841   1.645   3.382   6.033 -0.1551 -0.9359  0.4231
  145SAPE   C2115842   1.598   3.506   6.036 -0.1769  0.2427 -0.1566
  145SAPE   O2215843   1.624   3.595   6.118  0.3931 -0.0934 -0.4094
  145SAPE   C2215844   1.479   3.523   5.938  0.3803 -0.1745 -0.2017
  145SAPE   H2R15845   1.386   3.476   5.978  0.2104  0.2970 -0.0425
  145SAPE   H2S15846   1.457   3.631   5.948  3.8587  0.4238  1.5194
  145SAPE    C315847   1.881   3.449   6.080 -0.2745  0.3653 -0.6401
  145SAPE    HX15848   1.960   3.406   6.145  0.2555  1.3314 -0.6435
  145SAPE    HY15849   1.885   3.556   6.109 -0.1282 -0.0187  0.7948
  145SAPE   O3115850   1.916   3.421   5.946 -0.0901 -0.2681 -0.0111
  145SAPE   C3115851   2.039   3.467   5.904  0.3626  0.6331 -0.4065
  145SAPE   O3215852   2.115   3.529   5.972  0.0139  0.7226  0.7127
  145SAPE   C3215853   2.057   3.430   5.755 -0.3785 -0.9779 -0.1879
  145SAPE   H2X15854   2.069   3.524   5.697 -1.1994 -1.8331 -1.7819
  145SAPE   H2Y15855   1.960   3.378   5.739 -0.9168 -0.6471  1.8640
  145SAPE   C2315856   1.506   3.473   5.796  0.6381  0.4530 -0.1190
  145SAPE   H3R15857   1.556   3.374   5.799  2.5071  1.4123  2.3288
  145SAPE   H3S15858   1.570   3.548   5.746  1.6182  0.9043  1.7567
  145SAPE   C2415859   1.378   3.458   5.715 -0.2151 -0.0420 -0.4862
  145SAPE   H4R15860   1.342   3.560   5.690  0.8970  0.9350  1.7788
  145SAPE   H4S15861   1.298   3.411   5.776  0.4779 -1.3172 -0.5336
  145SAPE   C2515862   1.407   3.390   5.586  0.5425 -0.0551  0.3696
  145SAPE   H5R15863   1.450   3.289   5.595  2.5442  0.7166 -0.3749
  145SAPE   C2615864   1.361   3.428   5.462  0.2652 -0.6444  0.3790
  145SAPE   H6R15865   1.383   3.367   5.373  0.7130  0.7445 -0.4636
  145SAPE   C2715866   1.266   3.545   5.424 -0.6972  0.0168  0.6003
  145SAPE   H7R15867   1.323   3.630   5.379 -0.5536  0.1726  1.0707
  145SAPE   H7S15868   1.226   3.592   5.516  0.1541 -0.3252  1.1536
  145SAPE   C2815869   1.155   3.528   5.320  0.2942  0.2898  0.6667
  145SAPE   H8R15870   1.055   3.548   5.361 -0.4038 -0.1028 -0.8081
  145SAPE   C2915871   1.162   3.509   5.189  0.0660 -0.2758  0.1543
  145SAPE   H9R15872   1.067   3.504   5.135 -0.8495  0.5597  1.6647
  145SAPE  C21015873   1.290   3.509   5.112  0.4801  0.5556  0.1065
  145SAPE  H10R15874   1.331   3.407   5.101  1.6518  0.8872  1.2794
  145SAPE  H10S15875   1.369   3.569   5.162 -1.9721  3.1539  1.0212
  145SAPE  C21115876   1.264   3.575   4.969  0.6163 -1.1150 -0.1623
  145SAPE  H11R15877   1.172   3.546   4.918  1.2782 -1.6324 -1.0701
  145SAPE  C21215878   1.349   3.648   4.907  0.4468 -0.4016 -0.5281
  145SAPE  H12R15879   1.331   3.689   4.807  0.9794  1.8253  0.2476
  145SAPE  C21315880   1.489   3.684   4.957  0.4991  0.3711  0.1057
  145SAPE  H13R15881   1.555   3.595   4.950 -0.6504 -0.4984  0.2401
  145SAPE  H13S15882   1.489   3.715   5.063  0.3042 -0.8879  0.4880
  145SAPE  C21415883   1.554   3.795   4.873 -0.5575 -0.2087  0.3092
  145SAPE  H14R15884   1.540   3.896   4.913 -2.0645  0.1009 -0.9482
  145SAPE  C21515885   1.595   3.782   4.745  0.4264  0.2230 -0.2698
  145SAPE  H15R15886   1.629   3.873   4.694  2.7101 -0.2403  0.3703
  145SAPE  C21615887   1.599   3.670   4.643 -1.2417  0.6285  0.0724
  145SAPE  H16R15888   1.516   3.673   4.569 -0.2157 -0.6592 -1.1695
  145SAPE  H16S15889   1.600   3.575   4.701 -1.2122  2.0028  2.3800
  145SAPE  C21715890   1.732   3.677   4.563  0.5387  0.0766  0.0906
  145SAPE  H17R15891   1.742   3.591   4.494 -2.1989 -2.0074  2.1689
  145SAPE  H17S15892   1.817   3.679   4.634  0.7244 -0.7355 -0.1100
  145SAPE  C21815893   1.750   3.796   4.467 -0.0841  0.6329  0.6987
  145SAPE  H18R15894   1.790   3.881   4.526  0.6330 -0.2259  1.4636
  145SAPE  H18S15895   1.648   3.831   4.441 -0.0820 -0.4951 -0.9252
  145SAPE  C21915896   1.821   3.778   4.332  0.0312  0.1741 -0.4323
  145SAPE  H19R15897   1.790   3.689   4.273 -0.3625  0.0566 -0.0507
  145SAPE  H19S15898   1.927   3.760   4.360 -0.5412  0.3259  1.9730
  145SAPE  C22015899   1.806   3.903   4.248 -0.9496 -0.0852  0.1971
  145SAPE  H20R15900   1.859   3.992   4.287 -0.1312 -0.5275  0.0924
  145SAPE  H20S15901   1.699   3.926   4.227 -1.2501 -1.9439 -0.4367
  145SAPE  H20T15902   1.843   3.879   4.146 -2.8505  1.0316 -0.7923
  145SAPE   C3315903   2.171   3.326   5.718 -0.3606  0.0228  0.3852
  145SAPE   H3X15904   2.189   3.251   5.797 -1.6169 -1.2494 -0.5210
  145SAPE   H3Y15905   2.262   3.385   5.692  0.0851  0.6202  3.2057
  145SAPE   C3415906   2.125   3.249   5.595 -0.4855 -0.5505  0.2004
  145SAPE   H4X15907   2.023   3.207   5.605 -0.5676 -0.7739 -1.4425
  145SAPE   H4Y15908   2.189   3.158   5.594  0.5170  0.0904  2.4231
  145SAPE   C3515909   2.124   3.334   5.468 -0.3834 -0.3235  0.6558
  145SAPE   H5X15910   2.220   3.390   5.460  0.1270 -0.9600  2.0977
  145SAPE   H5Y15911   2.039   3.405   5.467  0.1193  0.2833  0.5128
  145SAPE   C3615912   2.118   3.232   5.354  0.2969 -0.4544  0.0722
  145SAPE   H6X15913   2.032   3.163   5.371 -0.4536  0.4080 -0.1838
  145SAPE   H6Y15914   2.209   3.168   5.357  3.1898  3.5120  0.1849
  145SAPE   C3715915   2.114   3.292   5.212  0.2811 -0.0511  0.1365
  145SAPE   H7X15916   2.209   3.347   5.197  0.9266 -0.9617  0.8840
  145SAPE   H7Y15917   2.029   3.359   5.185  0.8535  0.4644 -0.3880
  145SAPE   C3815918   2.111   3.176   5.101  0.3396  0.1660 -1.5834
  145SAPE   H8X15919   2.024   3.110   5.125  0.8976 -0.2283 -0.6163
  145SAPE   H8Y15920   2.204   3.121   5.127  0.0024  0.8200  1.1382
  145SAPE   C3915921   2.116   3.207   4.949  0.3702  0.7044 -1.1059
  145SAPE   H9X15922   2.147   3.106   4.913  2.8182  1.4722 -1.2382
  145SAPE   H9Y15923   2.194   3.278   4.915  0.6403 -0.0702 -2.1423
  145SAPE  C31015924   1.976   3.235   4.894  0.0427  0.1221  0.2863
  145SAPE  H10X15925   1.958   3.342   4.918 -1.4764 -0.2752  0.9973
  145SAPE  H10Y15926   1.905   3.174   4.953 -0.5295 -1.3310 -1.8286
  145SAPE  C31115927   1.956   3.232   4.745  0.3030  0.2475  0.4437
  145SAPE  H11X15928   1.971   3.128   4.709  0.2582  0.4191 -0.0759
  145SAPE  H11Y15929   2.038   3.291   4.697 -0.2019  2.6172  2.3884
  145SAPE  C31215930   1.827   3.285   4.689 -0.3861 -0.1009  0.0072
  145SAPE  H12X15931   1.807   3.392   4.710  0.4801  0.2983 -1.1450
  145SAPE  H12Y15932   1.743   3.228   4.735 -1.0230  0.9517  0.1514
  145SAPE  C31315933   1.806   3.266   4.535  0.2120 -1.0177 -0.0887
  145SAPE  H13X15934   1.708   3.304   4.499  0.3198  0.6145  1.2874
  145SAPE  H13Y15935   1.812   3.156   4.522  0.3651 -0.7205 -2.9791
  145SAPE  C31415936   1.921   3.329   4.456  0.1230  0.6862  0.2749
  145SAPE  H14X15937   2.020   3.284   4.480  1.4393  1.8171 -2.7863
  145SAPE  H14Y15938   1.929   3.437   4.482  0.4643  0.8308 -0.4159
  145SAPE  C31515939   1.911   3.335   4.305  0.0732  0.2638  0.9598
  145SAPE  H15X15940   1.818   3.385   4.270  0.8167  1.7352  1.0803
  145SAPE  H15Y15941   1.901   3.229   4.272 -0.7150  1.0306 -1.3576
  145SAPE  C31615942   2.020   3.407   4.240 -0.3021 -0.1436  0.0519
  145SAPE  H16X15943   2.111   3.361   4.285  0.0955  0.4007 -0.1770
  145SAPE  H16Y15944   2.009   3.511   4.277 -1.3847 -0.0721 -0.4629
  145SAPE  C31715945   2.036   3.391   4.094 -1.0780 -0.3259  0.5505
  145SAPE  H17X15946   2.037   3.283   4.068  2.7730 -0.2697  0.0524
  145SAPE  H17Y15947   2.138   3.429   4.068 -0.3710 -0.7007  2.6958
  145SAPE  C31815948   1.941   3.464   4.009  0.0455 -0.7017 -0.5383
  145SAPE  H18X15949   1.952   3.453   3.899  0.7886  0.9376 -0.6444
  145SAPE  H18Y15950   1.944   3.573   4.031  0.0057 -0.6669 -0.7075
  145SAPE  H18Z15951   1.836   3.435   4.031  0.2562 -1.9040 -1.0989
  146SAPE     N15952   4.399   2.825   6.208  0.3453  1.2821 -0.0628
  146SAPE   HN115953   4.466   2.874   6.147  1.5369 -0.8423 -0.5031
  146SAPE   HN215954   4.302   2.819   6.171  0.2112 -0.4184  0.5240
  146SAPE   HN315955   4.387   2.860   6.306  1.2220  1.5242 -0.0379
  146SAPE   C1215956   4.449   2.679   6.216 -0.8105  0.4614  0.0596
  146SAPE  H12A15957   4.391   2.609   6.152  0.5587 -3.6853  3.1615
  146SAPE  H12B15958   4.446   2.659   6.325 -0.7361 -0.2682 -0.0713
  146SAPE   C1115959   4.591   2.659   6.160  0.0437 -0.3981  0.8269
  146SAPE  H11A15960   4.595   2.698   6.055 -1.2236  1.9997  1.6236
  146SAPE  H11B15961   4.613   2.552   6.140 -1.9824 -0.7986  0.6514
  146SAPE     P15962   4.802   2.676   6.318 -0.2521  0.1328  0.0033
  146SAPE   O1315963   4.892   2.790   6.345  0.0869 -0.0105  0.0120
  146SAPE   O1415964   4.742   2.613   6.437  0.2675  0.2663  0.0452
  146SAPE   O1215965   4.685   2.736   6.234 -0.0982  0.1674 -0.0996
  146SAPE   O1115966   4.877   2.568   6.234  0.0512  0.2374  0.0091
  146SAPE    C115967   4.935   2.593   6.104  0.2771  0.6879  1.3986
  146SAPE    HA15968   4.884   2.518   6.041 -0.3199 -0.4454  3.2083
  146SAPE    HB15969   4.915   2.698   6.072 -0.4810  0.1210 -0.0270
  146SAPE    C215970   5.087   2.553   6.113  0.8464 -0.6479 -0.7761
  146SAPE    HS15971   5.136   2.623   6.185 -3.3741  1.7660 -0.0552
  146SAPE   O2115972   5.137   2.552   5.981 -0.5500  0.0196 -0.5681
  146SAPE   C2115973   5.162   2.672   5.930  0.2935 -0.4611  0.0919
  146SAPE   O2215974   5.132   2.779   5.985  0.6963 -0.4058  0.4683
  146SAPE   C2215975   5.216   2.653   5.787 -0.1824 -0.1919 -0.1500
  146SAPE   H2R15976   5.278   2.561   5.779  0.0673 -0.1939  1.6405
  146SAPE   H2S15977   5.129   2.644   5.719  0.6688 -0.2234 -1.2367
  146SAPE    C315978   5.103   2.411   6.168  0.6017  0.3003  0.0847
  146SAPE    HX15979   5.059   2.412   6.270  1.2981  2.4031  0.3917
  146SAPE    HY15980   5.210   2.386   6.180  0.4276  0.0584  1.1337
  146SAPE   O3115981   5.029   2.315   6.092 -0.1296  0.0496 -0.3795
  146SAPE   C3115982   5.103   2.246   6.010  0.3070  0.3459  0.8415
  146SAPE   O3215983   5.225   2.252   6.003 -0.3756  0.7481 -0.0854
  146SAPE   C3215984   5.026   2.142   5.928 -0.5179 -0.4387  0.3790
  146SAPE   H2X15985   4.920   2.139   5.960  0.0080 -0.0241  2.1892
  146SAPE   H2Y15986   5.068   2.042   5.952 -0.6628 -1.0033 -1.5975
  146SAPE   C2315987   5.308   2.771   5.744  0.5776  0.4791 -0.2908
  146SAPE   H3R15988   5.394   2.785   5.813  2.0730  0.7803 -2.1433
  146SAPE   H3S15989   5.247   2.863   5.754  2.8209  2.1272 -1.2099
  146SAPE   C2415990   5.353   2.766   5.598  0.0760  0.2780  0.0815
  146SAPE   H4R15991   5.402   2.863   5.577  2.5870  0.1803  4.7680
  146SAPE   H4S15992   5.267   2.759   5.528 -0.7517 -0.8183  1.1673
  146SAPE   C2515993   5.457   2.662   5.573  0.3921  0.3916  0.5420
  146SAPE   H5R15994   5.536   2.652   5.649  2.2227 -0.8236 -1.4575
  146SAPE   C2615995   5.458   2.584   5.466  0.5238  0.8039 -0.3042
  146SAPE   H6R15996   5.534   2.505   5.454 -1.0578 -0.6727 -0.9168
  146SAPE   C2715997   5.354   2.571   5.352 -0.0073  0.0392 -0.5544
  146SAPE   H7R15998   5.257   2.549   5.402 -0.0092 -0.3180 -0.7168
  146SAPE   H7S15999   5.381   2.478   5.298 -0.7644 -0.5188  0.0212
  146SAPE   C2816000   5.347   2.697   5.264 -0.3852  0.4290 -0.5048
  146SAPE   H8R16001   5.313   2.785   5.320  0.5282  0.3786  0.1434
  146SAPE   C2916002   5.384   2.707   5.128  0.2638  0.4157 -0.4061
  146SAPE   H9R16003   5.367   2.807   5.084  1.2843  0.9353  0.3471
  146SAPE  C21016004   5.438   2.596   5.036 -0.7911  0.2915  0.0621
  146SAPE  H10R16005   5.419   2.495   5.077 -0.3289 -0.8045 -2.3119
  146SAPE  H10S16006   5.549   2.596   5.026 -0.8806 -3.4845 -1.8666
  146SAPE  C21116007   5.375   2.591   4.898  0.7199  0.4991  0.3311
  146SAPE  H11R16008   5.279   2.539   4.884  1.4423 -0.7020 -0.3544
  146SAPE  C21216009   5.426   2.640   4.783  0.2719  0.2677  0.0151
  146SAPE  H12R16010   5.363   2.643   4.692 -0.0537  1.8126  0.2849
  146SAPE  C21316011   5.553   2.726   4.779 -0.4162  0.3470  0.3252
  146SAPE  H13R16012   5.626   2.669   4.841  0.4251 -0.9620 -1.8335
  146SAPE  H13S16013   5.541   2.823   4.832  0.3070 -0.4043  1.9157
  146SAPE  C21416014   5.612   2.721   4.646  0.1193 -0.1636  0.2658
  146SAPE  H14R16015   5.615   2.624   4.594 -1.0822 -0.0246 -0.0823
  146SAPE  C21516016   5.654   2.831   4.577  1.1414 -0.8335 -0.4394
  146SAPE  H15R16017   5.657   2.819   4.468  0.1888  0.9080 -0.6817
  146SAPE  C21616018   5.636   2.977   4.614  0.0622 -0.2886  0.1341
  146SAPE  H16R16019   5.704   2.998   4.699  1.6356 -1.7010 -0.7414
  146SAPE  H16S16020   5.534   3.001   4.651  0.1123 -0.2065  0.2197
  146SAPE  C21716021   5.668   3.073   4.495  0.3308  0.0636 -0.1990
  146SAPE  H17R16022   5.664   3.180   4.525  1.7233 -0.1236  0.7059
  146SAPE  H17S16023   5.601   3.057   4.408 -1.3594  0.6370  0.9472
  146SAPE  C21816024   5.813   3.059   4.432  0.5316 -0.2361  0.0587
  146SAPE  H18R16025   5.827   3.160   4.390 -1.4529  0.8507  1.8893
  146SAPE  H18S16026   5.812   2.998   4.339  1.4658  0.2264 -0.2557
  146SAPE  C21916027   5.924   3.022   4.525 -0.0605 -0.3332 -0.5913
  146SAPE  H19R16028   5.926   2.916   4.558  1.2337  0.0346  0.5380
  146SAPE  H19S16029   5.916   3.078   4.621 -0.8870  1.3364 -1.5915
  146SAPE  C22016030   6.060   3.062   4.469  0.4671  0.1565 -0.0729
  146SAPE  H20R16031   6.065   3.024   4.365 -0.1891 -0.1459  0.0040
  146SAPE  H20S16032   6.141   3.015   4.528  0.7631  2.6253  1.5457
  146SAPE  H20T16033   6.065   3.173   4.473  2.1660  0.0945 -0.1582
  146SAPE   C3316034   5.018   2.171   5.775  0.3901 -0.4984  0.8906
  146SAPE   H3X16035   4.951   2.106   5.715 -0.0775 -2.2085  3.2177
  146SAPE   H3Y16036   5.118   2.161   5.727 -0.7315  2.5458 -2.2812
  146SAPE   C3416037   4.965   2.315   5.741 -0.7031 -0.6328 -0.2111
  146SAPE   H4X16038   5.021   2.397   5.792  0.8935 -1.0934 -1.1918
  146SAPE   H4Y16039   4.867   2.304   5.792 -1.7416  0.8431 -1.8321
  146SAPE   C3516040   4.973   2.359   5.594  0.1920 -0.2031 -0.2821
  146SAPE   H5X16041   4.959   2.276   5.522  0.7313 -0.3014 -0.2786
  146SAPE   H5Y16042   5.070   2.406   5.565 -0.4938  0.5128 -1.4565
  146SAPE   C3616043   4.854   2.462   5.557  0.9175 -0.5672  0.4399
  146SAPE   H6X16044   4.864   2.556   5.615 -2.4458 -0.3238  0.7711
  146SAPE   H6Y16045   4.761   2.415   5.598  1.3859 -0.4428  1.6721
  146SAPE   C3716046   4.842   2.493   5.405 -0.1670  0.2554  0.4742
  146SAPE   H7X16047   4.843   2.393   5.355 -0.2588  0.6301 -0.2859
  146SAPE   H7Y16048   4.931   2.547   5.367 -0.2125 -0.4152 -0.6306
  146SAPE   C3816049   4.716   2.577   5.359  0.2857 -0.0041 -0.1537
  146SAPE   H8X16050   4.702   2.671   5.415 -1.3061 -0.2255 -0.1541
  146SAPE   H8Y16051   4.620   2.523   5.375  0.4649 -0.2180  0.1988
  146SAPE   C3916052   4.720   2.620   5.210 -0.2541  0.0614 -0.0605
  146SAPE   H9X16053   4.717   2.525   5.152 -0.7957  0.3090 -0.4497
  146SAPE   H9Y16054   4.812   2.677   5.187  0.8979 -0.3242  3.3471
  146SAPE  C31016055   4.587   2.698   5.180  0.9239  0.9290  0.0380
  146SAPE  H10X16056   4.583   2.791   5.240  2.0360  1.2328 -0.3562
  146SAPE  H10Y16057   4.517   2.616   5.209 -0.6236  1.8360 -1.0917
  146SAPE  C31116058   4.553   2.741   5.038 -0.1283 -0.4918 -0.4121
  146SAPE  H11X16059   4.443   2.757   5.041  0.1314  1.2004  0.6546
  146SAPE  H11Y16060   4.581   2.660   4.967  0.8264  0.3983 -1.0601
  146SAPE  C31216061   4.636   2.867   4.993  0.0384 -0.6416  0.5544
  146SAPE  H12X16062   4.738   2.846   4.957 -0.5954  0.5686 -2.0388
  146SAPE  H12Y16063   4.642   2.937   5.079  0.2214 -1.0879  0.9126
  146SAPE  C31316064   4.564   2.940   4.875  0.1369 -0.0417  0.2596
  146SAPE  H13X16065   4.487   3.009   4.915  0.4706 -0.2095  1.1970
  146SAPE  H13Y16066   4.521   2.859   4.813 -0.9658  0.9537 -0.2806
  146SAPE  C31416067   4.660   3.028   4.799 -0.2953 -0.3657  0.2199
  146SAPE  H14X16068   4.746   2.974   4.756  1.5775  2.9892 -0.3696
  146SAPE  H14Y16069   4.709   3.103   4.865  0.9485 -0.7126 -0.3033
  146SAPE  C31516070   4.585   3.093   4.678  0.7355 -0.2613  0.2235
  146SAPE  H15X16071   4.519   3.174   4.716 -0.2561 -1.5708  1.3463
  146SAPE  H15Y16072   4.511   3.028   4.628  1.3880 -1.5768  0.9309
  146SAPE  C31616073   4.683   3.151   4.571  0.7453  0.5548  0.0120
  146SAPE  H16X16074   4.619   3.177   4.485 -1.9187 -4.1888  0.3435
  146SAPE  H16Y16075   4.749   3.066   4.543 -1.6352 -1.6906  1.0222
  146SAPE  C31716076   4.781   3.260   4.605  0.1719  0.4751  0.2321
  146SAPE  H17X16077   4.852   3.239   4.688  0.7671 -1.2643 -0.6861
  146SAPE  H17Y16078   4.721   3.349   4.636  0.3851 -0.1641  2.5795
  146SAPE  C31816079   4.860   3.302   4.481 -0.1239  0.6569  0.2741
  146SAPE  H18X16080   4.921   3.220   4.438 -1.0885  0.1695 -0.1849
  146SAPE  H18Y16081   4.919   3.393   4.502  2.0291 -0.7736  0.5670
  146SAPE  H18Z16082   4.791   3.327   4.398  0.3999  0.2370 -0.2939
  147SAPE     N16083   3.351   6.478   6.342  0.5518  0.5347  0.2783
  147SAPE   HN116084   3.248   6.467   6.345  0.5071  0.5612 -0.9356
  147SAPE   HN216085   3.383   6.439   6.434 -1.0489  0.9182  1.0155
  147SAPE   HN316086   3.371   6.579   6.331  0.3607  0.6776  1.1845
  147SAPE   C1216087   3.409   6.394   6.226  0.1428  0.6035 -0.0841
  147SAPE  H12A16088   3.516   6.416   6.212 -0.0296  1.6365  0.2339
  147SAPE  H12B16089   3.352   6.419   6.134 -1.4178  2.5056  1.3433
  147SAPE   C1116090   3.376   6.244   6.249  0.0343 -0.2609  0.0833
  147SAPE  H11A16091   3.453   6.202   6.318 -0.4735 -1.2456  0.0615
  147SAPE  H11B16092   3.391   6.196   6.150  0.5811 -1.9108  0.9418
  147SAPE     P16093   3.137   6.149   6.221 -0.2958  0.2678 -0.0174
  147SAPE   O1316094   3.168   6.006   6.212 -0.4590  0.0257  1.1066
  147SAPE   O1416095   2.997   6.180   6.264  0.5750  0.3108  0.1672
  147SAPE   O1216096   3.246   6.225   6.313  0.7304  0.2902 -0.2626
  147SAPE   O1116097   3.154   6.217   6.080  0.3790 -0.4036  0.0072
  147SAPE    C116098   3.055   6.198   5.975 -0.0229  0.3894 -0.5975
  147SAPE    HA16099   2.951   6.198   6.015 -0.6188  2.9625 -2.0492
  147SAPE    HB16100   3.055   6.283   5.903  2.5349  1.4914  0.6558
  147SAPE    C216101   3.075   6.075   5.885 -0.9509 -0.5422 -0.1498
  147SAPE    HS16102   3.073   5.983   5.947  1.9793 -0.6929 -0.2113
  147SAPE   O2116103   3.202   6.089   5.826 -0.1006 -0.6071  0.8321
  147SAPE   C2116104   3.254   5.972   5.781 -0.4548  0.3985  0.6427
  147SAPE   O2216105   3.217   5.855   5.808  0.1978  0.1034 -0.1548
  147SAPE   C2216106   3.381   6.009   5.704  0.8200  0.0603 -0.2933
  147SAPE   H2R16107   3.348   6.052   5.607  1.1238  1.0562  0.0367
  147SAPE   H2S16108   3.438   6.084   5.763  0.0106  1.1184 -0.8362
  147SAPE    C316109   2.965   6.080   5.773  0.4939 -0.1897  0.3096
  147SAPE    HX16110   2.978   6.172   5.711 -1.6616  0.1339  0.3222
  147SAPE    HY16111   2.868   6.081   5.825 -0.7949  0.1785 -2.0305
  147SAPE   O3116112   2.970   5.969   5.681 -0.2504  0.6814 -0.0168
  147SAPE   C3116113   2.916   5.850   5.721  0.2399 -0.1298 -0.1781
  147SAPE   O3216114   2.870   5.825   5.829 -0.2800  0.1235  0.7060
  147SAPE   C3216115   2.912   5.753   5.607 -0.5955 -0.1383  0.2512
  147SAPE   H2X16116   2.807   5.750   5.571 -1.8103 -0.5399  3.6322
  147SAPE   H2Y16117   2.941   5.655   5.649 -1.6839  0.2327  1.9133
  147SAPE   C2316118   3.462   5.883   5.666  0.2865  0.6206  0.1058
  147SAPE   H3R16119   3.482   5.820   5.755  0.9212 -2.1249 -1.8959
  147SAPE   H3S16120   3.556   5.919   5.620 -0.2559  2.2683  0.2464
  147SAPE   C2416121   3.399   5.784   5.564 -0.0117 -0.1153  0.6199
  147SAPE   H4R16122   3.359   5.837   5.475 -2.5908 -1.4314  0.9240
  147SAPE   H4S16123   3.317   5.726   5.613 -0.2235 -1.0699 -0.8186
  147SAPE   C2516124   3.507   5.683   5.527 -0.5068 -0.7062  0.2194
  147SAPE   H5R16125   3.498   5.587   5.579 -1.6627  0.1780  1.6987
  147SAPE   C2616126   3.583   5.691   5.415  0.0945  0.8872 -0.6230
  147SAPE   H6R16127   3.655   5.611   5.393 -0.2514 -0.1514  1.8467
  147SAPE   C2716128   3.575   5.804   5.309 -0.1489 -0.4368  0.2168
  147SAPE   H7R16129   3.683   5.814   5.285 -0.5300  0.8437 -1.0038
  147SAPE   H7S16130   3.556   5.904   5.353  1.1028  0.3172 -0.9045
  147SAPE   C2816131   3.480   5.772   5.192  0.2570 -0.0640  0.4901
  147SAPE   H8R16132   3.390   5.712   5.210  0.7552 -0.8521  0.3934
  147SAPE   C2916133   3.490   5.840   5.080 -0.9675 -0.3354  0.1644
  147SAPE   H9R16134   3.412   5.839   5.002  0.5175  0.1274 -1.3570
  147SAPE  C21016135   3.596   5.944   5.049  0.3739  0.1806  0.5848
  147SAPE  H10R16136   3.661   5.978   5.132  1.1477 -1.5013  0.6807
  147SAPE  H10S16137   3.538   6.033   5.014 -1.3658 -1.4077 -0.7153
  147SAPE  C21116138   3.702   5.905   4.940  0.5964 -0.2740 -0.4057
  147SAPE  H11R16139   3.797   5.861   4.972  0.1167 -2.0379 -1.3460
  147SAPE  C21216140   3.698   5.933   4.804 -0.5655 -0.1801 -0.6833
  147SAPE  H12R16141   3.791   5.911   4.751  0.5295  0.3113  0.9863
  147SAPE  C21316142   3.606   6.011   4.713 -0.0201  0.3574  0.5693
  147SAPE  H13R16143   3.644   6.041   4.613 -0.4830 -1.1465 -0.0842
  147SAPE  H13S16144   3.583   6.101   4.773  1.2311  0.9426  0.1837
  147SAPE  C21416145   3.475   5.933   4.694 -0.2043 -0.5834  0.0698
  147SAPE  H14R16146   3.481   5.823   4.682 -0.3889 -0.5735 -0.1091
  147SAPE  C21516147   3.351   5.980   4.691  0.0040  0.4645  0.1812
  147SAPE  H15R16148   3.284   5.902   4.652 -0.7081  0.3924  1.5432
  147SAPE  C21616149   3.308   6.125   4.693  0.1002 -0.0351  0.2281
  147SAPE  H16R16150   3.253   6.159   4.602  0.1434 -0.2089  0.1369
  147SAPE  H16S16151   3.394   6.189   4.723 -0.0045  0.3112 -0.1897
  147SAPE  C21716152   3.210   6.157   4.813 -0.7512 -0.2022  0.3071
  147SAPE  H17R16153   3.106   6.118   4.801 -1.1957  0.3620  2.2302
  147SAPE  H17S16154   3.208   6.267   4.825 -0.5906 -0.3194  1.4758
  147SAPE  C21816155   3.255   6.111   4.951 -0.1969 -0.8208 -0.4236
  147SAPE  H18R16156   3.351   6.165   4.968 -1.5230  1.7266 -0.9680
  147SAPE  H18S16157   3.265   6.000   4.951 -0.4903 -0.9349  3.8311
  147SAPE  C21916158   3.153   6.147   5.058  0.7562 -0.0868 -0.1868
  147SAPE  H19R16159   3.054   6.106   5.028  1.8403 -2.3854 -0.7557
  147SAPE  H19S16160   3.128   6.252   5.085 -0.5855 -0.2665 -0.6641
  147SAPE  C22016161   3.190   6.077   5.186 -0.0209 -0.3902  0.8464
  147SAPE  H20R16162   3.206   5.969   5.162 -2.3358 -0.5795  0.0052
  147SAPE  H20S16163   3.118   6.089   5.270  1.0629  0.4366  1.6827
  147SAPE  H20T16164   3.283   6.122   5.227  0.9455  0.7084 -2.3799
  147SAPE   C3316165   3.000   5.784   5.481 -1.0668 -0.2580 -0.1112
  147SAPE   H3X16166   3.106   5.802   5.509 -1.7033  1.8042  1.1259
  147SAPE   H3Y16167   2.966   5.880   5.435  0.8003 -0.3093 -1.6181
  147SAPE   C3416168   2.992   5.679   5.373 -0.0990  0.3040  0.4008
  147SAPE   H4X16169   2.886   5.648   5.366 -0.1522  0.3940  0.8004
  147SAPE   H4Y16170   3.054   5.589   5.391 -0.5362 -0.3378 -1.1487
  147SAPE   C3516171   3.030   5.729   5.231  0.1957 -0.6008 -0.0537
  147SAPE   H5X16172   3.136   5.754   5.248 -0.0910 -1.0001  2.5060
  147SAPE   H5Y16173   2.962   5.813   5.203  1.4665  0.7030  0.7422
  147SAPE   C3616174   3.018   5.615   5.124 -0.0893  0.8207 -0.5161
  147SAPE   H6X16175   2.914   5.590   5.094 -0.0597  0.0943 -0.0240
  147SAPE   H6Y16176   3.068   5.525   5.164 -0.6049  0.7012 -0.1242
  147SAPE   C3716177   3.086   5.670   4.996  0.6922 -0.4859  0.1334
  147SAPE   H7X16178   3.192   5.693   5.022  0.1455  1.1601  0.9895
  147SAPE   H7Y16179   3.033   5.763   4.967  0.5794 -0.2346  1.1451
  147SAPE   C3816180   3.099   5.555   4.895  0.2047 -0.6391  0.0613
  147SAPE   H8X16181   2.996   5.515   4.901  0.5401 -1.2509  2.2275
  147SAPE   H8Y16182   3.158   5.471   4.937 -0.1073 -0.9600 -0.1513
  147SAPE   C3916183   3.164   5.587   4.759 -0.3640 -0.5397  1.2135
  147SAPE   H9X16184   3.270   5.619   4.768  0.3631 -2.1548 -1.0725
  147SAPE   H9Y16185   3.096   5.659   4.709 -1.2940 -2.5630 -0.4880
  147SAPE  C31016186   3.170   5.467   4.670  0.2357 -0.8481 -0.4758
  147SAPE  H10X16187   3.072   5.415   4.667 -1.3296  1.9210  1.0169
  147SAPE  H10Y16188   3.240   5.386   4.701  0.0641 -1.2906 -1.2211
  147SAPE  C31116189   3.211   5.507   4.532 -0.3067  0.1242 -0.2497
  147SAPE  H11X16190   3.154   5.589   4.483  2.0948  1.0615 -1.5340
  147SAPE  H11Y16191   3.185   5.420   4.468 -0.6285  0.9839 -1.3170
  147SAPE  C31216192   3.359   5.538   4.525 -0.3023  0.5400  0.3661
  147SAPE  H12X16193   3.417   5.462   4.581  0.7059  0.5313 -0.6712
  147SAPE  H12Y16194   3.381   5.638   4.569  0.6391 -0.0191  1.1742
  147SAPE  C31316195   3.422   5.535   4.377  0.6312  0.3488  0.7648
  147SAPE  H13X16196   3.378   5.621   4.322  0.4020 -0.2451  0.0082
  147SAPE  H13Y16197   3.386   5.440   4.332 -1.1040  1.9539 -1.3537
  147SAPE  C31416198   3.577   5.527   4.382  0.3369 -0.3680 -0.5040
  147SAPE  H14X16199   3.618   5.468   4.298  1.2395 -2.4435  1.3587
  147SAPE  H14Y16200   3.603   5.477   4.478  0.0368  0.4096 -0.0067
  147SAPE  C31516201   3.640   5.663   4.378 -0.1931  0.5076  0.5155
  147SAPE  H15X16202   3.573   5.740   4.421  0.7115  3.0067 -2.3468
  147SAPE  H15Y16203   3.639   5.691   4.271  0.9090  3.7939  1.2944
  147SAPE  C31616204   3.783   5.683   4.434  0.3668  0.2348  0.3051
  147SAPE  H16X16205   3.795   5.657   4.541  1.9167  2.2985  0.6651
  147SAPE  H16Y16206   3.804   5.790   4.412 -2.3163  0.4478 -1.4126
  147SAPE  C31716207   3.899   5.606   4.356 -0.1788 -0.9323  0.8589
  147SAPE  H17X16208   3.904   5.612   4.245 -2.7861 -2.5858  0.6098
  147SAPE  H17Y16209   3.879   5.498   4.373 -1.4473 -0.8145  0.1530
  147SAPE  C31816210   4.032   5.650   4.419  0.0803 -0.0491  0.3209
  147SAPE  H18X16211   4.121   5.589   4.391  1.0127  0.8786  1.2391
  147SAPE  H18Y16212   4.014   5.653   4.529 -2.0739 -0.1522 -0.0075
  147SAPE  H18Z16213   4.050   5.759   4.408  2.9423 -0.3578  1.4613
  148SAPE     N16214   2.083   2.179   6.244 -0.1950 -0.3395  0.0464
  148SAPE   HN116215   1.980   2.168   6.251 -0.4875  1.7321 -0.6157
  148SAPE   HN216216   2.138   2.091   6.246  2.1352  1.1086  1.4390
  148SAPE   HN316217   2.117   2.239   6.322 -0.3984 -0.2464  0.0648
  148SAPE   C1216218   2.137   2.230   6.119  0.1440 -0.3045  0.6966
  148SAPE  H12A16219   2.093   2.160   6.044  0.3231  1.6703 -1.3203
  148SAPE  H12B16220   2.248   2.227   6.129  0.2120  1.3018  0.5126
  148SAPE   C1116221   2.088   2.378   6.097  0.4524 -0.2357  0.1852
  148SAPE  H11A16222   1.978   2.377   6.113  0.6946  0.9630  2.0933
  148SAPE  H11B16223   2.111   2.412   5.994  0.6718 -0.0259  0.3012
  148SAPE     P16224   2.099   2.537   6.300 -0.1184  0.2336  0.0833
  148SAPE   O1316225   2.062   2.438   6.403 -0.6328 -0.4049 -0.0529
  148SAPE   O1416226   2.191   2.651   6.340  0.9094 -0.3697 -0.8786
  148SAPE   O1216227   2.164   2.464   6.182  0.3991 -0.5245 -0.4204
  148SAPE   O1116228   1.965   2.581   6.235  0.1095 -0.2223 -0.4246
  148SAPE    C116229   1.882   2.672   6.310 -0.7994  0.2323  0.2248
  148SAPE    HA16230   1.853   2.614   6.400  0.3274 -1.7390 -0.6629
  148SAPE    HB16231   1.931   2.766   6.344 -0.8543 -0.3226  1.9065
  148SAPE    C216232   1.755   2.729   6.238 -0.1014 -0.0192  0.5977
  148SAPE    HS16233   1.698   2.782   6.317 -1.4611 -0.4915 -0.0383
  148SAPE   O2116234   1.669   2.635   6.167 -0.6708  0.1484 -0.1702
  148SAPE   C2116235   1.644   2.523   6.222  0.3082 -0.0385  0.5720
  148SAPE   O2216236   1.652   2.489   6.342  0.5585  0.1807  0.0309
  148SAPE   C2216237   1.596   2.425   6.114  0.1662  0.1209 -0.1088
  148SAPE   H2R16238   1.587   2.321   6.154 -1.7745 -0.2739 -1.5508
  148SAPE   H2S16239   1.496   2.462   6.086  0.2398 -0.4982 -1.2134
  148SAPE    C316240   1.794   2.833   6.127 -0.3126 -0.0039 -0.3466
  148SAPE    HX16241   1.851   2.909   6.184  0.0348 -0.8962  0.5132
  148SAPE    HY16242   1.693   2.871   6.097 -1.2031 -0.8633  1.4841
  148SAPE   O3116243   1.870   2.772   6.020  0.2088  0.3601  0.5177
  148SAPE   C3116244   1.965   2.844   5.963  0.2358  0.7183  0.3692
  148SAPE   O3216245   1.975   2.967   5.966 -0.2443  0.1581 -0.1279
  148SAPE   C3216246   2.055   2.741   5.886  0.0385 -0.1372 -0.2399
  148SAPE   H2X16247   1.993   2.664   5.835  0.1570  0.2266 -0.9415
  148SAPE   H2Y16248   2.105   2.683   5.966  0.5087  0.1584 -0.3180
  148SAPE   C2316249   1.698   2.408   5.998 -0.8789  0.1612  0.3526
  148SAPE   H3R16250   1.780   2.339   6.027  0.4796  0.6317 -2.1959
  148SAPE   H3S16251   1.754   2.502   5.978 -1.5186  0.1344 -1.6387
  148SAPE   C2416252   1.640   2.364   5.859  0.0333  0.5774 -0.1858
  148SAPE   H4R16253   1.574   2.441   5.814  2.4138  1.9526 -1.4155
  148SAPE   H4S16254   1.565   2.283   5.872  0.5593  0.1452  0.1553
  148SAPE   C2516255   1.750   2.338   5.762 -0.4599 -0.1432 -0.2912
  148SAPE   H5R16256   1.802   2.245   5.788 -1.9253 -0.4981  1.4231
  148SAPE   C2616257   1.793   2.418   5.664 -0.1604  1.5983 -0.4570
  148SAPE   H6R16258   1.881   2.387   5.606  0.4876 -0.5149  1.5480
  148SAPE   C2716259   1.729   2.543   5.622  0.6019 -0.4255  0.3205
  148SAPE   H7R16260   1.648   2.580   5.689  1.2172  1.2787  0.1544
  148SAPE   H7S16261   1.693   2.523   5.519  2.9185  2.7196 -1.1877
  148SAPE   C2816262   1.838   2.649   5.597 -0.2512 -0.0052  0.3106
  148SAPE   H8R16263   1.941   2.616   5.576 -1.3438 -3.0432 -0.5107
  148SAPE   C2916264   1.817   2.785   5.603  0.6511  0.2395  0.9739
  148SAPE   H9R16265   1.907   2.847   5.588  0.9735 -0.4298  0.0432
  148SAPE  C21016266   1.691   2.863   5.633 -0.2778 -0.0461 -0.0685
  148SAPE  H10R16267   1.619   2.794   5.682  1.4489 -0.7204  1.5882
  148SAPE  H10S16268   1.643   2.900   5.540 -0.1906 -0.0692 -0.1230
  148SAPE  C21116269   1.729   2.976   5.722 -0.0586  0.2927  0.2053
  148SAPE  H11R16270   1.731   2.948   5.829  2.4304 -0.3775  0.0009
  148SAPE  C21216271   1.740   3.106   5.679  0.0620 -0.7090 -0.8019
  148SAPE  H12R16272   1.748   3.195   5.744 -2.2632 -0.9362 -0.1850
  148SAPE  C21316273   1.728   3.146   5.534  0.3316  0.2304  0.0626
  148SAPE  H13R16274   1.637   3.098   5.494  1.2280 -0.1231 -1.6032
  148SAPE  H13S16275   1.815   3.102   5.479 -0.6175  0.3232 -1.5353
  148SAPE  C21416276   1.729   3.294   5.501  0.2656 -0.3619 -1.1049
  148SAPE  H14R16277   1.724   3.367   5.582 -0.7296  0.2038 -1.6613
  148SAPE  C21516278   1.731   3.344   5.379 -0.3663 -0.1461  0.7058
  148SAPE  H15R16279   1.725   3.451   5.353 -0.3309 -0.1990  0.4735
  148SAPE  C21616280   1.726   3.262   5.251 -0.5529  0.1771  0.2922
  148SAPE  H16R16281   1.775   3.165   5.272 -0.3718 -0.5848 -3.2485
  148SAPE  H16S16282   1.799   3.309   5.181 -0.8847 -0.3043 -0.3791
  148SAPE  C21716283   1.585   3.256   5.202  0.1105  0.1495  0.0808
  148SAPE  H17R16284   1.531   3.352   5.215  0.3887  0.3892 -0.4995
  148SAPE  H17S16285   1.529   3.196   5.277 -2.1131  0.7347 -1.0704
  148SAPE  C21816286   1.573   3.203   5.060 -0.3036  0.6639  0.3353
  148SAPE  H18R16287   1.657   3.256   5.011  0.6081  0.2769  1.4508
  148SAPE  H18S16288   1.477   3.247   5.026 -1.9522 -3.5400 -0.8105
  148SAPE  C21916289   1.581   3.055   5.031  0.0566  0.6742  0.2238
  148SAPE  H19R16290   1.509   3.002   5.096  0.4206  0.2163  0.2555
  148SAPE  H19S16291   1.682   3.023   5.063 -1.3600 -3.3447  0.8839
  148SAPE  C22016292   1.575   3.004   4.883 -0.2707 -0.9005  0.6658
  148SAPE  H20R16293   1.659   3.024   4.814 -0.1454 -0.2399  1.0142
  148SAPE  H20S16294   1.479   3.032   4.834  0.8096  1.2642 -0.2473
  148SAPE  H20T16295   1.566   2.893   4.887 -3.0763 -0.7288  0.4010
  148SAPE   C3316296   2.145   2.824   5.796 -0.1942  0.5554  0.0959
  148SAPE   H3X16297   2.189   2.903   5.861 -0.0194  1.5253 -1.1869
  148SAPE   H3Y16298   2.097   2.883   5.715 -0.7051  0.0661  0.0401
  148SAPE   C3416299   2.265   2.730   5.744  0.1881 -0.0003 -0.3277
  148SAPE   H4X16300   2.299   2.658   5.821  2.5972 -0.8759 -2.1447
  148SAPE   H4Y16301   2.361   2.783   5.726 -1.6358  3.2037 -0.8694
  148SAPE   C3516302   2.239   2.654   5.612  0.1366 -0.9128  0.0888
  148SAPE   H5X16303   2.158   2.578   5.618  0.8676 -1.5118  3.0483
  148SAPE   H5Y16304   2.327   2.590   5.590  0.1813 -0.4742 -1.0332
  148SAPE   C3616305   2.222   2.748   5.491  0.3083 -0.1106  0.3918
  148SAPE   H6X16306   2.316   2.797   5.458  1.0217 -0.2187  2.1895
  148SAPE   H6Y16307   2.149   2.827   5.519 -1.1391 -1.1098 -0.4693
  148SAPE   C3716308   2.165   2.681   5.363 -0.3933 -0.5860 -0.3925
  148SAPE   H7X16309   2.062   2.647   5.386  0.5210 -2.5497  0.9277
  148SAPE   H7Y16310   2.217   2.586   5.338  0.2002 -1.3748  3.4770
  148SAPE   C3816311   2.182   2.783   5.241 -0.1643  0.3929  0.8012
  148SAPE   H8X16312   2.291   2.788   5.222 -0.0010  0.5078  1.7520
  148SAPE   H8Y16313   2.152   2.884   5.277  0.3777  1.0047 -0.4433
  148SAPE   C3916314   2.097   2.744   5.114 -0.8524 -0.5264  0.2690
  148SAPE   H9X16315   2.117   2.827   5.043 -0.1550  1.2001  2.4669
  148SAPE   H9Y16316   1.989   2.744   5.141 -0.6802  0.9725  0.9867
  148SAPE  C31016317   2.151   2.613   5.052 -0.0800  0.3612  1.4624
  148SAPE  H10X16318   2.122   2.528   5.117  0.4182 -1.1172 -0.2063
  148SAPE  H10Y16319   2.261   2.620   5.038 -0.3752 -0.3331 -1.6578
  148SAPE  C31116320   2.096   2.583   4.909  0.1356  0.3580 -0.4666
  148SAPE  H11X16321   1.989   2.555   4.916  0.2435 -0.1896 -0.8740
  148SAPE  H11Y16322   2.151   2.489   4.885  0.0261 -0.0106  0.6726
  148SAPE  C31216323   2.115   2.682   4.801  0.4118 -0.2233  0.1348
  148SAPE  H12X16324   2.223   2.676   4.774  0.0975  2.1226 -1.7751
  148SAPE  H12Y16325   2.103   2.784   4.844 -0.8478 -0.4810  0.4121
  148SAPE  C31316326   2.035   2.659   4.672  0.4093  1.1915  0.1232
  148SAPE  H13X16327   1.927   2.654   4.694  0.7380  1.2565  1.8312
  148SAPE  H13Y16328   2.066   2.564   4.625  0.6946  1.8111 -0.9680
  148SAPE  C31416329   2.048   2.788   4.583  0.1042  0.0721  0.1682
  148SAPE  H14X16330   2.155   2.783   4.551  0.2062  1.0342  0.3303
  148SAPE  H14Y16331   2.038   2.882   4.641  0.9431  0.3867 -0.1847
  148SAPE  C31516332   1.963   2.773   4.452 -0.1980 -0.4394 -0.0661
  148SAPE  H15X16333   1.991   2.673   4.410  1.1910 -0.5584  1.1094
  148SAPE  H15Y16334   1.998   2.847   4.377  2.6708  1.1326  2.7494
  148SAPE  C31616335   1.816   2.783   4.485 -0.1629 -0.3050  0.1688
  148SAPE  H16X16336   1.793   2.864   4.557 -0.9356 -1.5223  1.3204
  148SAPE  H16Y16337   1.777   2.700   4.547 -2.9092  1.2489  0.5694
  148SAPE  C31716338   1.723   2.789   4.369 -0.7998  0.2039 -0.7730
  148SAPE  H17X16339   1.758   2.705   4.306  0.1575 -0.2940  0.4138
  148SAPE  H17Y16340   1.728   2.886   4.315 -2.4971  1.8103  1.8466
  148SAPE  C31816341   1.582   2.773   4.417  0.4592  0.0027  0.4301
  148SAPE  H18X16342   1.571   2.695   4.495  1.6134 -0.5429  0.0592
  148SAPE  H18Y16343   1.518   2.742   4.332 -0.7129  1.4479  0.7694
  148SAPE  H18Z16344   1.547   2.870   4.457  0.8322  0.4077 -0.2071
  149SAPE     N16345   2.571   1.643   6.411 -0.0128 -0.1383 -0.4157
  149SAPE   HN116346   2.548   1.693   6.323 -0.4959  1.2920  0.5032
  149SAPE   HN216347   2.519   1.554   6.400 -0.8969  0.0614  1.7913
  149SAPE   HN316348   2.524   1.681   6.497 -0.3204  0.7074 -0.9470
  149SAPE   C1216349   2.719   1.619   6.432 -0.1384  0.2493 -0.3117
  149SAPE  H12A16350   2.746   1.541   6.358  1.9173  0.2905  0.3622
  149SAPE  H12B16351   2.741   1.582   6.534 -2.2025 -1.2046 -0.3765
  149SAPE   C1116352   2.801   1.748   6.416  0.5265  0.8135  0.2459
  149SAPE  H11A16353   2.907   1.718   6.401  0.3654  1.5042 -2.3798
  149SAPE  H11B16354   2.792   1.801   6.514 -1.2338  0.2372  0.4060
  149SAPE     P16355   2.859   1.872   6.195  0.0059 -0.2854  0.3624
  149SAPE   O1316356   2.808   1.999   6.140  0.1518  1.0490 -0.1584
  149SAPE   O1416357   2.995   1.884   6.253  0.6590  0.2526 -0.0648
  149SAPE   O1216358   2.760   1.827   6.305  0.3024  0.5732 -0.2971
  149SAPE   O1116359   2.873   1.765   6.076 -0.4374  0.1534 -0.2778
  149SAPE    C116360   2.765   1.685   6.026  0.2767 -0.9459 -0.4437
  149SAPE    HA16361   2.714   1.640   6.113 -0.1983  0.9501  0.2872
  149SAPE    HB16362   2.692   1.755   5.980 -1.6934 -0.7261  2.8733
  149SAPE    C216363   2.817   1.570   5.938  0.4109 -0.6428  0.6262
  149SAPE    HS16364   2.743   1.487   5.936 -0.1561 -0.1260 -3.8043
  149SAPE   O2116365   2.941   1.516   5.984  0.1644  0.0390 -0.1929
  149SAPE   C2116366   2.948   1.461   6.101 -0.5314  0.0450  0.1789
  149SAPE   O2216367   2.850   1.417   6.168 -0.2213  0.3220  0.4362
  149SAPE   C2216368   3.093   1.444   6.135 -0.1512  0.7357 -0.0776
  149SAPE   H2R16369   3.146   1.516   6.070  1.1791 -1.7778 -1.8863
  149SAPE   H2S16370   3.102   1.482   6.239 -0.7989 -3.0417  1.4725
  149SAPE    C316371   2.844   1.620   5.784 -1.1019  0.5502 -0.1586
  149SAPE    HX16372   2.886   1.535   5.726 -1.2894 -0.3213  0.9716
  149SAPE    HY16373   2.920   1.699   5.803 -0.7213 -0.0626  0.9093
  149SAPE   O3116374   2.726   1.673   5.729 -0.2614 -0.5307 -0.8410
  149SAPE   C3116375   2.632   1.584   5.685  0.5017  0.0650 -0.5824
  149SAPE   O3216376   2.647   1.464   5.681 -0.1355  0.8099  0.6202
  149SAPE   C3216377   2.510   1.664   5.636  0.2330  0.4210 -0.2547
  149SAPE   H2X16378   2.541   1.767   5.606  4.3811 -0.4102  0.9560
  149SAPE   H2Y16379   2.439   1.671   5.722 -2.6755 -1.1895 -2.4094
  149SAPE   C2316380   3.146   1.305   6.113 -0.6708 -0.1317 -0.1062
  149SAPE   H3R16381   3.058   1.237   6.121 -1.2640  0.6836  0.4646
  149SAPE   H3S16382   3.210   1.265   6.194 -0.2200 -0.6257 -0.7063
  149SAPE   C2416383   3.209   1.292   5.968 -0.1422  0.0787 -0.1309
  149SAPE   H4R16384   3.173   1.365   5.892  2.3777 -0.0919 -1.5123
  149SAPE   H4S16385   3.186   1.188   5.938 -0.2525  0.4093 -1.2055
  149SAPE   C2516386   3.357   1.299   5.977 -0.7146 -0.1388 -0.4066
  149SAPE   H5R16387   3.405   1.234   6.051  0.4009  0.4672 -0.5902
  149SAPE   C2616388   3.442   1.345   5.885  0.5612  0.2713  0.4619
  149SAPE   H6R16389   3.549   1.330   5.907  0.4966 -0.8127  0.0493
  149SAPE   C2716390   3.419   1.407   5.749  0.5576 -0.2151 -0.4703
  149SAPE   H7R16391   3.319   1.445   5.719  0.7961  0.5722 -0.2781
  149SAPE   H7S16392   3.434   1.329   5.671 -0.7697 -0.0253 -0.9249
  149SAPE   C2816393   3.515   1.522   5.736 -0.5257 -0.5091  0.0573
  149SAPE   H8R16394   3.507   1.605   5.808 -1.2500 -1.2637  0.8715
  149SAPE   C2916395   3.615   1.533   5.649 -0.1569  0.2110 -0.5523
  149SAPE   H9R16396   3.676   1.624   5.663  0.5567 -0.6452  2.2248
  149SAPE  C21016397   3.649   1.427   5.551 -0.8506  0.1698 -0.2610
  149SAPE  H10R16398   3.568   1.428   5.474 -1.2837 -1.5850  0.1565
  149SAPE  H10S16399   3.653   1.332   5.609 -1.3552 -0.1136 -0.6828
  149SAPE  C21116400   3.779   1.449   5.473  0.6140  0.1300 -0.7780
  149SAPE  H11R16401   3.858   1.460   5.549 -2.1995 -0.1756  2.3152
  149SAPE  C21216402   3.815   1.465   5.344 -0.0530 -0.1350 -0.7602
  149SAPE  H12R16403   3.921   1.481   5.317  0.7863 -0.1736  2.3145
  149SAPE  C21316404   3.723   1.473   5.222  0.1214  0.1116  0.3236
  149SAPE  H13R16405   3.699   1.580   5.206 -0.7389  0.0064  0.8892
  149SAPE  H13S16406   3.623   1.427   5.241 -0.9394  1.4878 -1.8495
  149SAPE  C21416407   3.785   1.409   5.102 -0.6585  0.0052  0.8479
  149SAPE  H14R16408   3.821   1.305   5.111  1.4528  0.4371 -1.8075
  149SAPE  C21516409   3.776   1.457   4.974  0.0602 -0.4660 -0.3142
  149SAPE  H15R16410   3.835   1.402   4.899  1.1422 -1.3631  1.1566
  149SAPE  C21616411   3.703   1.585   4.931 -0.6536  0.5333 -0.1081
  149SAPE  H16R16412   3.693   1.655   5.016 -1.6356 -1.1222  1.1660
  149SAPE  H16S16413   3.614   1.558   4.869  1.9636 -0.7940 -3.4278
  149SAPE  C21716414   3.788   1.674   4.833 -0.1329 -0.0931 -0.7539
  149SAPE  H17R16415   3.819   1.611   4.748  1.0438 -2.6238  1.4727
  149SAPE  H17S16416   3.877   1.722   4.878 -1.4459  2.3228 -0.6307
  149SAPE  C21816417   3.704   1.790   4.772 -0.5357  0.2052 -0.0435
  149SAPE  H18R16418   3.770   1.864   4.722 -0.0621 -0.3525 -0.2552
  149SAPE  H18S16419   3.658   1.842   4.858  1.7182  1.0747  0.6624
  149SAPE  C21916420   3.598   1.760   4.669  0.2146  0.0105  0.5183
  149SAPE  H19R16421   3.616   1.676   4.598  0.8505  1.3278 -0.9253
  149SAPE  H19S16422   3.589   1.851   4.606  1.4149  1.0638  1.8508
  149SAPE  C22016423   3.467   1.759   4.730  0.5468  0.7470 -0.5126
  149SAPE  H20R16424   3.445   1.851   4.789 -1.0215  1.7412 -2.5919
  149SAPE  H20S16425   3.447   1.679   4.805  0.2828  0.4430 -0.9050
  149SAPE  H20T16426   3.394   1.761   4.647 -2.7303  2.2170  2.2608
  149SAPE   C3316427   2.426   1.601   5.524  0.3551  0.3820 -0.2723
  149SAPE   H3X16428   2.318   1.625   5.542  0.4180 -0.1002  0.8182
  149SAPE   H3Y16429   2.438   1.491   5.532 -0.7104  0.1639 -1.5063
  149SAPE   C3416430   2.461   1.647   5.381 -0.4851  0.8930  0.0852
  149SAPE   H4X16431   2.449   1.758   5.376  2.1795  1.1544 -1.4361
  149SAPE   H4Y16432   2.396   1.603   5.303 -0.2023  1.9531 -0.7649
  149SAPE   C3516433   2.608   1.635   5.350 -0.7233  0.3367  0.6679
  149SAPE   H5X16434   2.675   1.666   5.434  1.7188 -1.0230 -0.7063
  149SAPE   H5Y16435   2.633   1.696   5.261  1.0620  0.7093  1.3822
  149SAPE   C3616436   2.663   1.495   5.318 -0.0194 -1.0766 -0.5745
  149SAPE   H6X16437   2.672   1.435   5.412  1.7962 -0.7692 -0.5470
  149SAPE   H6Y16438   2.766   1.512   5.282  0.8214  0.1919  2.2955
  149SAPE   C3716439   2.576   1.409   5.225 -0.3085  0.4341  0.0896
  149SAPE   H7X16440   2.526   1.471   5.147  0.6497  0.9503 -0.1258
  149SAPE   H7Y16441   2.492   1.355   5.273  0.6826 -1.6397 -0.4495
  149SAPE   C3816442   2.649   1.294   5.155 -0.8122 -0.1361 -0.1080
  149SAPE   H8X16443   2.573   1.218   5.125 -1.1913 -0.0835  0.7066
  149SAPE   H8Y16444   2.718   1.231   5.216 -0.0913  0.5777 -0.1746
  149SAPE   C3916445   2.724   1.344   5.029  0.3993  0.0233 -0.5586
  149SAPE   H9X16446   2.783   1.435   5.049 -2.1891  1.7744 -0.6311
  149SAPE   H9Y16447   2.638   1.358   4.960 -0.1768  2.6573  0.6322
  149SAPE  C31016448   2.833   1.250   4.964 -0.8513 -0.4352  0.1405
  149SAPE  H10X16449   2.774   1.155   4.963 -1.8853  0.1881  0.5967
  149SAPE  H10Y16450   2.927   1.240   5.023 -0.9408 -0.0892  0.3424
  149SAPE  C31116451   2.871   1.291   4.820  0.0886  0.8011  0.2577
  149SAPE  H11X16452   2.778   1.330   4.774  0.8445  0.9740 -1.1520
  149SAPE  H11Y16453   2.895   1.198   4.764 -0.0460 -0.9211  2.9618
  149SAPE  C31216454   2.967   1.414   4.815  0.3141 -0.9543 -0.0764
  149SAPE  H12X16455   3.067   1.376   4.843  0.3033 -0.3528  0.7702
  149SAPE  H12Y16456   2.925   1.491   4.884  0.4777  1.0023 -2.1050
  149SAPE  C31316457   2.985   1.479   4.675 -0.3008 -0.1705 -0.7374
  149SAPE  H13X16458   2.887   1.478   4.624 -1.4429 -1.4531  1.4049
  149SAPE  H13Y16459   3.063   1.416   4.627  0.3219 -0.3519  0.4908
  149SAPE  C31416460   3.037   1.617   4.684  0.2937  0.2390  0.2882
  149SAPE  H14X16461   3.148   1.611   4.678  0.2897 -0.7129  1.0467
  149SAPE  H14Y16462   3.011   1.667   4.779 -0.7540 -0.2524  0.2656
  149SAPE  C31516463   2.969   1.701   4.570  0.2022  0.6041  0.3523
  149SAPE  H15X16464   2.983   1.808   4.595 -0.5626  1.2159 -1.7705
  149SAPE  H15Y16465   2.861   1.678   4.559  0.6867 -1.3571 -0.5053
  149SAPE  C31616466   3.024   1.670   4.431 -0.4397 -0.1705  0.3780
  149SAPE  H16X16467   3.045   1.562   4.419  2.8718  0.0822  3.2111
  149SAPE  H16Y16468   3.118   1.729   4.433  0.8734 -2.2656  1.4407
  149SAPE  C31716469   2.931   1.732   4.323  0.0403  0.0282 -0.4653
  149SAPE  H17X16470   2.901   1.833   4.357 -0.4305 -0.3059  0.1304
  149SAPE  H17Y16471   2.837   1.672   4.324 -0.0585  0.2015  0.3303
  149SAPE  C31816472   2.976   1.740   4.178  0.8175 -0.2405 -0.5071
  149SAPE  H18X16473   2.998   1.637   4.144 -0.8820 -0.4689 -0.9670
  149SAPE  H18Y16474   3.065   1.808   4.178 -0.0813  0.9563  0.2418
  149SAPE  H18Z16475   2.890   1.781   4.122  0.8039 -0.8838 -0.9621
  150SAPE     N16476   5.958   4.041   6.339  0.1154 -0.1749  0.6615
  150SAPE   HN116477   5.932   4.094   6.425  1.7260 -0.1674  1.1565
  150SAPE   HN216478   5.959   4.107   6.259  1.8741 -0.5993  0.3166
  150SAPE   HN316479   5.880   3.976   6.319 -0.5182  1.7575 -3.6169
  150SAPE   C1216480   6.087   3.965   6.369 -0.0079 -0.0061 -0.2189
  150SAPE  H12A16481   6.089   3.930   6.474 -0.4231 -1.1399 -0.5783
  150SAPE  H12B16482   6.175   4.032   6.356 -0.1576  0.3164  0.4084
  150SAPE   C1116483   6.100   3.833   6.287  0.2694 -0.4385 -0.2160
  150SAPE  H11A16484   6.197   3.782   6.304  1.8664  2.4767 -0.1427
  150SAPE  H11B16485   6.107   3.864   6.180  0.2524  1.2882  0.2619
  150SAPE     P16486   5.876   3.725   6.198 -0.0153 -0.6414  0.2587
  150SAPE   O1316487   5.809   3.600   6.229  0.3499 -0.1022  0.0671
  150SAPE   O1416488   5.811   3.856   6.199  1.0152  0.1873  0.2236
  150SAPE   O1216489   5.990   3.749   6.305  0.2613  0.9146 -0.5903
  150SAPE   O1116490   5.955   3.706   6.064 -0.0589 -0.0873 -0.5271
  150SAPE    C116491   5.955   3.769   5.943 -0.2092  0.2265 -0.0956
  150SAPE    HA16492   5.887   3.715   5.874  0.0120 -0.5210  0.2695
  150SAPE    HB16493   5.918   3.874   5.946 -0.5189  0.1207 -0.2412
  150SAPE    C216494   6.095   3.783   5.881 -0.0032 -0.3319 -0.2228
  150SAPE    HS16495   6.143   3.849   5.957 -0.2405  0.0065 -0.3692
  150SAPE   O2116496   6.087   3.840   5.748  0.0783 -0.0858 -0.2126
  150SAPE   C2116497   6.187   3.933   5.733 -0.5520  0.0275  0.0755
  150SAPE   O2216498   6.268   3.957   5.823 -0.1117 -0.5556  0.1692
  150SAPE   C2216499   6.168   3.992   5.597  0.7641  0.1601 -0.1522
  150SAPE   H2R16500   6.069   4.043   5.598  1.6291  2.0225  4.3653
  150SAPE   H2S16501   6.229   4.085   5.586 -1.1610  1.4880  0.0511
  150SAPE    C316502   6.155   3.640   5.867  0.1448  0.4184  0.0638
  150SAPE    HX16503   6.149   3.603   5.971 -0.6145 -0.1256 -0.1751
  150SAPE    HY16504   6.262   3.646   5.839  0.1017  0.1516 -0.1547
  150SAPE   O3116505   6.080   3.560   5.773 -0.0692 -0.4790 -0.0923
  150SAPE   C3116506   6.135   3.541   5.654  0.4621  0.2054 -0.1703
  150SAPE   O3216507   6.251   3.558   5.622  0.0400 -0.2010 -0.8622
  150SAPE   C3216508   6.018   3.503   5.560  0.1449 -0.4814 -0.7169
  150SAPE   H2X16509   5.924   3.538   5.607  1.2087  1.0793  0.3076
  150SAPE   H2Y16510   6.010   3.392   5.563  0.3157 -0.4956 -0.8025
  150SAPE   C2316511   6.202   3.896   5.481  0.1766 -0.5288 -0.6825
  150SAPE   H3R16512   6.162   3.937   5.386  1.1987  1.7923 -0.1432
  150SAPE   H3S16513   6.167   3.790   5.483  2.0260 -1.2025 -2.3165
  150SAPE   C2416514   6.356   3.883   5.461 -0.6185  0.4068 -0.0568
  150SAPE   H4R16515   6.361   3.793   5.396 -0.5433  0.0446  0.4558
  150SAPE   H4S16516   6.417   3.855   5.550  0.6102 -0.3418 -1.1115
  150SAPE   C2516517   6.415   4.002   5.387 -0.1924  0.2884  0.7268
  150SAPE   H5R16518   6.447   4.089   5.447  0.6283  0.7039 -0.2951
  150SAPE   C2616519   6.434   4.022   5.254  0.9802  0.2292  0.0575
  150SAPE   H6R16520   6.452   4.126   5.225 -0.1660  0.5953  0.6105
  150SAPE   C2716521   6.400   3.924   5.142 -0.2590 -0.0667  0.4903
  150SAPE   H7R16522   6.412   3.818   5.175 -0.4034 -0.7008 -1.3716
  150SAPE   H7S16523   6.475   3.931   5.061  0.0831 -1.2265  0.6902
  150SAPE   C2816524   6.263   3.931   5.090  0.2118 -0.8711  0.9757
  150SAPE   H8R16525   6.200   3.995   5.154 -0.5182  0.2182 -0.8116
  150SAPE   C2916526   6.221   3.874   4.978 -0.1489  0.6222 -0.9734
  150SAPE   H9R16527   6.117   3.888   4.945 -0.8748 -2.3534 -0.1671
  150SAPE  C21016528   6.292   3.782   4.889  0.5860 -1.0667 -0.3685
  150SAPE  H10R16529   6.357   3.710   4.943  2.4773 -0.7140 -2.1049
  150SAPE  H10S16530   6.366   3.847   4.837  0.3211  0.7190  1.4281
  150SAPE  C21116531   6.210   3.704   4.793  0.0848  0.2034 -0.0779
  150SAPE  H11R16532   6.136   3.645   4.849 -1.9074 -0.3735 -3.1502
  150SAPE  C21216533   6.221   3.695   4.655 -0.8226  0.6345 -0.2714
  150SAPE  H12R16534   6.143   3.644   4.598 -0.5003  0.5113 -0.5981
  150SAPE  C21316535   6.329   3.764   4.574 -0.5295 -0.3311  0.2190
  150SAPE  H13R16536   6.413   3.803   4.635 -1.2253 -0.4799  1.2942
  150SAPE  H13S16537   6.283   3.848   4.518 -0.2517 -0.6916 -0.5506
  150SAPE  C21416538   6.387   3.656   4.483 -1.3089 -0.7250 -0.4717
  150SAPE  H14R16539   6.413   3.567   4.542 -0.1695 -0.5845 -0.7327
  150SAPE  C21516540   6.403   3.665   4.347 -0.1871 -0.0931 -0.7255
  150SAPE  H15R16541   6.430   3.576   4.287  0.6134 -1.2186  1.2701
  150SAPE  C21616542   6.369   3.784   4.260  1.2283 -0.9765 -0.0406
  150SAPE  H16R16543   6.447   3.797   4.181 -0.2292  1.4190 -1.1256
  150SAPE  H16S16544   6.362   3.881   4.313  1.8288 -1.0696  0.2090
  150SAPE  C21716545   6.231   3.765   4.190 -0.5464  0.1576  0.0229
  150SAPE  H17R16546   6.158   3.753   4.273 -0.7985 -0.4421 -0.2769
  150SAPE  H17S16547   6.221   3.664   4.143 -1.3721  0.0033  0.5250
  150SAPE  C21816548   6.202   3.878   4.095  0.1190 -0.1792 -0.0547
  150SAPE  H18R16549   6.296   3.903   4.041 -0.4715  2.9036  0.2909
  150SAPE  H18S16550   6.155   3.965   4.144 -0.1234 -0.9610  1.1266
  150SAPE  C21916551   6.103   3.844   3.977 -0.1661  0.3445  0.2721
  150SAPE  H19R16552   6.096   3.934   3.913 -2.0572 -0.1821 -0.3160
  150SAPE  H19S16553   6.003   3.839   4.026 -0.7192 -0.2703 -0.8914
  150SAPE  C22016554   6.142   3.727   3.896  0.6327  0.0312 -0.0239
  150SAPE  H20R16555   6.083   3.722   3.802  2.1277  0.2425 -0.9889
  150SAPE  H20S16556   6.134   3.631   3.951  1.4723 -0.8630 -1.4467
  150SAPE  H20T16557   6.246   3.739   3.859 -0.1177  2.0955 -1.5749
  150SAPE   C3316558   6.033   3.541   5.412 -1.1927 -0.2532  0.2349
  150SAPE   H3X16559   6.115   3.485   5.363 -0.7779  2.6822 -2.5807
  150SAPE   H3Y16560   6.053   3.649   5.394 -1.0294 -0.5743 -1.6502
  150SAPE   C3416561   5.900   3.503   5.344  0.1709  0.2803  0.2879
  150SAPE   H4X16562   5.815   3.537   5.407  1.2365  1.7496  0.9765
  150SAPE   H4Y16563   5.901   3.394   5.325 -0.4859  0.3505 -0.1676
  150SAPE   C3516564   5.892   3.550   5.197 -0.2654  0.4176  0.1864
  150SAPE   H5X16565   5.983   3.519   5.141 -1.5713  0.5662 -2.0903
  150SAPE   H5Y16566   5.901   3.660   5.187  1.8369  0.2682  0.1695
  150SAPE   C3616567   5.784   3.482   5.106  0.6905 -0.3056  0.6412
  150SAPE   H6X16568   5.688   3.491   5.161  0.0662  0.8590 -0.5957
  150SAPE   H6Y16569   5.801   3.374   5.089  0.3886  0.2230 -3.8344
  150SAPE   C3716570   5.752   3.553   4.973 -0.3871  0.8067 -0.4488
  150SAPE   H7X16571   5.775   3.482   4.890 -0.9145  1.5938 -1.2825
  150SAPE   H7Y16572   5.818   3.641   4.959 -1.0004  1.2406 -0.6744
  150SAPE   C3816573   5.605   3.590   4.956 -0.7765  0.3730 -0.0882
  150SAPE   H8X16574   5.577   3.670   5.027 -0.8927 -2.3547  3.0380
  150SAPE   H8Y16575   5.544   3.498   4.973  1.7978 -0.9625  2.4383
  150SAPE   C3916576   5.570   3.638   4.814  0.2475  0.1063  0.6330
  150SAPE   H9X16577   5.606   3.562   4.742 -2.7450 -0.7299 -0.0510
  150SAPE   H9Y16578   5.614   3.740   4.808  2.7169 -0.9392  0.2514
  150SAPE  C31016579   5.419   3.660   4.801  0.1691  0.0783 -0.1302
  150SAPE  H10X16580   5.404   3.693   4.696 -1.6382 -0.5326 -0.0861
  150SAPE  H10Y16581   5.390   3.735   4.877  0.7321  0.7454 -0.5736
  150SAPE  C31116582   5.331   3.528   4.821 -0.7800 -0.2473  0.0240
  150SAPE  H11X16583   5.229   3.556   4.786 -1.2613 -0.0658  1.5590
  150SAPE  H11Y16584   5.327   3.489   4.924 -0.3285  0.7284  0.4189
  150SAPE  C31216585   5.371   3.413   4.732  0.1617 -0.1127 -0.3724
  150SAPE  H12X16586   5.463   3.366   4.775  0.6135 -1.7302 -3.0156
  150SAPE  H12Y16587   5.398   3.453   4.632  0.1494  0.3026 -0.2099
  150SAPE  C31316588   5.245   3.326   4.700 -0.9274 -0.1984  0.4035
  150SAPE  H13X16589   5.150   3.378   4.671 -1.2086 -1.2132 -0.5284
  150SAPE  H13Y16590   5.220   3.259   4.784 -2.0387  1.5403  1.5077
  150SAPE  C31416591   5.269   3.225   4.585  0.3263 -0.5962 -0.2235
  150SAPE  H14X16592   5.177   3.163   4.589 -0.6232  0.5693 -2.7116
  150SAPE  H14Y16593   5.353   3.168   4.629  0.5812  0.4680  0.6798
  150SAPE  C31516594   5.285   3.273   4.442  0.0655  0.2465  0.3691
  150SAPE  H15X16595   5.380   3.330   4.429  0.7854 -1.3808 -1.6683
  150SAPE  H15Y16596   5.197   3.334   4.410 -1.1326 -0.8119  1.5634
  150SAPE  C31616597   5.294   3.152   4.344 -0.2783 -0.0627 -0.4099
  150SAPE  H16X16598   5.227   3.070   4.378 -1.3318  1.3834  1.1035
  150SAPE  H16Y16599   5.399   3.118   4.358 -0.5749 -0.6559  0.4341
  150SAPE  C31716600   5.292   3.177   4.196 -0.0043 -0.0158  0.2914
  150SAPE  H17X16601   5.376   3.239   4.160 -2.0828  1.7020 -1.8073
  150SAPE  H17Y16602   5.196   3.232   4.187  0.6465  1.4333  1.9104
  150SAPE  C31816603   5.305   3.053   4.112 -0.1448  0.4720 -0.1170
  150SAPE  H18X16604   5.397   2.997   4.139 -0.8712  0.3533  2.1213
  150SAPE  H18Y16605   5.306   3.069   4.002  1.0534  0.6128 -0.0943
  150SAPE  H18Z16606   5.223   2.981   4.129  0.8375 -0.4694  0.6892
  151SAPE     N16607   4.751   2.340   6.460 -0.3060  0.0091 -0.5837
  151SAPE   HN116608   4.677   2.294   6.516  0.4663 -0.2575  0.2244
  151SAPE   HN216609   4.838   2.310   6.510  0.4151 -2.4986 -3.2022
  151SAPE   HN316610   4.744   2.443   6.468 -2.7057  0.1067 -3.1657
  151SAPE   C1216611   4.751   2.292   6.322 -0.5446 -0.5565 -0.3215
  151SAPE  H12A16612   4.848   2.339   6.296 -0.4138 -0.2797  0.6644
  151SAPE  H12B16613   4.673   2.346   6.265  1.1666  1.8298 -0.4439
  151SAPE   C1116614   4.756   2.141   6.283 -0.1741  0.1095  0.1703
  151SAPE  H11A16615   4.748   2.146   6.173 -1.8844  1.0946  0.3206
  151SAPE  H11B16616   4.669   2.090   6.329  0.8634  0.7649  3.0072
  151SAPE     P16617   4.911   1.928   6.296 -0.0632 -0.4172  0.0280
  151SAPE   O1316618   5.027   1.882   6.374 -0.5937  0.2003 -0.5128
  151SAPE   O1416619   4.788   1.859   6.309 -0.1158 -0.0011  0.0940
  151SAPE   O1216620   4.884   2.083   6.325  0.0980  0.2553  0.4704
  151SAPE   O1116621   4.946   1.925   6.145 -0.6522 -0.2375  0.2740
  151SAPE    C116622   4.970   1.798   6.080 -1.1414 -0.3524  0.1028
  151SAPE    HA16623   4.921   1.715   6.135 -0.3357 -0.9973 -0.1424
  151SAPE    HB16624   4.936   1.805   5.974  0.6616 -1.5211 -0.5893
  151SAPE    C216625   5.127   1.771   6.075  0.5408 -0.2710  0.0902
  151SAPE    HS16626   5.168   1.797   6.175  2.4326 -0.7284 -0.5436
  151SAPE   O2116627   5.189   1.856   5.973 -0.2693  1.1470 -0.3017
  151SAPE   C2116628   5.317   1.852   5.981  1.0541  1.1000 -0.5595
  151SAPE   O2216629   5.382   1.794   6.070  0.3001  0.1268  0.0843
  151SAPE   C2216630   5.382   1.923   5.865  0.2985  0.6845 -0.4710
  151SAPE   H2R16631   5.336   2.023   5.854  1.6730  1.4572  0.6549
  151SAPE   H2S16632   5.486   1.936   5.901 -0.3963 -2.4737  3.0847
  151SAPE    C316633   5.150   1.620   6.056 -0.6259 -0.0767  0.1538
  151SAPE    HX16634   5.100   1.567   6.140 -2.3197  1.3917  0.1114
  151SAPE    HY16635   5.257   1.596   6.069 -0.8444 -0.4188  1.4040
  151SAPE   O3116636   5.102   1.580   5.924 -0.3962  0.1683 -0.3508
  151SAPE   C3116637   4.982   1.525   5.906  0.4358  0.3785  0.6195
  151SAPE   O3216638   4.902   1.505   5.995  0.5800  0.7529  0.1445
  151SAPE   C3216639   4.960   1.472   5.761  0.0338 -0.6607 -0.1150
  151SAPE   H2X16640   5.035   1.391   5.750  0.9068  0.1029  0.2302
  151SAPE   H2Y16641   4.986   1.564   5.706  1.6843 -0.8325  0.3642
  151SAPE   C2316642   5.360   1.840   5.733  0.2105 -0.4997 -0.2547
  151SAPE   H3R16643   5.385   1.732   5.739  0.4838 -0.4040  0.3918
  151SAPE   H3S16644   5.436   1.888   5.668  1.6288 -0.8032  1.1332
  151SAPE   C2416645   5.224   1.870   5.671  0.4583 -0.1992 -0.2133
  151SAPE   H4R16646   5.229   1.978   5.643 -0.6647  0.1183  0.7849
  151SAPE   H4S16647   5.134   1.868   5.736 -0.1853  1.3693 -1.0088
  151SAPE   C2516648   5.199   1.781   5.543 -0.3533 -0.4954 -0.5467
  151SAPE   H5R16649   5.184   1.675   5.571  1.0545 -0.0282  2.1560
  151SAPE   C2616650   5.176   1.821   5.416 -0.5480  0.6926 -0.0279
  151SAPE   H6R16651   5.176   1.750   5.333  0.0379 -0.8218  1.2321
  151SAPE   C2716652   5.185   1.970   5.369 -0.8547 -0.2861  0.0152
  151SAPE   H7R16653   5.277   2.019   5.407 -0.5269  0.2518 -1.4351
  151SAPE   H7S16654   5.105   2.037   5.406  1.5114  0.5040  4.0829
  151SAPE   C2816655   5.195   1.970   5.223  0.5317 -0.1149  0.3884
  151SAPE   H8R16656   5.280   1.905   5.196  0.7941  0.6516 -0.6584
  151SAPE   C2916657   5.134   2.046   5.132  0.1856 -0.8932  0.0985
  151SAPE   H9R16658   5.162   2.037   5.026  0.3355 -0.2566  0.0832
  151SAPE  C21016659   5.030   2.154   5.163 -0.1627 -0.2521 -0.2448
  151SAPE  H10R16660   4.966   2.116   5.245  1.9093 -0.8183  1.1639
  151SAPE  H10S16661   4.973   2.170   5.069  0.5339  2.9297 -0.1811
  151SAPE  C21116662   5.105   2.282   5.203 -0.9539  0.2080 -0.2434
  151SAPE  H11R16663   5.169   2.267   5.291 -0.8895  1.7445 -0.0177
  151SAPE  C21216664   5.092   2.408   5.147 -0.1046 -0.6727  0.6308
  151SAPE  H12R16665   5.152   2.490   5.190  0.0572  1.0989 -2.8138
  151SAPE  C21316666   4.995   2.448   5.035 -0.5800 -0.0298  0.0358
  151SAPE  H13R16667   4.984   2.558   5.048  0.9709  0.1604 -0.0972
  151SAPE  H13S16668   4.893   2.410   5.057 -0.5002  0.7058  1.7820
  151SAPE  C21416669   5.039   2.402   4.897 -0.4412 -0.0622 -0.2899
  151SAPE  H14R16670   5.097   2.308   4.897  0.0427  0.2172  1.3076
  151SAPE  C21516671   5.001   2.449   4.782  0.0244 -0.5750  0.7109
  151SAPE  H15R16672   5.033   2.398   4.689  0.6101  0.8078  0.1475
  151SAPE  C21616673   4.907   2.557   4.751 -0.3831  0.1981  0.0168
  151SAPE  H16R16674   4.956   2.647   4.709  0.6882  0.4687  1.7806
  151SAPE  H16S16675   4.859   2.598   4.843 -0.5983  1.2467 -0.5496
  151SAPE  C21716676   4.793   2.512   4.661  0.3226 -0.7168  0.7416
  151SAPE  H17R16677   4.751   2.414   4.694 -2.1168  0.3900  0.9788
  151SAPE  H17S16678   4.837   2.474   4.567  0.6517  0.1796  0.5327
  151SAPE  C21816679   4.694   2.625   4.628 -0.3120  0.0331 -0.0383
  151SAPE  H18R16680   4.740   2.721   4.600 -1.0968  0.9227  1.6285
  151SAPE  H18S16681   4.640   2.658   4.720  0.7950  1.3081  0.1733
  151SAPE  C21916682   4.592   2.592   4.518 -0.6719 -0.0258  0.3797
  151SAPE  H19R16683   4.544   2.493   4.529  2.7920 -1.8178 -0.2126
  151SAPE  H19S16684   4.647   2.579   4.422 -1.0098  0.6038  0.0948
  151SAPE  C22016685   4.502   2.710   4.495  0.3848  0.7417 -0.0497
  151SAPE  H20R16686   4.437   2.724   4.584 -0.6850 -2.2604 -0.3300
  151SAPE  H20S16687   4.434   2.693   4.409 -2.6941 -0.6422  2.5672
  151SAPE  H20T16688   4.569   2.795   4.468  3.2681 -1.7623 -1.0839
  151SAPE   C3316689   4.827   1.424   5.714  0.4268  0.7092  0.6339
  151SAPE   H3X16690   4.751   1.483   5.769 -0.6264  0.4020 -0.4825
  151SAPE   H3Y16691   4.820   1.314   5.729 -0.2453  0.3811 -1.9395
  151SAPE   C3416692   4.811   1.448   5.567  0.0591 -0.3567  0.9835
  151SAPE   H4X16693   4.774   1.552   5.554  0.5672 -0.6296 -3.7498
  151SAPE   H4Y16694   4.732   1.382   5.523 -1.0314  1.5718 -0.0101
  151SAPE   C3516695   4.930   1.437   5.478  0.3755  0.0268  0.2031
  151SAPE   H5X16696   4.955   1.329   5.465  0.0627 -0.1725  1.2623
  151SAPE   H5Y16697   5.020   1.491   5.514  0.6647  1.2316 -2.1984
  151SAPE   C3616698   4.895   1.474   5.336 -0.1329 -0.4427 -0.9563
  151SAPE   H6X16699   4.873   1.583   5.329  1.6011 -0.1239 -2.0372
  151SAPE   H6Y16700   4.801   1.419   5.317 -0.4384  0.2310 -1.4416
  151SAPE   C3716701   5.001   1.429   5.228  0.9499  0.5375 -0.4889
  151SAPE   H7X16702   4.988   1.319   5.224 -0.0447  0.6175  0.1584
  151SAPE   H7Y16703   5.103   1.461   5.257  0.3215  1.5790  0.6363
  151SAPE   C3816704   4.959   1.488   5.088 -0.6364 -0.0337  0.3308
  151SAPE   H8X16705   4.849   1.508   5.093 -0.7070 -0.6517  1.2018
  151SAPE   H8Y16706   4.985   1.415   5.009 -1.0540 -1.4674  1.5061
  151SAPE   C3916707   5.027   1.618   5.053  0.0021  0.7391 -0.3697
  151SAPE   H9X16708   5.138   1.620   5.049  0.0365  1.5590  0.7749
  151SAPE   H9Y16709   4.987   1.694   5.123  0.1647 -0.4321  1.0133
  151SAPE  C31016710   4.972   1.665   4.919 -0.3973  0.5064  0.3980
  151SAPE  H10X16711   4.862   1.657   4.923 -0.2867 -1.3110  0.3522
  151SAPE  H10Y16712   5.009   1.593   4.842  0.8314  1.5904 -0.0526
  151SAPE  C31116713   5.012   1.813   4.899 -0.0832 -0.3772 -0.5668
  151SAPE  H11X16714   5.123   1.813   4.895  0.0280  1.2802  1.5770
  151SAPE  H11Y16715   4.991   1.872   4.991 -1.0447 -1.4880 -0.0481
  151SAPE  C31216716   4.944   1.879   4.772  0.2042  0.3016 -0.6715
  151SAPE  H12X16717   4.839   1.844   4.760 -0.0525  1.6961 -2.7101
  151SAPE  H12Y16718   4.999   1.842   4.684  1.1182  2.2919 -0.9639
  151SAPE  C31316719   4.927   2.033   4.786  0.1934  0.5898  0.6877
  151SAPE  H13X16720   5.030   2.071   4.804 -0.1537  1.3617  1.0860
  151SAPE  H13Y16721   4.865   2.057   4.875 -1.1521 -3.9531  1.0930
  151SAPE  C31416722   4.866   2.104   4.672  0.5497  0.2193 -0.0554
  151SAPE  H14X16723   4.903   2.066   4.574  0.0208 -0.9121  0.1742
  151SAPE  H14Y16724   4.895   2.211   4.681  0.5457  0.1807  0.3853
  151SAPE  C31516725   4.713   2.086   4.655  0.1293 -0.2665  0.4311
  151SAPE  H15X16726   4.652   2.122   4.740 -0.6811 -1.0799  0.1977
  151SAPE  H15Y16727   4.686   1.979   4.646 -0.3956  0.1395 -3.8701
  151SAPE  C31616728   4.663   2.164   4.532  0.2019  0.4066  0.0224
  151SAPE  H16X16729   4.719   2.142   4.439 -0.7462 -2.3472  0.0683
  151SAPE  H16Y16730   4.673   2.272   4.554  1.6231  0.0332  1.3126
  151SAPE  C31716731   4.520   2.145   4.490 -0.2050 -0.5096  0.2672
  151SAPE  H17X16732   4.501   2.038   4.467  0.2673 -1.0908  2.4609
  151SAPE  H17Y16733   4.499   2.206   4.400 -3.9289 -0.8124  0.8464
  151SAPE  C31816734   4.416   2.187   4.591  0.3196 -0.4635 -0.8427
  151SAPE  H18X16735   4.445   2.152   4.693  0.1661  0.3626 -0.5087
  151SAPE  H18Y16736   4.320   2.143   4.556 -0.5009 -1.7139  2.7167
  151SAPE  H18Z16737   4.412   2.298   4.596  0.2199 -0.4771 -0.6090
  152SAPE     N16738   1.158   3.467   6.311 -0.1064  0.3637  0.1444
  152SAPE   HN116739   1.146   3.487   6.412  2.1452  0.1300  0.4764
  152SAPE   HN216740   1.230   3.393   6.303 -0.5902 -0.0374 -0.5880
  152SAPE   HN316741   1.200   3.551   6.266  0.4581  1.2217  2.2316
  152SAPE   C1216742   1.030   3.435   6.237 -0.3302  0.1119  0.5124
  152SAPE  H12A16743   1.061   3.413   6.132 -0.7833  1.9836 -0.0307
  152SAPE  H12B16744   0.967   3.526   6.232  0.1408  0.4001 -0.2362
  152SAPE   C1116745   0.964   3.319   6.315 -0.0766 -0.0903  0.7874
  152SAPE  H11A16746   0.869   3.301   6.261 -0.5982  1.8236  1.0413
  152SAPE  H11B16747   0.929   3.336   6.419 -1.7573  0.7027  0.1128
  152SAPE     P16748   1.019   3.082   6.233 -0.1562 -0.0781  0.1375
  152SAPE   O1316749   0.902   2.999   6.278  0.3816 -0.2930  0.7271
  152SAPE   O1416750   1.009   3.136   6.100 -0.2355 -0.0736 -0.1090
  152SAPE   O1216751   1.045   3.204   6.327 -0.6922 -0.1944 -0.2132
  152SAPE   O1116752   1.150   2.992   6.250 -0.4663 -0.3030 -0.1268
  152SAPE    C116753   1.177   2.879   6.163 -0.0790  0.4457  0.1722
  152SAPE    HA16754   1.090   2.810   6.170 -0.6080  1.1191  0.2673
  152SAPE    HB16755   1.183   2.910   6.056  0.3109 -0.2073  0.0008
  152SAPE    C216756   1.315   2.818   6.203  0.3779  0.6159  0.5036
  152SAPE    HS16757   1.385   2.904   6.217 -1.3264  2.5340 -2.2207
  152SAPE   O2116758   1.369   2.732   6.102  0.3341  0.0045 -0.6618
  152SAPE   C2116759   1.431   2.783   6.000  0.0824 -0.5834  0.2105
  152SAPE   O2216760   1.464   2.900   5.979  0.2167  0.4593  0.2536
  152SAPE   C2216761   1.438   2.671   5.892  0.0902 -0.5615  0.1757
  152SAPE   H2R16762   1.540   2.684   5.849 -0.8042 -0.0313 -1.8101
  152SAPE   H2S16763   1.439   2.571   5.941 -0.4092 -0.8471 -0.3874
  152SAPE    C316764   1.312   2.735   6.335  0.2000  0.2830 -0.1813
  152SAPE    HX16765   1.305   2.799   6.426  1.5735 -0.0006  0.1281
  152SAPE    HY16766   1.404   2.674   6.344 -0.0759 -0.1348 -0.2050
  152SAPE   O3116767   1.197   2.649   6.341  0.2028  0.7711 -0.0752
  152SAPE   C3116768   1.215   2.514   6.311 -0.1392  0.0384  0.6035
  152SAPE   O3216769   1.322   2.456   6.309 -0.9153  0.2949  0.7601
  152SAPE   C3216770   1.075   2.459   6.284  0.3724 -0.0291 -0.0641
  152SAPE   H2X16771   1.008   2.541   6.317  0.0906  0.1166 -0.9883
  152SAPE   H2Y16772   1.052   2.372   6.350 -0.9543  0.9461  0.7838
  152SAPE   C2316773   1.330   2.693   5.783  0.0167 -0.3817  0.2311
  152SAPE   H3R16774   1.377   2.755   5.704 -2.8755  1.2623 -0.2904
  152SAPE   H3S16775   1.239   2.742   5.824 -1.1067 -2.5103  0.3742
  152SAPE   C2416776   1.287   2.561   5.713  0.0264 -0.0788  0.1655
  152SAPE   H4R16777   1.256   2.487   5.790  0.4207 -1.3751 -0.8974
  152SAPE   H4S16778   1.380   2.516   5.675 -0.2805 -1.9952  1.5859
  152SAPE   C2516779   1.181   2.564   5.604 -0.0962 -0.6814 -0.4033
  152SAPE   H5R16780   1.084   2.535   5.648  0.3192  0.4218  1.3051
  152SAPE   C2616781   1.187   2.585   5.475 -0.1027 -0.8702 -0.0516
  152SAPE   H6R16782   1.101   2.590   5.406  0.9579  3.3944 -1.2053
  152SAPE   C2716783   1.323   2.618   5.412 -0.5299 -0.8312 -0.5267
  152SAPE   H7R16784   1.377   2.527   5.378  3.0448  1.2865 -0.7590
  152SAPE   H7S16785   1.388   2.668   5.487 -1.2013 -2.1169  0.9339
  152SAPE   C2816786   1.315   2.721   5.294 -0.0956 -0.0601  0.2168
  152SAPE   H8R16787   1.230   2.791   5.294  0.2898  0.4775  2.9489
  152SAPE   C2916788   1.404   2.749   5.190 -0.3058 -0.0941  0.1713
  152SAPE   H9R16789   1.376   2.817   5.108 -0.3247 -1.7411 -1.2235
  152SAPE  C21016790   1.530   2.660   5.166 -0.0328  0.2716  0.3824
  152SAPE  H10R16791   1.501   2.554   5.182 -0.8144  0.2907 -0.8659
  152SAPE  H10S16792   1.595   2.695   5.249  1.8817 -2.1384 -0.0539
  152SAPE  C21116793   1.603   2.657   5.041  0.3485 -0.2332 -0.1966
  152SAPE  H11R16794   1.706   2.690   5.056  0.1632 -0.1619  0.9298
  152SAPE  C21216795   1.570   2.614   4.918  0.5660  0.1208 -0.0254
  152SAPE  H12R16796   1.648   2.605   4.841  4.0758  1.5126  3.1621
  152SAPE  C21316797   1.432   2.563   4.876 -0.0258 -0.2052 -0.8590
  152SAPE  H13R16798   1.356   2.598   4.949 -0.4184 -0.3065 -1.2181
  152SAPE  H13S16799   1.430   2.455   4.904 -0.4596 -0.1710 -0.7608
  152SAPE  C21416800   1.378   2.598   4.739 -0.2286  0.7284 -0.2673
  152SAPE  H14R16801   1.357   2.705   4.737  1.5782  1.1843  2.5602
  152SAPE  C21516802   1.344   2.521   4.633 -0.5055  0.3209  0.1644
  152SAPE  H15R16803   1.279   2.573   4.561 -0.4125 -0.5708 -0.5724
  152SAPE  C21616804   1.365   2.372   4.616  0.6444  0.6795 -0.3809
  152SAPE  H16R16805   1.279   2.316   4.574  1.7447 -0.5928 -0.9706
  152SAPE  H16S16806   1.402   2.327   4.711  2.0895  1.6735 -0.4612
  152SAPE  C21716807   1.478   2.355   4.505  0.4639  0.2547  0.1450
  152SAPE  H17R16808   1.559   2.427   4.528 -0.1156  0.9885 -0.0923
  152SAPE  H17S16809   1.435   2.370   4.404 -0.5765 -0.7973  0.4112
  152SAPE  C21816810   1.551   2.219   4.504 -0.4547 -0.4354 -0.5250
  152SAPE  H18R16811   1.611   2.205   4.596  0.8060 -0.9910 -1.4249
  152SAPE  H18S16812   1.613   2.205   4.414  1.0906 -0.4179  0.5149
  152SAPE  C21916813   1.445   2.105   4.492 -0.0984  0.9690  0.5294
  152SAPE  H19R16814   1.366   2.137   4.421 -1.6543  0.6280  2.1067
  152SAPE  H19S16815   1.406   2.092   4.595 -1.2345 -0.1615 -0.0287
  152SAPE  C22016816   1.505   1.973   4.467  0.0932  0.9345  0.8218
  152SAPE  H20R16817   1.531   1.966   4.359 -2.0903  1.1577  0.2636
  152SAPE  H20S16818   1.427   1.898   4.489  1.0496 -0.1528  0.5116
  152SAPE  H20T16819   1.597   1.949   4.525  0.3652  0.4100  0.1785
  152SAPE   C3316820   1.070   2.412   6.141 -0.6532  0.3761  0.3877
  152SAPE   H3X16821   0.997   2.328   6.129  2.1503 -2.1521  0.3363
  152SAPE   H3Y16822   1.169   2.371   6.112  0.0517  0.8184  2.1286
  152SAPE   C3416823   1.032   2.519   6.037 -1.0044 -0.6143 -0.6251
  152SAPE   H4X16824   1.048   2.480   5.935 -2.2945  0.5819 -1.3022
  152SAPE   H4Y16825   1.094   2.600   6.079  0.4699 -2.2790  0.4972
  152SAPE   C3516826   0.882   2.561   6.045  0.0605  0.2953  0.3997
  152SAPE   H5X16827   0.870   2.646   6.116 -1.4444 -0.5782  1.2207
  152SAPE   H5Y16828   0.811   2.476   6.055 -0.0668  0.2397 -0.9467
  152SAPE   C3616829   0.838   2.622   5.905  1.1749  0.4213 -0.7916
  152SAPE   H6X16830   0.728   2.624   5.895  1.0216  1.1406  0.7917
  152SAPE   H6Y16831   0.868   2.542   5.834 -0.3956  0.9276 -2.0477
  152SAPE   C3716832   0.917   2.757   5.889  0.2286  0.0638 -0.8065
  152SAPE   H7X16833   1.025   2.759   5.913 -0.2425 -0.0197  1.4648
  152SAPE   H7Y16834   0.884   2.834   5.962  1.9621  0.3344 -0.2938
  152SAPE   C3816835   0.898   2.809   5.742 -0.1284  0.1333  0.1269
  152SAPE   H8X16836   0.792   2.786   5.716  0.1886 -0.2411 -0.8732
  152SAPE   H8Y16837   0.965   2.737   5.691 -0.8022 -0.3536 -0.0820
  152SAPE   C3916838   0.934   2.951   5.710  0.2310  0.3484  0.5069
  152SAPE   H9X16839   1.041   2.964   5.737  0.0716  4.0245 -0.2814
  152SAPE   H9Y16840   0.878   3.025   5.772 -0.8142  1.1846 -1.3994
  152SAPE  C31016841   0.904   2.987   5.561 -0.1216  0.7213  0.5925
  152SAPE  H10X16842   0.949   3.086   5.539 -0.8921  1.3605  1.8067
  152SAPE  H10Y16843   0.795   2.987   5.540  0.0364  0.4096 -0.2584
  152SAPE  C31116844   0.970   2.888   5.458  0.2685  0.3635 -0.3447
  152SAPE  H11X16845   0.926   2.786   5.463  2.0756 -0.3617  1.5640
  152SAPE  H11Y16846   1.075   2.875   5.495  0.6843  0.4222 -1.4906
  152SAPE  C31216847   0.995   2.946   5.311  0.0299  0.1502  0.6139
  152SAPE  H12X16848   0.900   2.984   5.267  0.7294  2.3124  0.9144
  152SAPE  H12Y16849   1.031   2.863   5.247 -0.6047 -0.8453  1.5239
  152SAPE  C31316850   1.106   3.048   5.300 -0.1137  0.5647 -0.3751
  152SAPE  H13X16851   1.205   3.014   5.338 -0.0596  0.2670 -0.7811
  152SAPE  H13Y16852   1.082   3.141   5.355 -0.2376  0.4858 -0.2939
  152SAPE  C31416853   1.111   3.109   5.161 -0.1846  0.6005 -0.0021
  152SAPE  H14X16854   1.193   3.183   5.158  1.9828 -1.7248  0.6194
  152SAPE  H14Y16855   1.014   3.161   5.142 -0.7726 -0.1615  0.8502
  152SAPE  C31516856   1.136   3.006   5.050  0.1139  0.2093 -0.6264
  152SAPE  H15X16857   1.051   2.935   5.060  0.1215  0.3183  0.2919
  152SAPE  H15Y16858   1.227   2.945   5.065  0.6331  1.2603  0.6541
  152SAPE  C31616859   1.128   3.059   4.908 -0.0067 -0.5857  0.0002
  152SAPE  H16X16860   1.181   3.156   4.903  0.7057 -0.8484  1.9982
  152SAPE  H16Y16861   1.027   3.089   4.873  0.8177  0.0538 -1.9348
  152SAPE  C31716862   1.178   2.957   4.799 -0.7923 -0.0918  0.1327
  152SAPE  H17X16863   1.287   2.959   4.821 -0.6776 -0.3154 -0.3888
  152SAPE  H17Y16864   1.156   3.001   4.699 -0.1639 -0.6861 -0.2776
  152SAPE  C31816865   1.129   2.811   4.808 -0.3435 -0.3262 -1.0150
  152SAPE  H18X16866   1.019   2.807   4.800 -0.4959  1.5855 -0.2120
  152SAPE  H18Y16867   1.167   2.762   4.901  0.4192 -2.9163 -2.6443
  152SAPE  H18Z16868   1.157   2.751   4.719  1.8877  0.9622 -1.2248
  153SAPE     N16869   5.844   3.337   6.140 -0.0347 -0.1226 -0.3707
  153SAPE   HN116870   5.885   3.273   6.211 -0.9851  0.8212  1.0585
  153SAPE   HN216871   5.794   3.417   6.186  3.0295  0.7106  1.6678
  153SAPE   HN316872   5.775   3.275   6.094  0.4944 -0.1194 -1.1598
  153SAPE   C1216873   5.955   3.379   6.050  0.5779  0.3378  0.2277
  153SAPE  H12A16874   6.010   3.462   6.099 -0.4346  1.1474  0.0069
  153SAPE  H12B16875   5.907   3.425   5.961 -0.7471  0.0779  0.7892
  153SAPE   C1116876   6.038   3.252   6.019  0.4702 -0.4726 -0.3904
  153SAPE  H11A16877   6.113   3.278   5.942  2.3190 -0.3993  1.4017
  153SAPE  H11B16878   5.969   3.180   5.971 -2.6545 -0.3315  3.5722
  153SAPE     P16879   6.246   3.206   6.174 -0.3362  0.1716  0.1886
  153SAPE   O1316880   6.267   3.337   6.248  0.2208 -0.0925  0.5941
  153SAPE   O1416881   6.267   3.089   6.256 -0.0115  0.0845  0.2055
  153SAPE   O1216882   6.098   3.198   6.135  0.4669 -0.1932 -0.4475
  153SAPE   O1116883   6.315   3.195   6.031 -0.4657 -0.0728  0.0473
  153SAPE    C116884   6.364   3.319   5.977  0.1034  0.4795  0.7326
  153SAPE    HA16885   6.390   3.308   5.869 -0.5031  0.1994  0.6181
  153SAPE    HB16886   6.294   3.405   5.976  0.4145  0.7295 -0.3570
  153SAPE    C216887   6.498   3.360   6.041 -0.4056 -0.0363 -0.0326
  153SAPE    HS16888   6.493   3.321   6.145  2.4696 -3.7834 -1.1744
  153SAPE   O2116889   6.520   3.498   6.023  0.2154  0.6004 -1.0322
  153SAPE   C2116890   6.602   3.546   6.105 -0.3625 -0.5118  0.1445
  153SAPE   O2216891   6.655   3.495   6.204 -0.3218 -0.4517 -0.3294
  153SAPE   C2216892   6.639   3.692   6.070 -0.6024  0.0054 -0.1482
  153SAPE   H2R16893   6.734   3.677   6.014  0.0402 -2.9122  1.6147
  153SAPE   H2S16894   6.557   3.736   6.009  0.1859  1.6228 -0.0711
  153SAPE    C316895   6.614   3.282   5.969  1.0089 -0.7312  0.0055
  153SAPE    HX16896   6.571   3.180   5.965 -1.0826  0.1666 -1.2030
  153SAPE    HY16897   6.710   3.282   6.023  1.3467  1.1954 -0.5609
  153SAPE   O3116898   6.627   3.338   5.837  0.0379 -0.0916  0.2757
  153SAPE   C3116899   6.741   3.404   5.806 -0.2552  0.5069 -0.5524
  153SAPE   O3216900   6.839   3.408   5.878 -0.5612 -0.3055 -0.0346
  153SAPE   C3216901   6.734   3.443   5.662  0.0968 -0.2383  0.2447
  153SAPE   H2X16902   6.734   3.353   5.597 -0.7045  2.8491 -4.2896
  153SAPE   H2Y16903   6.831   3.490   5.635  1.1577 -2.0041  0.9514
  153SAPE   C2316904   6.659   3.781   6.189  0.3707 -0.0830  0.2909
  153SAPE   H3R16905   6.731   3.751   6.268 -1.8280 -0.9664  2.0136
  153SAPE   H3S16906   6.563   3.784   6.246  1.0029  0.7911  1.3267
  153SAPE   C2416907   6.703   3.926   6.158 -0.8460  0.4454  0.6489
  153SAPE   H4R16908   6.811   3.923   6.130 -0.7053  0.5389  1.1800
  153SAPE   H4S16909   6.706   3.981   6.254  2.2821  0.1122  0.8181
  153SAPE   C2516910   6.612   3.991   6.059 -0.1276 -0.0976 -0.2572
  153SAPE   H5R16911   6.514   4.015   6.104 -0.0968 -0.4947  0.0193
  153SAPE   C2616912   6.639   4.026   5.927 -0.8128  0.4660 -0.8763
  153SAPE   H6R16913   6.556   4.044   5.856 -0.3812 -0.5759 -1.6527
  153SAPE   C2716914   6.775   4.013   5.860 -0.0635  0.3574  0.3865
  153SAPE   H7R16915   6.849   3.976   5.934  0.1945 -0.1681 -0.1307
  153SAPE   H7S16916   6.806   4.117   5.839 -0.1303 -0.0342 -1.7677
  153SAPE   C2816917   6.761   3.940   5.726 -0.3984  0.4143 -0.0704
  153SAPE   H8R16918   6.672   3.957   5.664 -0.1625  2.0807  0.0232
  153SAPE   C2916919   6.864   3.869   5.670  0.2244  0.4598 -1.1489
  153SAPE   H9R16920   6.845   3.812   5.578 -0.2535  0.8766 -1.3061
  153SAPE  C21016921   6.999   3.850   5.729 -0.6582  0.7789  0.0030
  153SAPE  H10R16922   7.012   3.913   5.819  0.5019  1.2453 -0.4844
  153SAPE  H10S16923   7.075   3.893   5.660 -0.0697  1.1494  0.8707
  153SAPE  C21116924   7.017   3.707   5.765  0.1948 -0.4750 -0.4368
  153SAPE  H11R16925   6.931   3.669   5.823 -2.0651  2.0311 -2.0339
  153SAPE  C21216926   7.114   3.615   5.728 -0.2208 -0.5690 -0.2386
  153SAPE  H12R16927   7.099   3.512   5.764  0.4784 -0.1710  1.2636
  153SAPE  C21316928   7.236   3.644   5.656  0.1919  0.1420 -0.1868
  153SAPE  H13R16929   7.257   3.751   5.674 -2.1877  0.5542  0.2390
  153SAPE  H13S16930   7.209   3.642   5.548 -0.3947  2.1303 -0.0857
  153SAPE  C21416931   7.358   3.563   5.679  0.3747 -0.1337  0.0494
  153SAPE  H14R16932   7.365   3.506   5.773  2.3568  0.0229  0.0246
  153SAPE  C21516933   7.454   3.547   5.586  0.1098 -0.3346  0.0835
  153SAPE  H15R16934   7.533   3.477   5.617  1.2310 -0.1497 -2.2281
  153SAPE  C21616935   7.457   3.602   5.444 -0.0781  0.5786  0.2334
  153SAPE  H16R16936   7.562   3.587   5.410 -0.0148 -0.1538  0.7309
  153SAPE  H16S16937   7.433   3.710   5.437  5.1456  1.8492 -0.1723
  153SAPE  C21716938   7.371   3.528   5.332  0.2333  0.5113 -0.0885
  153SAPE  H17R16939   7.264   3.551   5.353  0.1658 -0.1760  0.3316
  153SAPE  H17S16940   7.378   3.418   5.337 -0.4529  0.3698 -1.9926
  153SAPE  C21816941   7.401   3.586   5.198 -0.4234  0.8277 -0.0338
  153SAPE  H18R16942   7.474   3.527   5.138 -2.4581 -0.1341 -1.6209
  153SAPE  H18S16943   7.436   3.691   5.208  0.3906  1.0677 -4.1633
  153SAPE  C21916944   7.282   3.587   5.100 -0.1553  0.4743 -0.1011
  153SAPE  H19R16945   7.197   3.640   5.148 -1.9107  0.0548 -2.6802
  153SAPE  H19S16946   7.252   3.482   5.080  1.9045 -0.2446  0.3689
  153SAPE  C22016947   7.322   3.650   4.964  0.2260  0.7088 -1.0297
  153SAPE  H20R16948   7.345   3.758   4.974  0.1007  0.8602 -2.3122
  153SAPE  H20S16949   7.236   3.632   4.895 -0.5389  1.8259 -0.3688
  153SAPE  H20T16950   7.403   3.594   4.911 -0.1970 -0.4637 -0.4573
  153SAPE   C3316951   6.619   3.540   5.641 -0.0975  0.1161  0.2199
  153SAPE   H3X16952   6.644   3.642   5.678  1.6687 -0.3314  0.2968
  153SAPE   H3Y16953   6.525   3.509   5.691  0.7619 -1.9141  0.6106
  153SAPE   C3416954   6.586   3.541   5.494  0.1664 -0.4218  0.3350
  153SAPE   H4X16955   6.487   3.588   5.479  0.3291 -0.0127  0.5570
  153SAPE   H4Y16956   6.565   3.433   5.474 -0.3197 -0.4038  0.7556
  153SAPE   C3516957   6.683   3.604   5.392 -0.4159  0.2880 -0.6769
  153SAPE   H5X16958   6.780   3.552   5.404 -1.1807 -1.3452 -1.4410
  153SAPE   H5Y16959   6.704   3.710   5.418  0.6160  0.0074 -0.3496
  153SAPE   C3616960   6.641   3.596   5.245  0.6853 -0.1191 -0.8373
  153SAPE   H6X16961   6.580   3.687   5.224  2.6314  1.2580 -0.6345
  153SAPE   H6Y16962   6.569   3.512   5.235  0.4669  0.0268 -0.4829
  153SAPE   C3716963   6.756   3.577   5.148  0.8089 -0.5890 -0.6537
  153SAPE   H7X16964   6.797   3.476   5.168 -1.8834 -1.6462 -0.3088
  153SAPE   H7Y16965   6.835   3.655   5.157  0.9876 -0.6984 -1.2795
  153SAPE   C3816966   6.709   3.578   5.003 -0.5598 -0.2670 -0.7013
  153SAPE   H8X16967   6.698   3.687   4.981 -0.6909  0.1472  1.3580
  153SAPE   H8Y16968   6.604   3.541   4.996 -0.9058  0.8968 -1.9573
  153SAPE   C3916969   6.813   3.498   4.919 -0.6295  0.0020 -0.0433
  153SAPE   H9X16970   6.752   3.440   4.847 -2.3183  0.6968  0.8026
  153SAPE   H9Y16971   6.855   3.416   4.981 -0.2839 -0.3562 -0.7473
  153SAPE  C31016972   6.916   3.585   4.839  0.1812 -0.5191 -0.7831
  153SAPE  H10X16973   6.989   3.612   4.918  0.9259 -3.1502 -0.5114
  153SAPE  H10Y16974   6.864   3.678   4.808 -0.3274 -0.7107 -0.5262
  153SAPE  C31116975   6.988   3.518   4.723 -0.7362 -0.5084 -0.2761
  153SAPE  H11X16976   6.903   3.479   4.663 -1.4993 -0.2417  0.6253
  153SAPE  H11Y16977   7.047   3.437   4.770  0.1212 -0.0655 -0.5734
  153SAPE  C31216978   7.071   3.617   4.642 -0.0918 -0.8533 -0.3321
  153SAPE  H12X16979   7.147   3.660   4.710  0.8249 -0.3172 -1.6696
  153SAPE  H12Y16980   7.005   3.697   4.602  1.3837  0.8947  0.6630
  153SAPE  C31316981   7.154   3.558   4.528  0.6284  0.3018  0.1386
  153SAPE  H13X16982   7.089   3.505   4.455  0.4804 -1.2028  1.3472
  153SAPE  H13Y16983   7.217   3.476   4.568 -0.0939 -0.8715 -1.1065
  153SAPE  C31416984   7.230   3.660   4.450  0.3024 -0.3684 -0.7936
  153SAPE  H14X16985   7.280   3.736   4.514 -1.0720 -0.0474 -0.0646
  153SAPE  H14Y16986   7.159   3.721   4.390  0.6798 -0.6021 -1.4793
  153SAPE  C31516987   7.331   3.583   4.370 -0.3883  0.6225  0.0650
  153SAPE  H15X16988   7.278   3.530   4.288 -1.5983  0.1997  1.0951
  153SAPE  H15Y16989   7.384   3.507   4.431 -0.6061  1.3145  1.1314
  153SAPE  C31616990   7.434   3.669   4.290  0.0266  0.1009  0.2249
  153SAPE  H16X16991   7.498   3.727   4.361  1.3222 -1.6786  0.5236
  153SAPE  H16Y16992   7.385   3.746   4.226  1.6322 -1.7033 -3.2477
  153SAPE  C31716993   7.513   3.573   4.201 -0.0066 -0.0932 -0.0299
  153SAPE  H17X16994   7.546   3.484   4.259 -0.4962  1.4036  2.6681
  153SAPE  H17Y16995   7.604   3.633   4.181  0.4629  0.0008  2.2019
  153SAPE  C31816996   7.447   3.548   4.060 -0.1908  0.3976 -0.1366
  153SAPE  H18X16997   7.373   3.467   4.077 -1.0770  1.3490  0.6433
  153SAPE  H18Y16998   7.525   3.508   3.992 -0.3781  2.2243 -1.4564
  153SAPE  H18Z16999   7.409   3.643   4.015  0.2403 -0.9166 -3.4059
  154SAPE     N17000   4.183   0.138   6.288 -0.0522  0.1248 -0.3442
  154SAPE   HN117001   4.162   0.127   6.390  1.6396 -0.4731 -0.0467
  154SAPE   HN217002   4.271   0.195   6.289  0.2477 -0.3321 -0.9015
  154SAPE   HN317003   4.106   0.197   6.251  0.4960  0.7557 -0.4886
  154SAPE   C1217004   4.192   0.008   6.218  0.9085 -0.1260  0.7547
  154SAPE  H12A17005   4.270  -0.052   6.269 -0.0199 -3.4331 -1.5151
  154SAPE  H12B17006   4.220   0.022   6.112 -1.0548  0.5864  0.3182
  154SAPE   C1117007   4.067  -0.074   6.217 -0.4920 -0.0450 -0.3541
  154SAPE  H11A17008   4.084  -0.167   6.159 -0.4262 -0.1971 -0.0895
  154SAPE  H11B17009   3.994  -0.027   6.148 -0.3572  0.2009 -0.3298
  154SAPE     P17010   4.061  -0.187   6.451 -0.1144 -0.1418  0.0094
  154SAPE   O1317011   4.187  -0.132   6.503  0.3081 -0.2673 -0.2699
  154SAPE   O1417012   3.954  -0.224   6.543 -0.1803  0.0145  0.8217
  154SAPE   O1217013   4.000  -0.083   6.347 -0.1936 -1.0208 -0.1311
  154SAPE   O1117014   4.092  -0.308   6.357  0.1824 -0.2590  0.6149
  154SAPE    C117015   3.982  -0.379   6.301 -0.2573 -0.0929  0.0904
  154SAPE    HA17016   3.931  -0.434   6.383  3.3492 -4.1407 -0.1918
  154SAPE    HB17017   3.910  -0.311   6.250 -2.9509 -2.4893  0.5632
  154SAPE    C217018   4.036  -0.493   6.203  0.7213 -0.8741  0.4078
  154SAPE    HS17019   4.109  -0.549   6.265  0.5139  0.5048  1.9442
  154SAPE   O2117020   4.103  -0.429   6.086  0.1015 -0.1898  0.2036
  154SAPE   C2117021   4.187  -0.502   6.025 -0.6014 -1.1441 -0.2055
  154SAPE   O2217022   4.232  -0.613   6.057 -0.3385 -0.0350  0.3048
  154SAPE   C2217023   4.238  -0.426   5.894 -0.1426  0.1827  1.1376
  154SAPE   H2R17024   4.295  -0.339   5.930 -1.9636  2.3567 -1.0886
  154SAPE   H2S17025   4.305  -0.495   5.838 -1.8966 -0.3993 -0.3115
  154SAPE    C317026   3.925  -0.591   6.160 -0.1989  0.3557  0.2114
  154SAPE    HX17027   3.875  -0.625   6.253 -1.8407 -0.4741 -0.9598
  154SAPE    HY17028   3.975  -0.680   6.117 -3.2817 -0.1588 -2.4969
  154SAPE   O3117029   3.832  -0.534   6.064 -0.3584  0.0792 -0.2558
  154SAPE   C3117030   3.844  -0.571   5.937  0.5912 -0.7542 -0.0798
  154SAPE   O3217031   3.925  -0.654   5.896  0.0027  0.2485 -0.2717
  154SAPE   C3217032   3.747  -0.491   5.845  0.4749 -0.4725 -0.0284
  154SAPE   H2X17033   3.802  -0.394   5.842 -0.3244  0.0298  1.2262
  154SAPE   H2Y17034   3.652  -0.458   5.891  0.9893 -0.5981  1.1411
  154SAPE   C2317035   4.123  -0.386   5.796 -0.3691  0.1376  0.1229
  154SAPE   H3R17036   4.071  -0.299   5.841  1.5079  0.5646  1.5321
  154SAPE   H3S17037   4.053  -0.471   5.781 -0.7313  0.9129 -2.8809
  154SAPE   C2417038   4.196  -0.343   5.665 -0.2948  0.3441 -1.1263
  154SAPE   H4R17039   4.280  -0.272   5.681  0.6886 -0.8448 -0.9601
  154SAPE   H4S17040   4.124  -0.276   5.613 -0.8460  0.4708 -0.2133
  154SAPE   C2517041   4.245  -0.454   5.577  0.7438  0.2857 -0.1485
  154SAPE   H5R17042   4.352  -0.470   5.597  0.6284  1.3192  1.4257
  154SAPE   C2617043   4.166  -0.530   5.498  0.4116 -0.7655  0.4721
  154SAPE   H6R17044   4.212  -0.615   5.445 -1.6877 -0.3034 -2.1696
  154SAPE   C2717045   4.014  -0.517   5.464  0.0348  0.3884 -0.0400
  154SAPE   H7R17046   3.965  -0.452   5.539 -1.1238  0.7024 -1.0454
  154SAPE   H7S17047   3.975  -0.617   5.493  0.8573 -0.0286 -0.3643
  154SAPE   C2817048   3.986  -0.491   5.317 -0.2460  0.3414 -0.7232
  154SAPE   H8R17049   3.950  -0.577   5.259 -1.0894 -0.6177  1.1796
  154SAPE   C2917050   3.996  -0.369   5.260 -0.6840 -0.5300  0.1409
  154SAPE   H9R17051   3.993  -0.369   5.150 -0.4911  0.1465  0.1319
  154SAPE  C21017052   4.036  -0.239   5.323  0.0507  0.0535  0.3728
  154SAPE  H10R17053   4.101  -0.181   5.255  1.6365  1.7440  3.2371
  154SAPE  H10S17054   4.116  -0.260   5.397  2.0832 -2.1407 -2.3247
  154SAPE  C21117055   3.931  -0.152   5.386  0.0708 -0.1029  0.0414
  154SAPE  H11R17056   3.901  -0.171   5.490  0.1961  1.4095  0.3639
  154SAPE  C21217057   3.877  -0.039   5.340  0.2523 -0.8007  0.1513
  154SAPE  H12R17058   3.800   0.006   5.403  0.3943 -0.9540  0.4336
  154SAPE  C21317059   3.909   0.014   5.202 -0.5846 -0.0291 -0.0235
  154SAPE  H13R17060   3.823  -0.012   5.137 -0.1049  1.3966 -1.2471
  154SAPE  H13S17061   3.999  -0.030   5.154 -1.0375 -0.9077 -0.0750
  154SAPE  C21417062   3.912   0.164   5.190  0.0585  0.0524  0.8455
  154SAPE  H14R17063   3.834   0.210   5.252  0.2601  2.5650 -0.6955
  154SAPE  C21517064   3.983   0.238   5.103 -0.2725 -0.0406 -0.6548
  154SAPE  H15R17065   3.969   0.347   5.100  0.3824  0.0975  0.8387
  154SAPE  C21617066   4.087   0.183   5.012  0.4387  0.5046 -0.5461
  154SAPE  H16R17067   4.079   0.073   4.999  0.1583  0.5375 -0.6567
  154SAPE  H16S17068   4.189   0.209   5.046  0.1653 -2.2497  2.6170
  154SAPE  C21717069   4.075   0.208   4.861  0.6020  0.7218 -0.7433
  154SAPE  H17R17070   4.066   0.318   4.846  1.3161  0.6519 -1.7478
  154SAPE  H17S17071   3.976   0.168   4.829  0.8028 -1.3596  1.1248
  154SAPE  C21817072   4.203   0.159   4.783  0.6901  0.1363  0.6066
  154SAPE  H18R17073   4.219   0.051   4.803  0.4458 -0.3594 -1.8154
  154SAPE  H18S17074   4.299   0.209   4.810  0.8152 -0.0303  0.4626
  154SAPE  C21917075   4.179   0.159   4.627 -0.1719 -0.0180 -0.5516
  154SAPE  H19R17076   4.150   0.259   4.587 -0.1200 -0.1179 -0.8384
  154SAPE  H19S17077   4.091   0.093   4.613  0.6900 -0.6516 -3.3923
  154SAPE  C22017078   4.304   0.115   4.544  0.7156 -0.0569  0.1637
  154SAPE  H20R17079   4.294   0.141   4.437  0.3866 -1.7460 -0.2274
  154SAPE  H20S17080   4.331   0.008   4.556 -2.2753 -1.1148 -2.1954
  154SAPE  H20T17081   4.388   0.175   4.586  0.3095 -0.2089  1.1972
  154SAPE   C3317082   3.731  -0.563   5.703  0.5419  0.0413  0.6573
  154SAPE   H3X17083   3.666  -0.653   5.707 -0.1727  0.4722 -0.8932
  154SAPE   H3Y17084   3.831  -0.592   5.662 -1.9149 -5.4620 -1.9967
  154SAPE   C3417085   3.650  -0.478   5.604 -0.1794 -0.0123 -0.1507
  154SAPE   H4X17086   3.712  -0.391   5.572  4.2283 -1.8355  2.8466
  154SAPE   H4Y17087   3.554  -0.449   5.652  0.1259  2.4882 -0.9591
  154SAPE   C3517088   3.605  -0.568   5.493 -0.2549  0.3927 -0.8787
  154SAPE   H5X17089   3.548  -0.658   5.524  1.3372 -1.3015 -2.6929
  154SAPE   H5Y17090   3.693  -0.621   5.450 -0.8581 -0.7059 -0.7604
  154SAPE   C3617091   3.530  -0.500   5.373 -0.1320 -0.0688  0.1809
  154SAPE   H6X17092   3.430  -0.459   5.398  0.4746  2.2563 -1.0247
  154SAPE   H6Y17093   3.523  -0.587   5.304 -0.8312  0.7207 -0.7403
  154SAPE   C3717094   3.605  -0.391   5.296 -0.2415  0.0242 -0.7125
  154SAPE   H7X17095   3.683  -0.437   5.231 -0.5888 -0.2799 -0.9119
  154SAPE   H7Y17096   3.675  -0.331   5.358  0.6943 -0.9936 -0.7620
  154SAPE   C3817097   3.521  -0.300   5.198 -0.0156  0.7918 -0.7303
  154SAPE   H8X17098   3.453  -0.236   5.258 -1.0524 -0.9075 -0.0535
  154SAPE   H8Y17099   3.460  -0.369   5.135 -1.5626 -1.0173  2.6261
  154SAPE   C3917100   3.607  -0.212   5.111 -0.1200 -0.5075 -0.3629
  154SAPE   H9X17101   3.676  -0.148   5.171 -0.7210 -1.0908  0.9508
  154SAPE   H9Y17102   3.532  -0.145   5.062 -0.0762 -0.4007 -0.2847
  154SAPE  C31017103   3.697  -0.292   5.019  0.2158  0.5811  0.1064
  154SAPE  H10X17104   3.638  -0.372   4.970  1.1051  1.3361 -2.2365
  154SAPE  H10Y17105   3.790  -0.333   5.064 -0.5185 -0.6200  0.5612
  154SAPE  C31117106   3.753  -0.224   4.896 -0.3787 -0.1182  0.1942
  154SAPE  H11X17107   3.797  -0.125   4.920  0.9218 -0.7954  0.6413
  154SAPE  H11Y17108   3.664  -0.214   4.829  0.9277  0.2339 -1.5082
  154SAPE  C31217109   3.859  -0.318   4.831  0.5458 -0.5840 -0.5240
  154SAPE  H12X17110   3.804  -0.415   4.823 -0.9962  0.1958  0.3082
  154SAPE  H12Y17111   3.950  -0.321   4.895  0.9645  0.7106 -1.0469
  154SAPE  C31317112   3.912  -0.290   4.691  1.0255  0.6570  0.3581
  154SAPE  H13X17113   3.906  -0.385   4.634 -0.0963 -1.3205  3.5994
  154SAPE  H13Y17114   4.019  -0.264   4.697  1.7583 -1.5898 -1.8409
  154SAPE  C31417115   3.847  -0.178   4.613  0.0224 -0.4632 -0.4799
  154SAPE  H14X17116   3.870  -0.078   4.656 -2.3893 -0.4197  0.7421
  154SAPE  H14Y17117   3.739  -0.189   4.636  0.6674 -1.1602  2.2862
  154SAPE  C31517118   3.875  -0.190   4.458 -0.0437  0.2320  0.1890
  154SAPE  H15X17119   3.843  -0.290   4.420 -0.2372 -0.5139  2.2381
  154SAPE  H15Y17120   3.985  -0.183   4.446 -0.0095  1.0628  0.9402
  154SAPE  C31617121   3.801  -0.090   4.377  0.3179 -0.0326 -0.0640
  154SAPE  H16X17122   3.793   0.005   4.434  0.0246 -0.4122  0.5308
  154SAPE  H16Y17123   3.694  -0.119   4.367  0.8672 -1.1688 -3.1275
  154SAPE  C31717124   3.856  -0.048   4.246 -0.4352 -0.1223 -0.0528
  154SAPE  H17X17125   3.867  -0.133   4.175  0.4710 -0.3844  0.3946
  154SAPE  H17Y17126   3.962  -0.015   4.256 -0.1123 -1.3162  0.5380
  154SAPE  C31817127   3.768   0.056   4.178 -0.2666  0.4847 -0.2845
  154SAPE  H18X17128   3.665   0.022   4.154 -0.4974  0.5374  0.6282
  154SAPE  H18Y17129   3.813   0.091   4.082  1.7438 -2.6343 -0.5795
  154SAPE  H18Z17130   3.779   0.151   4.233 -0.2448  1.5661 -2.1131
  155SAPE     N17131   5.245   7.273   6.147  0.4092  0.1403  0.4212
  155SAPE   HN117132   5.218   7.196   6.212 -1.2553  1.5333  1.4154
  155SAPE   HN217133   5.264   7.221   6.059  2.1363 -1.5069  1.7131
  155SAPE   HN317134   5.322   7.321   6.198  0.3654 -1.0285  1.6106
  155SAPE   C1217135   5.120   7.358   6.132  0.1492 -0.1161  0.1756
  155SAPE  H12A17136   5.035   7.291   6.105  0.1509 -0.1896  0.3503
  155SAPE  H12B17137   5.137   7.442   6.062  2.3847 -0.1478  0.6521
  155SAPE   C1117138   5.088   7.418   6.275 -0.1462  0.1668 -0.2855
  155SAPE  H11A17139   4.989   7.466   6.267  0.1239  0.9460  0.9060
  155SAPE  H11B17140   5.164   7.495   6.300  0.0535  0.1529 -0.8542
  155SAPE     P17141   4.967   7.241   6.434 -0.0424 -0.1091  0.5176
  155SAPE   O1317142   5.022   7.148   6.539  0.3266  0.7660 -0.1404
  155SAPE   O1417143   4.874   7.343   6.481  0.1192 -0.2718 -0.0626
  155SAPE   O1217144   5.093   7.317   6.377  0.2821 -0.4777  0.0232
  155SAPE   O1117145   4.907   7.163   6.311 -0.9368  0.6984  0.0112
  155SAPE    C117146   4.783   7.218   6.259  0.0913 -0.2931  0.0698
  155SAPE    HA17147   4.700   7.193   6.328 -0.4197  2.7853  0.6047
  155SAPE    HB17148   4.794   7.327   6.244 -1.8834 -0.2137 -0.9019
  155SAPE    C217149   4.747   7.154   6.123 -0.2002  0.4556 -0.2800
  155SAPE    HS17150   4.732   7.048   6.152 -0.4496  0.1257 -1.5849
  155SAPE   O2117151   4.851   7.162   6.028 -0.2943  0.4680 -0.1381
  155SAPE   C2117152   4.855   7.077   5.928  0.3449 -0.1950  0.6023
  155SAPE   O2217153   4.784   6.978   5.922 -0.5897  0.2372 -0.6558
  155SAPE   C2217154   4.965   7.124   5.828  0.0730  0.2069 -0.2372
  155SAPE   H2R17155   4.943   7.233   5.825 -1.2363 -0.0523 -0.6407
  155SAPE   H2S17156   5.064   7.108   5.876  0.1201 -0.6385 -0.6116
  155SAPE    C317157   4.615   7.205   6.055 -0.7305 -0.4193 -0.1702
  155SAPE    HX17158   4.532   7.198   6.129  0.7415  0.3676  1.5739
  155SAPE    HY17159   4.594   7.144   5.964  0.5456  0.5542 -1.1306
  155SAPE   O3117160   4.643   7.339   6.012  0.6887 -0.0370 -0.1729
  155SAPE   C3117161   4.542   7.405   5.969 -0.1744  0.1728 -0.6627
  155SAPE   O3217162   4.427   7.369   5.973  0.4213 -0.3927 -0.3208
  155SAPE   C3217163   4.587   7.552   5.933 -0.3934  0.1334  0.0605
  155SAPE   H2X17164   4.538   7.619   6.007 -0.5409 -0.5706  0.6077
  155SAPE   H2Y17165   4.534   7.573   5.838  2.5643 -1.6211 -2.0674
  155SAPE   C2317166   4.960   7.052   5.694 -0.5171 -0.0151 -0.7228
  155SAPE   H3R17167   4.970   6.943   5.717  2.3870  0.8313  2.4026
  155SAPE   H3S17168   5.035   7.081   5.617 -0.9032 -1.2762 -1.5945
  155SAPE   C2417169   4.818   7.056   5.630 -0.5846 -0.3788  0.0658
  155SAPE   H4R17170   4.741   7.030   5.706  0.5304  1.0931  1.7815
  155SAPE   H4S17171   4.817   6.977   5.553 -2.0791 -2.4186  2.1201
  155SAPE   C2517172   4.786   7.192   5.564  0.2548  0.0125 -0.0563
  155SAPE   H5R17173   4.871   7.244   5.517  1.5572 -1.8119  0.2299
  155SAPE   C2617174   4.669   7.259   5.567 -0.1763  0.8952  0.6386
  155SAPE   H6R17175   4.658   7.358   5.519 -0.2080 -0.6381 -2.6033
  155SAPE   C2717176   4.548   7.207   5.638  0.0770  0.5118  0.3411
  155SAPE   H7R17177   4.563   7.209   5.748  0.1776  0.2869  0.3330
  155SAPE   H7S17178   4.529   7.100   5.611  0.0479  1.1972 -2.5036
  155SAPE   C2817179   4.427   7.286   5.601  0.2049 -0.4087  0.0500
  155SAPE   H8R17180   4.378   7.335   5.687  1.9753  0.9702  0.3098
  155SAPE   C2917181   4.371   7.284   5.478  0.7802  0.4335 -0.4774
  155SAPE   H9R17182   4.284   7.347   5.456  0.7297  1.6587  2.9824
  155SAPE  C21017183   4.413   7.202   5.356 -0.2087  0.8190 -1.1928
  155SAPE  H10R17184   4.349   7.112   5.347 -0.7635  1.0672  0.0625
  155SAPE  H10S17185   4.514   7.160   5.375 -0.0013  1.8070 -0.0613
  155SAPE  C21117186   4.388   7.287   5.227  0.9706  0.0274  0.0749
  155SAPE  H11R17187   4.288   7.330   5.212  1.6378  1.3290 -0.6911
  155SAPE  C21217188   4.480   7.323   5.137  0.4152 -0.5658 -0.5108
  155SAPE  H12R17189   4.444   7.372   5.045 -0.6733  1.5447  0.9883
  155SAPE  C21317190   4.627   7.288   5.150 -0.1913  0.2914  0.0177
  155SAPE  H13R17191   4.658   7.181   5.153  2.2644  0.8584 -2.4634
  155SAPE  H13S17192   4.677   7.341   5.234  1.0786 -0.9168  0.0543
  155SAPE  C21417193   4.689   7.326   5.024 -0.3421  0.8169 -0.0931
  155SAPE  H14R17194   4.658   7.268   4.936  1.7975 -0.0640 -0.2695
  155SAPE  C21517195   4.783   7.421   4.999  0.8699 -0.9067  0.5877
  155SAPE  H15R17196   4.828   7.428   4.899 -0.6226  0.9241  0.0078
  155SAPE  C21617197   4.846   7.502   5.112  0.6815  0.1664 -0.2409
  155SAPE  H16R17198   4.880   7.433   5.193 -0.0753 -0.6696 -0.6194
  155SAPE  H16S17199   4.772   7.571   5.157 -0.1339  0.6116 -2.2313
  155SAPE  C21717200   4.953   7.601   5.056 -0.5561  0.3218  1.3340
  155SAPE  H17R17201   5.042   7.553   5.011 -1.1456 -1.4770  2.0218
  155SAPE  H17S17202   4.990   7.664   5.140  0.9079  0.6743  0.4492
  155SAPE  C21817203   4.885   7.689   4.950 -0.7622 -0.4100 -0.1466
  155SAPE  H18R17204   4.798   7.741   4.996 -0.2642  1.8858 -1.7147
  155SAPE  H18S17205   4.855   7.626   4.863 -3.2993  0.7540 -0.1748
  155SAPE  C21917206   4.975   7.804   4.903  0.2318 -0.0683  0.0334
  155SAPE  H19R17207   5.057   7.748   4.853 -0.7322 -0.7815 -0.7797
  155SAPE  H19S17208   5.003   7.843   5.003 -0.8164 -1.3689  0.8626
  155SAPE  C22017209   4.921   7.905   4.811  0.4322 -0.4229 -0.4871
  155SAPE  H20R17210   5.005   7.964   4.769 -0.9027  1.0839 -1.1147
  155SAPE  H20S17211   4.858   7.980   4.865 -0.0113 -1.2903  0.2274
  155SAPE  H20T17212   4.873   7.855   4.725  0.4405 -2.4265  0.6383
  155SAPE   C3317213   4.739   7.572   5.924  0.5166 -0.3017 -0.4852
  155SAPE   H3X17214   4.790   7.529   6.013 -1.3789 -1.7752 -0.0939
  155SAPE   H3Y17215   4.757   7.681   5.937 -0.4126 -0.1134 -0.7315
  155SAPE   C3417216   4.795   7.528   5.792 -0.0634 -0.1534 -0.9126
  155SAPE   H4X17217   4.750   7.589   5.711 -2.0015 -0.1326  0.1388
  155SAPE   H4Y17218   4.772   7.420   5.778 -1.6285 -0.3300  2.4982
  155SAPE   C3517219   4.953   7.544   5.795  0.1528  0.0169  0.1383
  155SAPE   H5X17220   4.994   7.465   5.861 -0.3809  0.2324  0.7329
  155SAPE   H5Y17221   4.989   7.637   5.844  0.2301  0.0526  0.0143
  155SAPE   C3617222   5.011   7.512   5.655  0.3090  0.1085 -0.0304
  155SAPE   H6X17223   4.988   7.598   5.588  0.4559  0.7532  0.7295
  155SAPE   H6Y17224   4.952   7.427   5.615 -0.5700 -0.2840  2.0014
  155SAPE   C3717225   5.161   7.491   5.653 -1.0396 -0.2835  0.2198
  155SAPE   H7X17226   5.174   7.394   5.705  0.8867 -1.6395 -2.6344
  155SAPE   H7Y17227   5.217   7.574   5.701  0.8980 -0.3054 -1.9241
  155SAPE   C3817228   5.212   7.472   5.506 -0.4753 -0.2533 -0.5184
  155SAPE   H8X17229   5.316   7.435   5.508 -0.2417  0.4547  0.5753
  155SAPE   H8Y17230   5.209   7.568   5.449 -1.9175 -0.6209 -1.0945
  155SAPE   C3917231   5.128   7.372   5.435 -0.4528 -0.6182 -0.6414
  155SAPE   H9X17232   5.024   7.408   5.416 -0.3557 -1.2349 -2.4232
  155SAPE   H9Y17233   5.125   7.273   5.485  2.7356 -1.0623 -1.2486
  155SAPE  C31017234   5.173   7.345   5.294 -0.1662 -0.5327 -0.4604
  155SAPE  H10X17235   5.283   7.332   5.291  0.0195  1.2888 -2.2816
  155SAPE  H10Y17236   5.149   7.429   5.225  1.3387 -1.5038 -2.2133
  155SAPE  C31117237   5.111   7.216   5.235 -0.5770 -0.4366  0.6723
  155SAPE  H11X17238   5.002   7.234   5.228 -0.6308 -1.0971 -0.2869
  155SAPE  H11Y17239   5.119   7.128   5.302 -1.1693 -0.6564  0.4525
  155SAPE  C31217240   5.162   7.177   5.087  0.1576  0.1989  1.3609
  155SAPE  H12X17241   5.111   7.087   5.045  0.9451  0.8837 -1.1378
  155SAPE  H12Y17242   5.269   7.147   5.092  0.8899  1.3047 -4.4153
  155SAPE  C31317243   5.163   7.295   4.984  0.6605  0.1036 -0.4106
  155SAPE  H13X17244   5.205   7.387   5.028 -1.1411 -0.6761  3.1779
  155SAPE  H13Y17245   5.059   7.320   4.953  0.6874  0.4159 -0.2509
  155SAPE  C31417246   5.242   7.254   4.860  0.3569 -0.2278 -0.0291
  155SAPE  H14X17247   5.191   7.165   4.818  0.2188 -0.8331  1.3649
  155SAPE  H14Y17248   5.341   7.216   4.895 -0.2918  0.8742  3.2416
  155SAPE  C31517249   5.249   7.365   4.754 -0.1349 -0.4439 -0.9205
  155SAPE  H15X17250   5.285   7.458   4.803  0.8486  0.2334 -2.9071
  155SAPE  H15Y17251   5.144   7.387   4.725 -0.1612  1.6900  0.6288
  155SAPE  C31617252   5.336   7.321   4.637  0.2730  0.4966  0.6748
  155SAPE  H16X17253   5.286   7.240   4.579 -1.1585  0.5062  1.8887
  155SAPE  H16Y17254   5.438   7.288   4.664  0.8574 -0.2693 -2.2605
  155SAPE  C31717255   5.341   7.433   4.532 -0.8635 -0.2894  0.0489
  155SAPE  H17X17256   5.383   7.524   4.581  1.1456 -0.2971 -1.5852
  155SAPE  H17Y17257   5.234   7.456   4.514 -1.3321 -1.2988  1.4353
  155SAPE  C31817258   5.433   7.403   4.415  0.9442  0.0206  0.6230
  155SAPE  H18X17259   5.437   7.492   4.348  0.3514 -0.0584  0.4786
  155SAPE  H18Y17260   5.395   7.322   4.350  0.2714 -0.2020  1.2948
  155SAPE  H18Z17261   5.536   7.371   4.443  1.9982  0.5879 -2.4225
  156SAPE     N17262   6.780   2.049   6.238 -0.3144 -0.0476 -0.4737
  156SAPE   HN117263   6.710   1.975   6.257 -2.0922  1.3483 -1.4055
  156SAPE   HN217264   6.844   2.055   6.319 -2.3490 -2.4066  1.3916
  156SAPE   HN317265   6.725   2.138   6.234 -2.0145 -1.0501  0.0851
  156SAPE   C1217266   6.856   2.023   6.110 -0.0722 -0.2252  0.0756
  156SAPE  H12A17267   6.902   2.117   6.074 -0.9229 -0.3395 -1.3741
  156SAPE  H12B17268   6.778   2.002   6.033  0.0538  3.9278 -1.3010
  156SAPE   C1117269   6.960   1.910   6.117 -0.0341  0.4675 -1.2732
  156SAPE  H11A17270   7.029   1.946   6.197 -1.0667 -2.0222  0.8124
  156SAPE  H11B17271   7.014   1.901   6.021  1.6825 -0.7073 -0.2107
  156SAPE     P17272   6.937   1.653   6.120 -0.7691 -0.0003 -0.4025
  156SAPE   O1317273   6.915   1.555   6.229  0.1335  0.8223  0.1716
  156SAPE   O1417274   6.877   1.634   5.988 -0.4268  0.2621 -0.2548
  156SAPE   O1217275   6.902   1.791   6.166 -0.2556 -0.2554  0.4118
  156SAPE   O1117276   7.088   1.678   6.096 -1.0710 -0.0490 -0.2503
  156SAPE    C117277   7.176   1.664   6.207  0.2988 -0.5670 -0.2623
  156SAPE    HA17278   7.148   1.735   6.287  1.1828 -0.8451  0.3048
  156SAPE    HB17279   7.167   1.572   6.267 -0.7219  1.4359  2.7678
  156SAPE    C217280   7.324   1.691   6.160 -0.3682  0.2091  0.4547
  156SAPE    HS17281   7.391   1.712   6.247  0.4640  0.8303 -0.3127
  156SAPE   O2117282   7.345   1.795   6.065 -0.4278 -0.2290 -0.0225
  156SAPE   C2117283   7.315   1.920   6.093  0.8104  0.4831 -0.1461
  156SAPE   O2217284   7.287   1.961   6.206  0.0007  0.1166 -0.7187
  156SAPE   C2217285   7.307   1.998   5.961  0.3205 -0.4870  0.1970
  156SAPE   H2R17286   7.410   2.011   5.922  0.4144 -0.1262  0.5652
  156SAPE   H2S17287   7.238   1.947   5.890  0.8386 -2.3592  1.0196
  156SAPE    C317288   7.382   1.558   6.094 -0.0371 -0.1118 -0.6326
  156SAPE    HX17289   7.377   1.472   6.163  1.4149 -2.9050 -3.8839
  156SAPE    HY17290   7.486   1.584   6.066  0.0492  2.2666  1.6095
  156SAPE   O3117291   7.314   1.537   5.969 -0.1790  0.3056 -0.6584
  156SAPE   C3117292   7.221   1.455   5.984 -0.2625  0.3973  0.5107
  156SAPE   O3217293   7.193   1.382   6.077  0.0484 -0.0708 -0.5489
  156SAPE   C3217294   7.139   1.452   5.859 -0.1591 -0.8604 -0.6557
  156SAPE   H2X17295   7.121   1.561   5.846 -0.0662 -0.7975 -0.2715
  156SAPE   H2Y17296   7.044   1.398   5.881 -2.7621  3.9360  0.7948
  156SAPE   C2317297   7.256   2.147   5.982 -0.0055 -0.1518 -0.8424
  156SAPE   H3R17298   7.332   2.203   6.041 -0.5064 -1.4350  1.0627
  156SAPE   H3S17299   7.166   2.136   6.045  1.1544  0.0618  0.8798
  156SAPE   C2417300   7.215   2.224   5.860 -0.8069 -0.2238 -0.4198
  156SAPE   H4R17301   7.303   2.218   5.792  0.2688 -0.0725  0.9352
  156SAPE   H4S17302   7.216   2.331   5.891  0.3434 -0.1060 -0.8396
  156SAPE   C2517303   7.091   2.185   5.784 -0.0576  0.1929 -0.1003
  156SAPE   H5R17304   6.998   2.206   5.839 -1.1472  0.6512 -2.0514
  156SAPE   C2617305   7.086   2.118   5.667 -0.8180  0.5810  0.2219
  156SAPE   H6R17306   6.984   2.096   5.630 -0.7277  2.0288 -0.9260
  156SAPE   C2717307   7.196   2.072   5.567  0.2251  0.8149  0.1249
  156SAPE   H7R17308   7.299   2.110   5.584  0.2585  1.4492 -1.4429
  156SAPE   H7S17309   7.169   2.116   5.469 -1.6363  2.5990  1.3898
  156SAPE   C2817310   7.210   1.919   5.561  0.5145 -0.7489 -1.1175
  156SAPE   H8R17311   7.186   1.869   5.657 -2.4327  0.9218 -0.9163
  156SAPE   C2917312   7.222   1.844   5.446 -0.0472  0.3697  0.0568
  156SAPE   H9R17313   7.241   1.736   5.451  1.7051  0.6756  0.3051
  156SAPE  C21017314   7.233   1.901   5.304  0.3358  0.1710 -0.1772
  156SAPE  H10R17315   7.290   1.824   5.249  0.9427  1.0144 -0.7374
  156SAPE  H10S17316   7.304   1.987   5.309  1.3379 -0.6191 -0.6328
  156SAPE  C21117317   7.115   1.936   5.223  0.0494 -0.0377  0.3971
  156SAPE  H11R17318   7.023   1.883   5.253 -0.3714  0.8967  0.7924
  156SAPE  C21217319   7.112   2.017   5.112  0.1746 -0.1991  0.6867
  156SAPE  H12R17320   7.013   2.038   5.068 -1.2789 -0.8245  3.5449
  156SAPE  C21317321   7.227   2.087   5.045  0.2842  0.7918  0.2661
  156SAPE  H13R17322   7.317   2.024   5.063 -0.0110  0.1139 -0.5652
  156SAPE  H13S17323   7.244   2.182   5.099 -2.2035  1.2806  0.2742
  156SAPE  C21417324   7.214   2.138   4.904 -0.1096 -0.1182 -0.7177
  156SAPE  H14R17325   7.152   2.228   4.894 -1.6679 -0.8193  2.0862
  156SAPE  C21517326   7.256   2.074   4.790  0.1191 -0.3569 -0.0366
  156SAPE  H15R17327   7.254   2.134   4.698 -2.3696 -0.0826  0.1610
  156SAPE  C21617328   7.314   1.934   4.779  0.9334 -0.0146 -0.2197
  156SAPE  H16R17329   7.312   1.892   4.882 -0.0408  0.8706  0.1259
  156SAPE  H16S17330   7.424   1.940   4.767  1.2157 -0.6572  1.7185
  156SAPE  C21717331   7.249   1.842   4.678  0.0060  0.1831  0.0192
  156SAPE  H17R17332   7.291   1.739   4.687 -0.6051 -0.0620  0.1554
  156SAPE  H17S17333   7.277   1.871   4.575 -1.2679 -1.8282 -0.9397
  156SAPE  C21817334   7.096   1.840   4.698  0.4516  0.0041 -0.4773
  156SAPE  H18R17335   7.056   1.777   4.616  1.1841 -0.1876 -0.6896
  156SAPE  H18S17336   7.057   1.944   4.694  0.2011  0.0744  2.7321
  156SAPE  C21917337   7.055   1.782   4.835  0.3869 -0.8103  0.4361
  156SAPE  H19R17338   6.945   1.790   4.852  0.4551 -3.0630  2.1952
  156SAPE  H19S17339   7.099   1.852   4.910  1.7062 -0.8556 -0.2848
  156SAPE  C22017340   7.095   1.637   4.861 -0.1173 -0.0709  0.2452
  156SAPE  H20R17341   7.066   1.602   4.962 -0.6091 -0.4660 -0.0325
  156SAPE  H20S17342   7.205   1.635   4.848 -0.2411  0.6852 -1.0432
  156SAPE  H20T17343   7.051   1.565   4.788  0.0738 -0.5290  0.5835
  156SAPE   C3317344   7.206   1.412   5.725  0.1244  0.3267 -0.5989
  156SAPE   H3X17345   7.193   1.302   5.715 -0.3017  0.2507  0.6852
  156SAPE   H3Y17346   7.313   1.437   5.746  0.0864 -1.0436  1.3457
  156SAPE   C3417347   7.161   1.494   5.602 -0.4455  0.3151 -0.4637
  156SAPE   H4X17348   7.197   1.598   5.616 -0.0909  0.0225  0.9162
  156SAPE   H4Y17349   7.052   1.478   5.591 -0.6792  0.3856  1.6037
  156SAPE   C3517350   7.239   1.457   5.469  0.1673 -0.0477  0.3134
  156SAPE   H5X17351   7.198   1.529   5.395  1.3744  1.5448  1.1668
  156SAPE   H5Y17352   7.207   1.354   5.442 -1.7837 -0.2855  3.3060
  156SAPE   C3617353   7.390   1.472   5.471  0.5965 -0.0793 -0.0940
  156SAPE   H6X17354   7.438   1.394   5.534  2.2347 -0.0831 -1.2767
  156SAPE   H6Y17355   7.418   1.574   5.503 -0.4693  0.1276  0.1830
  156SAPE   C3717356   7.452   1.455   5.332 -0.1454  0.7966  0.3313
  156SAPE   H7X17357   7.405   1.376   5.270  1.4652 -2.0748  2.6077
  156SAPE   H7Y17358   7.558   1.424   5.348 -1.0669 -2.5876  0.1185
  156SAPE   C3817359   7.458   1.591   5.259  0.6333 -0.4075  0.3786
  156SAPE   H8X17360   7.482   1.677   5.325  0.1678  0.0926 -0.0947
  156SAPE   H8Y17361   7.360   1.601   5.207  0.8665 -0.7217 -0.1254
  156SAPE   C3917362   7.545   1.597   5.136  0.0239  0.2886 -0.8055
  156SAPE   H9X17363   7.492   1.541   5.057 -1.3076 -0.3138  0.4773
  156SAPE   H9Y17364   7.637   1.536   5.151  0.1690  0.7961  0.4258
  156SAPE  C31017365   7.600   1.734   5.098  0.3086 -0.7231 -0.2964
  156SAPE  H10X17366   7.656   1.786   5.178 -0.1384 -2.1374  0.9617
  156SAPE  H10Y17367   7.509   1.797   5.084  1.4245  0.9885  0.0511
  156SAPE  C31117368   7.671   1.739   4.970 -0.3671 -0.2387  0.3138
  156SAPE  H11X17369   7.766   1.680   4.976  0.5117  1.1729  0.3852
  156SAPE  H11Y17370   7.695   1.846   4.955 -0.3194 -0.5157 -1.7244
  156SAPE  C31217371   7.588   1.680   4.860  0.1824  0.2623  0.6650
  156SAPE  H12X17372   7.480   1.701   4.868  0.1401  0.2856  0.0233
  156SAPE  H12Y17373   7.615   1.572   4.858  1.0101  0.4575  0.9486
  156SAPE  C31317374   7.644   1.732   4.727 -0.5704 -0.3685  0.3466
  156SAPE  H13X17375   7.754   1.717   4.719 -0.5773 -0.1653 -0.1144
  156SAPE  H13Y17376   7.628   1.841   4.735 -0.8052 -0.4885  1.6501
  156SAPE  C31417377   7.576   1.670   4.604 -0.0226 -0.2594  0.4281
  156SAPE  H14X17378   7.474   1.716   4.605  0.6737  1.5953 -3.2380
  156SAPE  H14Y17379   7.579   1.560   4.616  1.3145 -0.1763  0.9215
  156SAPE  C31517380   7.634   1.706   4.460 -0.3121  0.3623  0.4311
  156SAPE  H15X17381   7.738   1.668   4.457 -0.2357  0.4425  1.6481
  156SAPE  H15Y17382   7.647   1.816   4.460 -0.3581  0.3763 -1.6565
  156SAPE  C31617383   7.542   1.646   4.354 -0.1918  0.5978  0.2792
  156SAPE  H16X17384   7.439   1.670   4.387 -0.8030  0.7866 -1.7058
  156SAPE  H16Y17385   7.547   1.535   4.348 -1.8514  0.5877 -1.2063
  156SAPE  C31717386   7.561   1.724   4.225  0.2733 -0.9215 -0.6035
  156SAPE  H17X17387   7.635   1.676   4.157  0.3992 -0.3638 -0.8622
  156SAPE  H17Y17388   7.605   1.824   4.247  0.6084 -1.1739 -0.0873
  156SAPE  C31817389   7.429   1.749   4.146  0.0124 -0.0879  0.2258
  156SAPE  H18X17390   7.399   1.652   4.102 -3.3620  0.2435  1.5948
  156SAPE  H18Y17391   7.441   1.827   4.068  2.6414  0.0876  0.7389
  156SAPE  H18Z17392   7.341   1.792   4.199  0.1976  0.3123  0.2099
  157SAPE     N17393   6.068   0.378   6.183 -0.2449  0.1555  0.5545
  157SAPE   HN117394   6.017   0.423   6.105  1.8591  1.6709  0.0109
  157SAPE   HN217395   6.164   0.416   6.195  1.0291 -2.5407 -0.6178
  157SAPE   HN317396   6.089   0.278   6.160  0.4151 -0.4031  3.3354
  157SAPE   C1217397   5.982   0.409   6.300  0.1253  0.0918  0.6198
  157SAPE  H12A17398   6.013   0.363   6.397  2.0213 -1.2237 -0.5690
  157SAPE  H12B17399   5.883   0.366   6.276 -0.3996  1.2504  0.7260
  157SAPE   C1117400   5.978   0.562   6.330 -0.0271 -0.6886  0.6102
  157SAPE  H11A17401   5.911   0.601   6.409  0.4024 -0.0908  0.6744
  157SAPE  H11B17402   5.932   0.603   6.237  2.3559 -1.9332 -1.1853
  157SAPE     P17403   6.117   0.759   6.314  0.1398  0.5414 -0.1410
  157SAPE   O1317404   6.000   0.838   6.357  0.4151 -0.3081 -0.0619
  157SAPE   O1417405   6.249   0.801   6.358 -0.2602 -0.4005  0.4070
  157SAPE   O1217406   6.106   0.612   6.349 -1.1086 -0.3833  0.2688
  157SAPE   O1117407   6.117   0.769   6.155  0.3803  0.5532  0.1623
  157SAPE    C117408   6.240   0.745   6.089 -0.5200 -0.2841  0.0742
  157SAPE    HA17409   6.314   0.680   6.139 -0.4019  1.2404  1.9148
  157SAPE    HB17410   6.214   0.710   5.986 -1.6394 -1.2927  0.6883
  157SAPE    C217411   6.304   0.887   6.062  0.2054  0.7983  0.1432
  157SAPE    HS17412   6.293   0.953   6.151  2.0613 -1.0918  1.8417
  157SAPE   O2117413   6.240   0.934   5.942 -0.2789 -0.3375 -0.5709
  157SAPE   C2117414   6.238   1.061   5.928  0.2243  0.0434  1.0461
  157SAPE   O2217415   6.288   1.148   6.002 -0.1094  0.0529  0.0064
  157SAPE   C2217416   6.162   1.105   5.796  0.9743 -0.6940  0.4235
  157SAPE   H2R17417   6.126   1.011   5.748  0.5884  0.3512 -1.3759
  157SAPE   H2S17418   6.076   1.163   5.836  1.8698  1.1565 -0.2881
  157SAPE    C317419   6.457   0.882   6.031 -0.0190  0.5359 -0.0440
  157SAPE    HX17420   6.510   0.846   6.122  1.6942 -2.2916 -2.0753
  157SAPE    HY17421   6.490   0.984   6.002 -3.1996  1.2411 -1.4408
  157SAPE   O3117422   6.478   0.781   5.928 -0.4234 -0.2627 -0.2239
  157SAPE   C3117423   6.602   0.718   5.933  0.4651  0.3550  0.5672
  157SAPE   O3217424   6.692   0.754   6.005  0.3027  0.3744  0.5424
  157SAPE   C3217425   6.604   0.599   5.838  0.4107  0.2651 -0.0561
  157SAPE   H2X17426   6.657   0.516   5.889  0.5888  2.2305  3.0805
  157SAPE   H2Y17427   6.663   0.629   5.749 -0.8268  0.5248 -0.8042
  157SAPE   C2317428   6.251   1.190   5.697  0.2672 -0.1862 -0.6176
  157SAPE   H3R17429   6.297   1.277   5.749 -0.3660 -0.5985  0.6630
  157SAPE   H3S17430   6.187   1.234   5.617  0.9372 -1.0239 -1.6124
  157SAPE   C2417431   6.363   1.102   5.637 -0.0946 -0.3468  0.0844
  157SAPE   H4R17432   6.335   0.999   5.606  2.3389 -1.7609  2.3511
  157SAPE   H4S17433   6.431   1.071   5.719  1.4742 -1.4698 -1.5899
  157SAPE   C2517434   6.458   1.177   5.551  0.7557 -0.7644 -0.3998
  157SAPE   H5R17435   6.518   1.257   5.596  0.4219 -0.9839  0.4342
  157SAPE   C2617436   6.484   1.149   5.425 -0.1095 -0.0545  0.0479
  157SAPE   H6R17437   6.550   1.215   5.367 -1.0048  0.9567  0.1599
  157SAPE   C2717438   6.423   1.043   5.337 -1.2372  0.6417 -0.0391
  157SAPE   H7R17439   6.314   1.042   5.357 -1.1563 -0.0735  0.3845
  157SAPE   H7S17440   6.470   0.947   5.366 -1.7625  0.5240  0.4428
  157SAPE   C2817441   6.427   1.054   5.190  0.2645 -0.8714 -0.1422
  157SAPE   H8R17442   6.344   1.105   5.139  3.0143  1.4798 -2.4354
  157SAPE   C2917443   6.512   0.994   5.104  0.6184  1.6009  0.4792
  157SAPE   H9R17444   6.492   1.019   4.998 -4.2358  0.9293  1.1260
  157SAPE  C21017445   6.633   0.907   5.139 -0.0401 -0.8706  0.2681
  157SAPE  H10R17446   6.602   0.803   5.117 -0.5541 -0.3004 -1.8121
  157SAPE  H10S17447   6.672   0.909   5.243  2.0039 -0.8940 -0.4637
  157SAPE  C21117448   6.749   0.936   5.055  0.7019 -0.0344  0.0929
  157SAPE  H11R17449   6.815   1.020   5.079 -1.9802  2.2072 -0.1344
  157SAPE  C21217450   6.783   0.856   4.949  0.8628  0.2182  0.5070
  157SAPE  H12R17451   6.882   0.870   4.902  1.3627  0.3189  1.5607
  157SAPE  C21317452   6.711   0.735   4.890 -0.5272  0.0764 -0.2937
  157SAPE  H13R17453   6.698   0.749   4.780  0.3853  0.9316 -0.3011
  157SAPE  H13S17454   6.603   0.731   4.913 -0.5725  0.7978 -0.3491
  157SAPE  C21417455   6.793   0.602   4.899 -0.4718 -0.0896 -0.5513
  157SAPE  H14R17456   6.778   0.551   4.995  2.6382  1.1621  0.6742
  157SAPE  C21517457   6.870   0.539   4.817  0.3334 -0.3655  0.1748
  157SAPE  H15R17458   6.922   0.446   4.842 -2.1126 -1.5255  1.1157
  157SAPE  C21617459   6.907   0.580   4.671  0.3884 -0.4764 -0.3592
  157SAPE  H16R17460   6.815   0.572   4.608 -0.6796  0.3526  1.0515
  157SAPE  H16S17461   6.986   0.513   4.633 -0.7683 -1.4994 -1.0043
  157SAPE  C21717462   6.955   0.721   4.652 -0.4464 -0.0615 -0.3846
  157SAPE  H17R17463   7.050   0.732   4.708 -2.0413 -1.0099  2.5896
  157SAPE  H17S17464   6.882   0.796   4.689 -2.9646 -0.9725 -3.2248
  157SAPE  C21817465   6.991   0.761   4.506 -0.0973 -0.8893 -0.0111
  157SAPE  H18R17466   6.910   0.728   4.438  0.4765 -0.5292 -0.8729
  157SAPE  H18S17467   7.080   0.708   4.467  0.2112 -0.4675  0.1150
  157SAPE  C21917468   7.028   0.907   4.502 -0.3590  0.4269  0.6891
  157SAPE  H19R17469   7.132   0.912   4.541  0.0328  0.9466 -0.4038
  157SAPE  H19S17470   6.964   0.961   4.575 -0.4773 -0.0131  0.9102
  157SAPE  C22017471   7.023   0.975   4.362  0.2546  0.1632 -0.1619
  157SAPE  H20R17472   7.112   0.948   4.302  1.0392  1.2268  0.5159
  157SAPE  H20S17473   7.030   1.086   4.371 -0.7855  0.1039  1.7189
  157SAPE  H20T17474   6.921   0.956   4.321 -0.5421 -0.3693  1.9863
  157SAPE   C3317475   6.467   0.544   5.803 -0.3411  0.9938  0.2173
  157SAPE   H3X17476   6.411   0.611   5.734  0.7421  2.2884  0.5844
  157SAPE   H3Y17477   6.398   0.530   5.890 -0.1123  1.8789  0.5444
  157SAPE   C3417478   6.478   0.405   5.737  0.0675 -0.1448 -0.1921
  157SAPE   H4X17479   6.380   0.353   5.743 -0.1643  0.2062 -0.8757
  157SAPE   H4Y17480   6.562   0.348   5.781  0.2942 -0.7523 -1.4093
  157SAPE   C3517481   6.506   0.401   5.578  0.5346  0.5087 -0.1891
  157SAPE   H5X17482   6.529   0.297   5.546  0.2169  0.4711 -0.3023
  157SAPE   H5Y17483   6.608   0.441   5.562  0.5213  0.7673  0.3621
  157SAPE   C3617484   6.387   0.461   5.489  0.1790 -0.1750 -0.7799
  157SAPE   H6X17485   6.387   0.569   5.514 -1.1611 -0.5331  0.8464
  157SAPE   H6Y17486   6.297   0.401   5.515  1.1644 -0.8399  1.1873
  157SAPE   C3717487   6.405   0.452   5.338  0.4992 -0.7507 -0.0039
  157SAPE   H7X17488   6.438   0.347   5.322  1.2080 -0.4342 -0.7033
  157SAPE   H7Y17489   6.490   0.514   5.302 -0.9604  0.5587 -1.2757
  157SAPE   C3817490   6.281   0.491   5.254  0.5500 -0.8461 -0.2902
  157SAPE   H8X17491   6.264   0.598   5.281  0.8372 -0.4806 -1.4820
  157SAPE   H8Y17492   6.184   0.444   5.278  0.9646 -2.5901 -1.9008
  157SAPE   C3917493   6.309   0.472   5.104  0.0913 -0.1504 -0.1126
  157SAPE   H9X17494   6.216   0.438   5.054 -0.3260  0.5792  0.1428
  157SAPE   H9Y17495   6.392   0.400   5.091  1.2938  1.3206 -0.6776
  157SAPE  C31017496   6.359   0.597   5.024  0.3693 -0.3626 -0.9288
  157SAPE  H10X17497   6.457   0.626   5.067 -0.4617 -0.4372  1.0939
  157SAPE  H10Y17498   6.294   0.687   5.037  1.4333  0.4144 -0.9275
  157SAPE  C31117499   6.355   0.583   4.866 -0.2464  0.3517 -0.8073
  157SAPE  H11X17500   6.414   0.665   4.820  3.1336 -1.8509 -0.6440
  157SAPE  H11Y17501   6.252   0.592   4.827 -0.3078  1.1468 -0.4726
  157SAPE  C31217502   6.420   0.448   4.823 -0.3227 -0.7801 -0.3087
  157SAPE  H12X17503   6.359   0.360   4.851 -0.1151 -0.3231  1.6215
  157SAPE  H12Y17504   6.517   0.436   4.876  0.4765  1.8582 -1.0905
  157SAPE  C31317505   6.425   0.430   4.667  0.2650  0.4081 -0.0707
  157SAPE  H13X17506   6.503   0.355   4.641  0.5624  1.7163 -3.1205
  157SAPE  H13Y17507   6.450   0.525   4.616 -0.6154 -0.0408 -1.3898
  157SAPE  C31417508   6.296   0.379   4.593 -0.2101 -0.1619 -0.0722
  157SAPE  H14X17509   6.202   0.431   4.621 -0.9293 -1.5658  0.1539
  157SAPE  H14Y17510   6.276   0.273   4.619 -1.1575  0.2090  0.7435
  157SAPE  C31517511   6.308   0.394   4.441  0.3700  0.7399 -0.3091
  157SAPE  H15X17512   6.395   0.342   4.393  1.4610  1.0335  1.3281
  157SAPE  H15Y17513   6.327   0.500   4.412  0.6410  1.3125  1.9224
  157SAPE  C31617514   6.184   0.361   4.354  0.1808  0.3211  0.5363
  157SAPE  H16X17515   6.095   0.420   4.383 -1.1794 -1.7662  0.7488
  157SAPE  H16Y17516   6.157   0.254   4.363  1.3737 -0.2184 -1.8089
  157SAPE  C31717517   6.207   0.407   4.208 -0.1908  0.2137  0.2629
  157SAPE  H17X17518   6.291   0.353   4.159 -0.4091 -0.5821  0.7584
  157SAPE  H17Y17519   6.242   0.512   4.217 -0.4936  0.4152 -0.8268
  157SAPE  C31817520   6.081   0.405   4.128 -0.2084 -0.1796 -0.2669
  157SAPE  H18X17521   6.092   0.456   4.030  1.8184 -0.2312 -0.0875
  157SAPE  H18Y17522   6.005   0.454   4.192 -0.9225  0.7109 -1.7845
  157SAPE  H18Z17523   6.045   0.301   4.114  0.4664 -1.1622  4.3903
  158SAPE     N17524   0.176   1.069   6.299  0.3316 -0.0569  1.1941
  158SAPE   HN117525   0.213   1.164   6.317  0.7298 -0.3564  1.9473
  158SAPE   HN217526   0.074   1.087   6.311  0.0983 -1.2390  1.0412
  158SAPE   HN317527   0.209   1.021   6.385  2.4024  0.3804  0.6736
  158SAPE   C1217528   0.211   1.009   6.161 -0.1201 -0.5038 -0.3028
  158SAPE  H12A17529   0.190   1.092   6.091  0.2314  1.8839  2.2945
  158SAPE  H12B17530   0.145   0.920   6.155  2.7632 -2.8460  1.2238
  158SAPE   C1117531   0.357   0.954   6.153 -0.7271 -0.1416 -0.1830
  158SAPE  H11A17532   0.425   1.041   6.167  0.4380 -0.9686 -0.6381
  158SAPE  H11B17533   0.381   0.907   6.056  1.9157  0.1310  0.2926
  158SAPE     P17534   0.355   0.720   6.269 -0.3199  0.2377 -0.1393
  158SAPE   O1317535   0.476   0.675   6.341  0.3968 -0.4350  0.3098
  158SAPE   O1417536   0.215   0.685   6.317 -0.3263  0.8775  0.5707
  158SAPE   O1217537   0.373   0.873   6.272  0.1565  0.2980 -0.0482
  158SAPE   O1117538   0.367   0.692   6.113  0.9715  0.4904  0.4528
  158SAPE    C117539   0.435   0.580   6.059 -0.7811 -0.0903  0.5264
  158SAPE    HA17540   0.458   0.503   6.136 -3.1718  0.5028  1.8877
  158SAPE    HB17541   0.372   0.528   5.984 -2.1924 -0.1964  1.7646
  158SAPE    C217542   0.569   0.629   5.988  0.7216  1.0438 -0.2663
  158SAPE    HS17543   0.629   0.686   6.061  0.1816 -1.6655  2.4019
  158SAPE   O2117544   0.537   0.704   5.876  0.5764 -0.1083  0.0968
  158SAPE   C2117545   0.635   0.755   5.811 -0.2710 -0.3609 -0.5859
  158SAPE   O2217546   0.747   0.765   5.860  0.0472 -0.0228 -0.1148
  158SAPE   C2217547   0.591   0.798   5.674  0.6188  0.1738 -0.1391
  158SAPE   H2R17548   0.584   0.712   5.605  3.0027 -0.2163  0.0718
  158SAPE   H2S17549   0.494   0.850   5.688  0.3714 -0.5902  1.0516
  158SAPE    C317550   0.648   0.503   5.957 -0.2844 -0.0240 -0.0920
  158SAPE    HX17551   0.663   0.436   6.045  3.1659  0.7622 -0.0162
  158SAPE    HY17552   0.751   0.527   5.923 -0.5505  1.7760  0.3504
  158SAPE   O3117553   0.593   0.429   5.844 -0.2162  0.1829  0.6305
  158SAPE   C3117554   0.521   0.323   5.867 -0.4035 -1.2642 -0.3553
  158SAPE   O3217555   0.494   0.283   5.980 -0.7869 -0.5622 -0.2201
  158SAPE   C3217556   0.486   0.253   5.736  0.2619 -0.2738 -0.4766
  158SAPE   H2X17557   0.385   0.207   5.743 -1.3945  3.0613 -1.2979
  158SAPE   H2Y17558   0.552   0.164   5.733 -0.2677 -0.6587 -0.8608
  158SAPE   C2317559   0.685   0.905   5.612 -0.0204  0.0984 -0.2914
  158SAPE   H3R17560   0.785   0.856   5.608  0.1143  0.2765  0.6606
  158SAPE   H3S17561   0.698   0.996   5.675  4.0479  0.2740 -1.2351
  158SAPE   C2417562   0.646   0.955   5.476 -0.5317  0.2985  0.6267
  158SAPE   H4R17563   0.709   1.045   5.462  1.2495 -1.2694 -1.8802
  158SAPE   H4S17564   0.538   0.980   5.485 -0.3829  0.3871  2.5181
  158SAPE   C2517565   0.661   0.856   5.360  0.3057  0.4991 -0.0157
  158SAPE   H5R17566   0.568   0.805   5.331  1.3717 -0.7103 -1.3457
  158SAPE   C2617567   0.772   0.836   5.286 -0.5708  0.1003 -0.3524
  158SAPE   H6R17568   0.780   0.749   5.219  1.1884  0.5798 -0.7883
  158SAPE   C2717569   0.897   0.918   5.304  1.0975 -0.3070  0.0120
  158SAPE   H7R17570   0.922   0.937   5.411 -1.6376  0.1762  0.5964
  158SAPE   H7S17571   0.891   1.016   5.252  2.0367 -0.3355 -0.1506
  158SAPE   C2817572   1.012   0.836   5.249  0.3069 -0.0981 -0.2945
  158SAPE   H8R17573   1.058   0.781   5.332 -0.5880 -2.3565 -1.2318
  158SAPE   C2917574   1.044   0.799   5.119 -0.1314  0.0648  0.1781
  158SAPE   H9R17575   1.124   0.725   5.111 -0.4060 -0.2322  0.1675
  158SAPE  C21017576   0.973   0.846   4.996  0.3190  0.2438  0.4117
  158SAPE  H10R17577   1.050   0.902   4.940  0.1164 -0.8777 -1.0246
  158SAPE  H10S17578   0.905   0.933   5.004  1.9668  1.6330 -0.4839
  158SAPE  C21117579   0.909   0.739   4.914  0.0700  0.3093 -0.0711
  158SAPE  H11R17580   0.962   0.643   4.926 -0.2381 -0.1125 -1.8500
  158SAPE  C21217581   0.791   0.739   4.849 -0.1958  0.3045  0.5832
  158SAPE  H12R17582   0.748   0.642   4.818 -0.8017  0.1064  2.0144
  158SAPE  C21317583   0.701   0.856   4.849 -0.3012  0.5733 -1.0933
  158SAPE  H13R17584   0.764   0.938   4.808  2.7419 -1.1034  0.1054
  158SAPE  H13S17585   0.672   0.892   4.950 -0.3959 -0.7310 -0.6527
  158SAPE  C21417586   0.577   0.837   4.770  0.1059  0.2892 -0.0801
  158SAPE  H14R17587   0.500   0.788   4.832 -0.2474  1.2012  0.2187
  158SAPE  C21517588   0.550   0.856   4.642 -0.7284 -0.4045 -0.2057
  158SAPE  H15R17589   0.444   0.849   4.616 -1.3107 -0.8630  2.1512
  158SAPE  C21617590   0.646   0.908   4.532  1.2063  0.3503 -0.1317
  158SAPE  H16R17591   0.735   0.957   4.577  1.4330 -1.4415  1.4473
  158SAPE  H16S17592   0.609   0.971   4.449  0.3188  0.3026  0.2280
  158SAPE  C21717593   0.692   0.781   4.461 -0.4755  0.8246 -0.4134
  158SAPE  H17R17594   0.756   0.715   4.524 -0.1503  1.6259  0.0995
  158SAPE  H17S17595   0.762   0.813   4.382  0.1671  0.8583  0.1717
  158SAPE  C21817596   0.587   0.689   4.390  0.4007  0.0117  0.0418
  158SAPE  H18R17597   0.516   0.649   4.465  1.2384 -2.8703 -0.6548
  158SAPE  H18S17598   0.651   0.612   4.342  0.0770 -0.3803  0.2435
  158SAPE  C21917599   0.507   0.773   4.289  0.0913  0.2863 -0.1387
  158SAPE  H19R17600   0.507   0.882   4.308 -3.0981  0.4094 -0.5210
  158SAPE  H19S17601   0.400   0.743   4.292 -0.9371  3.4244 -2.5418
  158SAPE  C22017602   0.546   0.750   4.141  0.4813  0.1396 -0.6746
  158SAPE  H20R17603   0.559   0.641   4.125  0.9963  0.3031 -1.3600
  158SAPE  H20S17604   0.640   0.805   4.123  0.0777  0.9001 -0.4902
  158SAPE  H20T17605   0.466   0.793   4.077  1.3928 -0.3904 -2.1825
  158SAPE   C3317606   0.503   0.334   5.608  0.0220  0.0167 -0.1436
  158SAPE   H3X17607   0.508   0.276   5.513 -1.2638 -1.4360  0.6432
  158SAPE   H3Y17608   0.595   0.396   5.611 -0.4278  0.6928 -0.3397
  158SAPE   C3417609   0.383   0.440   5.594 -0.1535 -0.2824 -0.6296
  158SAPE   H4X17610   0.382   0.506   5.683 -1.6102 -1.3594  0.1716
  158SAPE   H4Y17611   0.295   0.372   5.592  0.3979 -1.0108 -0.3576
  158SAPE   C3517612   0.380   0.530   5.469 -0.5173 -0.4852 -0.2990
  158SAPE   H5X17613   0.446   0.619   5.475 -0.6170 -0.4916  1.1322
  158SAPE   H5Y17614   0.277   0.573   5.472 -0.5420 -0.5918  0.4467
  158SAPE   C3617615   0.396   0.459   5.336 -0.6107  0.3368 -0.1036
  158SAPE   H6X17616   0.342   0.362   5.342 -2.4093  1.3482  0.6226
  158SAPE   H6Y17617   0.504   0.441   5.324 -0.3213  0.3951  2.2220
  158SAPE   C3717618   0.342   0.543   5.215 -0.4325  0.1581 -0.1516
  158SAPE   H7X17619   0.421   0.617   5.191 -0.4245 -0.7774 -3.2568
  158SAPE   H7Y17620   0.250   0.593   5.252 -0.3308 -0.5221  1.0134
  158SAPE   C3817621   0.324   0.463   5.090  0.1291  0.6625 -0.0044
  158SAPE   H8X17622   0.239   0.395   5.113 -0.3452  1.4566  0.6119
  158SAPE   H8Y17623   0.415   0.399   5.085 -1.0313 -1.3636  3.0219
  158SAPE   C3917624   0.301   0.539   4.964 -0.4784  0.0925 -0.4711
  158SAPE   H9X17625   0.377   0.620   4.953  0.3771 -0.4078  1.5366
  158SAPE   H9Y17626   0.203   0.591   4.969 -0.0685  0.9402 -1.1070
  158SAPE  C31017627   0.308   0.455   4.833  0.0243 -0.3627  1.0097
  158SAPE  H10X17628   0.226   0.381   4.839  0.1489 -0.4380  1.8579
  158SAPE  H10Y17629   0.397   0.390   4.820  1.3226  1.6914 -0.7226
  158SAPE  C31117630   0.293   0.533   4.705  0.1418 -0.4256 -0.0363
  158SAPE  H11X17631   0.279   0.459   4.622  0.9928 -0.3559 -0.2433
  158SAPE  H11Y17632   0.387   0.585   4.678 -0.1431 -0.0441 -0.3041
  158SAPE  C31217633   0.164   0.625   4.707 -0.1805  0.9054 -0.0008
  158SAPE  H12X17634   0.174   0.705   4.783  1.5813 -0.7628  1.5860
  158SAPE  H12Y17635   0.083   0.564   4.753  2.0052 -2.0867  0.0677
  158SAPE  C31317636   0.117   0.669   4.567 -0.3795  0.0993 -0.0651
  158SAPE  H13X17637   0.207   0.719   4.525 -1.0872  1.7242  0.2759
  158SAPE  H13Y17638   0.051   0.758   4.577 -0.1455  0.1153  1.5990
  158SAPE  C31417639   0.059   0.559   4.482  0.2075 -0.4830 -0.2518
  158SAPE  H14X17640  -0.025   0.520   4.544 -0.1503  1.5624  0.6008
  158SAPE  H14Y17641   0.130   0.475   4.472 -0.8701 -1.6721  1.7241
  158SAPE  C31517642   0.021   0.607   4.339  0.3554 -0.3351  0.3228
  158SAPE  H15X17643   0.110   0.623   4.273 -0.4312 -1.8537 -1.1636
  158SAPE  H15Y17644  -0.035   0.703   4.342  0.0997 -0.4130 -1.2366
  158SAPE  C31617645  -0.071   0.512   4.262 -0.2957  0.1554 -0.7878
  158SAPE  H16X17646  -0.113   0.569   4.176 -0.4761  1.4941  0.1646
  158SAPE  H16Y17647  -0.156   0.485   4.328  0.7414 -2.2477 -0.4079
  158SAPE  C31717648  -0.003   0.381   4.223 -0.5363  0.0181 -0.1280
  158SAPE  H17X17649   0.045   0.344   4.316  0.7898  2.0969  0.0313
  158SAPE  H17Y17650   0.079   0.403   4.151 -1.3048  1.8807 -0.4655
  158SAPE  C31817651  -0.100   0.275   4.168 -0.7869  0.4074  0.3845
  158SAPE  H18X17652  -0.043   0.182   4.148  0.8331  1.2871  0.8059
  158SAPE  H18Y17653  -0.129   0.313   4.068 -0.2570  1.4294  0.6150
  158SAPE  H18Z17654  -0.190   0.262   4.232 -1.1663 -1.4831 -0.5029
  159SAPE     N17655   5.416   4.351   2.135  0.1985 -0.1941  0.3542
  159SAPE   HN117656   5.319   4.330   2.164  0.7160 -0.7860  1.7384
  159SAPE   HN217657   5.480   4.328   2.214  1.6995  1.0106 -0.4979
  159SAPE   HN317658   5.422   4.453   2.119 -2.5727 -0.1588 -0.6262
  159SAPE   C1217659   5.454   4.290   1.997  0.1677  0.4130 -0.1331
  159SAPE  H12A17660   5.490   4.188   2.023  1.8190  1.0458  0.1037
  159SAPE  H12B17661   5.538   4.353   1.961 -0.2429  0.0387 -1.7681
  159SAPE   C1117662   5.321   4.284   1.919 -0.8547  0.9574 -0.0946
  159SAPE  H11A17663   5.337   4.221   1.829  1.9105  0.4755  0.6933
  159SAPE  H11B17664   5.300   4.388   1.888 -1.4288  0.6537 -0.7318
  159SAPE     P17665   5.161   4.091   2.022 -0.2074 -0.2212 -0.2378
  159SAPE   O1317666   5.011   4.092   2.037 -0.5741  0.6711  0.1418
  159SAPE   O1417667   5.221   3.997   1.925  0.5279  0.4067  0.8839
  159SAPE   O1217668   5.209   4.242   1.996 -0.2018 -0.0484  0.6320
  159SAPE   O1117669   5.229   4.093   2.173  0.6419 -0.3923  0.1102
  159SAPE    C117670   5.258   3.983   2.253 -0.3122 -0.1246 -0.5635
  159SAPE    HA17671   5.279   3.895   2.187  0.6263  0.9992 -1.7936
  159SAPE    HB17672   5.335   4.010   2.329 -0.3496  0.0450 -0.5878
  159SAPE    C217673   5.129   3.942   2.336  0.4451  0.1472 -0.3338
  159SAPE    HS17674   5.062   3.894   2.262 -0.6998  0.7119  0.3251
  159SAPE   O2117675   5.060   4.050   2.397 -0.0155 -0.0389 -0.1136
  159SAPE   C2117676   4.933   4.040   2.452 -0.7598 -0.1831 -0.1021
  159SAPE   O2217677   4.868   3.937   2.450 -0.2312  0.2041 -0.1424
  159SAPE   C2217678   4.893   4.175   2.506  0.5780  0.0340 -0.0639
  159SAPE   H2R17679   4.964   4.194   2.589 -1.0235  1.1380  1.0706
  159SAPE   H2S17680   4.903   4.252   2.426 -1.1084  0.5454  0.1960
  159SAPE    C317681   5.164   3.843   2.447  0.0328  0.3284  0.3750
  159SAPE    HX17682   5.214   3.758   2.395 -2.5065 -1.0520  0.1010
  159SAPE    HY17683   5.073   3.808   2.501 -0.5245  1.8594  0.4555
  159SAPE   O3117684   5.247   3.903   2.549 -0.6452  0.6424  0.5763
  159SAPE   C3117685   5.286   3.816   2.643 -0.1426 -0.2278 -0.0703
  159SAPE   O3217686   5.278   3.693   2.627  0.0187 -0.3131 -0.4457
  159SAPE   C3217687   5.372   3.892   2.747 -0.9564  0.1647  0.9243
  159SAPE   H2X17688   5.445   3.954   2.690 -1.8045 -0.0906 -0.4787
  159SAPE   H2Y17689   5.440   3.825   2.804 -1.3253 -1.3116 -0.3262
  159SAPE   C2317690   4.749   4.184   2.548  0.0173  0.4540 -1.0072
  159SAPE   H3R17691   4.688   4.149   2.462 -1.0455 -2.8190  0.9899
  159SAPE   H3S17692   4.725   4.292   2.563  0.4553  0.7647 -2.4366
  159SAPE   C2417693   4.706   4.101   2.672 -0.1284  0.5144 -1.0083
  159SAPE   H4R17694   4.725   3.995   2.644 -1.8519  0.4306 -1.8956
  159SAPE   H4S17695   4.597   4.113   2.687 -0.3486 -1.4840 -0.7964
  159SAPE   C2517696   4.774   4.149   2.796 -0.6146  0.2460  0.7011
  159SAPE   H5R17697   4.785   4.258   2.805 -0.9460  0.4263 -0.9132
  159SAPE   C2617698   4.831   4.074   2.892 -0.1737  0.8446  0.1274
  159SAPE   H6R17699   4.885   4.139   2.962  1.4553 -1.3693  0.9607
  159SAPE   C2717700   4.830   3.922   2.892 -0.3914 -0.5971  0.5455
  159SAPE   H7R17701   4.734   3.898   2.844 -0.0499  0.1229 -0.5050
  159SAPE   H7S17702   4.812   3.895   2.999 -2.5249  1.3731  0.7138
  159SAPE   C2817703   4.928   3.842   2.816  0.6397  0.3104 -0.8687
  159SAPE   H8R17704   4.911   3.843   2.707  0.6093  0.4820 -0.8622
  159SAPE   C2917705   5.016   3.754   2.865 -1.4357 -0.5834 -0.4520
  159SAPE   H9R17706   5.074   3.703   2.788  1.9854  1.0782  0.9053
  159SAPE  C21017707   5.035   3.724   3.008 -0.0970  0.1031  0.3155
  159SAPE  H10R17708   4.971   3.638   3.037  0.4413 -0.2290  0.5414
  159SAPE  H10S17709   5.024   3.814   3.072  1.9965  0.2793  0.4505
  159SAPE  C21117710   5.172   3.672   3.030 -0.0200 -0.4105  0.1351
  159SAPE  H11R17711   5.221   3.616   2.949  0.8478  0.2487  0.2024
  159SAPE  C21217712   5.250   3.686   3.137  0.1941  0.4878  0.1215
  159SAPE  H12R17713   5.340   3.624   3.153 -1.1635 -1.1531  1.5813
  159SAPE  C21317714   5.216   3.768   3.262  0.1759 -0.5312 -0.6075
  159SAPE  H13R17715   5.117   3.720   3.278 -1.1548  2.7076  1.4922
  159SAPE  H13S17716   5.191   3.872   3.232  0.3970  0.0911  1.2750
  159SAPE  C21417717   5.287   3.745   3.396 -0.2041 -0.4820  0.6359
  159SAPE  H14R17718   5.362   3.665   3.393 -0.8834 -1.1328  0.7790
  159SAPE  C21517719   5.266   3.809   3.514  0.5164 -0.6400  0.1649
  159SAPE  H15R17720   5.308   3.764   3.605 -1.8438 -2.2836  0.4690
  159SAPE  C21617721   5.172   3.922   3.532 -0.0205  0.8827  0.4508
  159SAPE  H16R17722   5.174   3.982   3.438  0.6225 -0.8718 -0.6774
  159SAPE  H16S17723   5.214   3.988   3.611  1.0882  0.4784  0.2075
  159SAPE  C21717724   5.027   3.891   3.576 -0.0081  0.4453 -0.7336
  159SAPE  H17R17725   4.960   3.973   3.607 -1.8089 -1.2451 -0.0855
  159SAPE  H17S17726   5.038   3.833   3.670 -0.1730  0.3730 -0.7591
  159SAPE  C21817727   4.938   3.821   3.473  0.0762  0.2335  1.0608
  159SAPE  H18R17728   4.991   3.723   3.464 -1.5646 -0.6943  1.2276
  159SAPE  H18S17729   4.940   3.877   3.377  3.0569  0.1509  1.0335
  159SAPE  C21917730   4.791   3.792   3.508 -0.3186  0.4758 -0.1925
  159SAPE  H19R17731   4.749   3.745   3.417  1.3984 -2.5389  0.4894
  159SAPE  H19S17732   4.740   3.890   3.522  0.4529  1.2267 -2.3954
  159SAPE  C22017733   4.777   3.708   3.636  0.3039  0.3293 -0.2960
  159SAPE  H20R17734   4.668   3.705   3.657  0.3978 -2.0575  0.0045
  159SAPE  H20S17735   4.830   3.750   3.724  1.7719  0.8699 -1.4268
  159SAPE  H20T17736   4.810   3.603   3.619 -1.2813 -0.3652  0.8220
  159SAPE   C3317737   5.288   3.989   2.828 -0.2401  0.5204  0.2117
  159SAPE   H3X17738   5.251   3.929   2.914  1.6147 -0.0900  0.6145
  159SAPE   H3Y17739   5.204   4.030   2.768 -0.8707 -0.9284  0.0938
  159SAPE   C3417740   5.369   4.111   2.875  0.8821  0.9304  0.6043
  159SAPE   H4X17741   5.412   4.156   2.783  1.2537  2.5892  1.5746
  159SAPE   H4Y17742   5.458   4.091   2.938  0.8486  1.1275  0.7141
  159SAPE   C3517743   5.284   4.218   2.946  0.0359 -0.1414  0.0392
  159SAPE   H5X17744   5.206   4.262   2.880  1.8660  0.9646 -1.4215
  159SAPE   H5Y17745   5.353   4.303   2.966  1.5126 -1.1063 -0.8436
  159SAPE   C3617746   5.206   4.148   3.058  0.5304 -0.5528  0.0330
  159SAPE   H6X17747   5.280   4.097   3.123  0.5723 -1.0223 -0.3830
  159SAPE   H6Y17748   5.132   4.078   3.013 -0.1126 -0.2959  0.6732
  159SAPE   C3717749   5.126   4.246   3.146 -0.8784  0.0157  0.6820
  159SAPE   H7X17750   5.075   4.311   3.072  1.8454 -1.4764 -2.6366
  159SAPE   H7Y17751   5.193   4.314   3.203  0.3294  0.6351 -1.4336
  159SAPE   C3817752   5.020   4.176   3.235 -0.4491  0.0510 -0.2976
  159SAPE   H8X17753   5.069   4.116   3.314  0.7570  1.6176  0.1478
  159SAPE   H8Y17754   4.955   4.108   3.175  1.0432 -0.3580 -1.4849
  159SAPE   C3917755   4.939   4.294   3.297 -0.1708  0.2972 -1.1018
  159SAPE   H9X17756   4.886   4.354   3.221  0.9901  2.2306 -0.4164
  159SAPE   H9Y17757   5.019   4.353   3.345 -1.3678  0.7903  0.3509
  159SAPE  C31017758   4.839   4.250   3.410  1.2357 -0.3020  0.2166
  159SAPE  H10X17759   4.899   4.192   3.483  1.2131 -0.9412 -0.2643
  159SAPE  H10Y17760   4.765   4.184   3.358  1.9062 -1.8003  1.1230
  159SAPE  C31117761   4.782   4.372   3.471  0.4228  0.6302 -0.0835
  159SAPE  H11X17762   4.684   4.345   3.516  0.6869  0.1619  0.2190
  159SAPE  H11Y17763   4.769   4.443   3.387  0.3153 -1.4526 -1.8798
  159SAPE  C31217764   4.884   4.429   3.584  0.0362 -0.6758 -0.4632
  159SAPE  H12X17765   4.987   4.433   3.543  0.0623  0.8567 -0.2463
  159SAPE  H12Y17766   4.879   4.366   3.676  0.2347 -1.5798 -1.0615
  159SAPE  C31317767   4.839   4.574   3.619  0.2023  0.2997 -0.5855
  159SAPE  H13X17768   4.842   4.629   3.523  0.7665 -0.0158 -0.7506
  159SAPE  H13Y17769   4.911   4.614   3.694  1.5902 -2.8782 -0.0944
  159SAPE  C31417770   4.689   4.592   3.661 -0.0159 -0.7777 -0.3615
  159SAPE  H14X17771   4.620   4.537   3.594 -1.1957 -0.9673  0.9757
  159SAPE  H14Y17772   4.668   4.700   3.651  0.3145 -0.8249 -1.5874
  159SAPE  C31517773   4.664   4.545   3.804  0.0533 -0.0455  0.4705
  159SAPE  H15X17774   4.743   4.590   3.867 -0.8196  2.0250  0.1367
  159SAPE  H15Y17775   4.657   4.434   3.809 -0.1407  0.0122  1.4149
  159SAPE  C31617776   4.528   4.583   3.858  0.1578  0.1354 -0.1112
  159SAPE  H16X17777   4.504   4.691   3.845 -0.6680 -0.0460 -0.0896
  159SAPE  H16Y17778   4.533   4.568   3.968  0.3534 -1.6273 -0.3495
  159SAPE  C31717779   4.422   4.493   3.797  0.3511  0.1995  0.4301
  159SAPE  H17X17780   4.437   4.386   3.823  1.1301  0.3132  0.4646
  159SAPE  H17Y17781   4.420   4.495   3.686 -1.2199 -2.6944  0.3688
  159SAPE  C31817782   4.282   4.536   3.844  1.2418  0.1341  0.0295
  159SAPE  H18X17783   4.198   4.464   3.839  1.6013 -0.3374  0.8319
  159SAPE  H18Y17784   4.240   4.627   3.796 -1.5655 -0.5574  1.0566
  159SAPE  H18Z17785   4.289   4.575   3.947  1.0116  2.3023 -0.7442
  160SAPE     N17786   5.739   2.851   1.946 -0.5299  0.2771 -0.2918
  160SAPE   HN117787   5.713   2.828   1.848  0.6234 -1.4093 -0.2093
  160SAPE   HN217788   5.698   2.942   1.979  1.7494  1.8481 -1.6844
  160SAPE   HN317789   5.841   2.859   1.962 -0.7119 -2.2192  2.4883
  160SAPE   C1217790   5.681   2.741   2.037 -0.2047 -0.0940  0.1505
  160SAPE  H12A17791   5.700   2.640   1.995 -0.2678 -0.4225  0.8981
  160SAPE  H12B17792   5.572   2.759   2.028  0.1784  1.4139 -1.9625
  160SAPE   C1117793   5.744   2.756   2.178 -0.4229  0.3881  0.2200
  160SAPE  H11A17794   5.695   2.692   2.254 -2.6051  0.0109 -1.4511
  160SAPE  H11B17795   5.732   2.863   2.203  1.7323  0.9215 -0.9428
  160SAPE     P17796   5.940   2.601   2.236  0.1263 -0.1959  0.3297
  160SAPE   O1317797   5.861   2.486   2.193 -0.3546 -0.7801 -0.1646
  160SAPE   O1417798   6.084   2.585   2.212  0.0526  0.3156 -0.1163
  160SAPE   O1217799   5.884   2.733   2.162  0.4447  0.0209  0.1726
  160SAPE   O1117800   5.900   2.618   2.391  0.2756  0.4819  0.3330
  160SAPE    C117801   6.009   2.649   2.477 -0.5481 -0.1636  0.6629
  160SAPE    HA17802   6.109   2.663   2.431  0.5304  0.6740  3.2080
  160SAPE    HB17803   5.987   2.755   2.502  0.4550  0.3126 -0.4309
  160SAPE    C217804   6.006   2.567   2.609 -0.4731  0.0061 -0.5542
  160SAPE    HS17805   6.027   2.461   2.583 -1.0043 -0.7272  1.9086
  160SAPE   O2117806   5.877   2.593   2.667 -0.2614  0.3329  0.5473
  160SAPE   C2117807   5.787   2.498   2.630 -0.3595 -0.3081  0.2731
  160SAPE   O2217808   5.814   2.388   2.580  0.2230 -0.8065 -0.9975
  160SAPE   C2217809   5.648   2.544   2.660 -0.1087 -0.7274 -0.1693
  160SAPE   H2R17810   5.619   2.609   2.574  2.5189  2.0937  1.0239
  160SAPE   H2S17811   5.592   2.448   2.670 -0.4211 -0.2657  2.9091
  160SAPE    C317812   6.122   2.608   2.708 -0.3847 -0.0993 -0.1915
  160SAPE    HX17813   6.120   2.716   2.733 -0.3312 -0.3284  0.8260
  160SAPE    HY17814   6.209   2.581   2.644 -0.5366 -0.9511 -0.0484
  160SAPE   O3117815   6.124   2.526   2.829 -0.0873 -0.1662  0.2727
  160SAPE   C3117816   6.075   2.591   2.937 -0.6725  0.2595 -0.0683
  160SAPE   O3217817   6.039   2.711   2.940 -0.3308 -0.1735 -0.2849
  160SAPE   C3217818   6.065   2.504   3.064  0.1383 -0.0120  0.1489
  160SAPE   H2X17819   6.048   2.401   3.025  2.4100  0.6456 -2.7779
  160SAPE   H2Y17820   5.972   2.531   3.118  0.7881 -0.7830  1.6647
  160SAPE   C2317821   5.625   2.629   2.790 -0.1952  0.6621  0.1557
  160SAPE   H3R17822   5.522   2.671   2.783 -0.5117 -0.0977  0.2237
  160SAPE   H3S17823   5.703   2.707   2.776  1.2915 -0.3140  2.7784
  160SAPE   C2417824   5.638   2.549   2.917 -0.2689  0.1946  0.5849
  160SAPE   H4R17825   5.707   2.462   2.915 -0.0730  0.3351  1.0667
  160SAPE   H4S17826   5.536   2.510   2.940 -1.3763  2.0956 -0.9486
  160SAPE   C2517827   5.686   2.632   3.028  0.1018  0.3318  0.2507
  160SAPE   H5R17828   5.706   2.735   2.994 -1.7065 -0.5565 -3.8689
  160SAPE   C2617829   5.704   2.598   3.158  0.0951 -0.1380  0.1844
  160SAPE   H6R17830   5.751   2.676   3.220  0.7126 -0.7844  0.5353
  160SAPE   C2717831   5.676   2.467   3.231  0.1461  0.4716  0.2750
  160SAPE   H7R17832   5.770   2.415   3.260 -0.3169 -0.3664  0.2669
  160SAPE   H7S17833   5.634   2.393   3.160  1.2696 -0.3752  0.4734
  160SAPE   C2817834   5.578   2.484   3.346 -0.5090  0.6899  0.8202
  160SAPE   H8R17835   5.480   2.531   3.329  0.9983  3.4896 -0.6226
  160SAPE   C2917836   5.592   2.426   3.465 -0.3660  0.7267 -0.7978
  160SAPE   H9R17837   5.510   2.414   3.537 -0.2667  0.6647 -0.6925
  160SAPE  C21017838   5.710   2.328   3.493 -0.4342  0.4224  0.2762
  160SAPE  H10R17839   5.774   2.314   3.403  0.3364  0.4402  0.8182
  160SAPE  H10S17840   5.678   2.223   3.510 -0.8231  0.5667  0.4389
  160SAPE  C21117841   5.802   2.365   3.606 -0.7646  0.7222  0.7486
  160SAPE  H11R17842   5.862   2.452   3.575 -0.2995  0.0421 -0.2873
  160SAPE  C21217843   5.827   2.305   3.723 -1.0922  0.0356  0.1284
  160SAPE  H12R17844   5.907   2.342   3.789 -0.3691 -2.3678  0.6266
  160SAPE  C21317845   5.758   2.190   3.782 -0.2190 -0.1261 -0.4151
  160SAPE  H13R17846   5.812   2.097   3.756  0.2813 -0.1315  0.6162
  160SAPE  H13S17847   5.653   2.179   3.748 -0.8383  1.9285  0.7183
  160SAPE  C21417848   5.759   2.205   3.934  0.8142 -0.1130 -0.3654
  160SAPE  H14R17849   5.699   2.288   3.975 -0.4374 -0.4665 -1.4313
  160SAPE  C21517850   5.835   2.141   4.024  0.3735  0.2780 -0.1042
  160SAPE  H15R17851   5.823   2.161   4.132 -2.1696 -2.6015  0.2432
  160SAPE  C21617852   5.936   2.042   3.985  0.2730 -0.3708 -0.3012
  160SAPE  H16R17853   6.041   2.075   4.001 -0.0163  0.2385  0.3991
  160SAPE  H16S17854   5.928   2.004   3.881 -0.4327  2.2243 -1.2318
  160SAPE  C21717855   5.907   1.925   4.077 -0.0889  0.0944 -0.0638
  160SAPE  H17R17856   5.807   1.879   4.063  0.5174 -2.2214  2.8270
  160SAPE  H17S17857   5.919   1.949   4.185  1.0605 -0.0091 -0.1606
  160SAPE  C21817858   6.014   1.810   4.058 -0.6559 -0.6645 -0.8707
  160SAPE  H18R17859   6.106   1.853   4.103 -0.1294 -1.9766 -0.6814
  160SAPE  H18S17860   6.036   1.799   3.950  0.7835  2.8127 -1.0046
  160SAPE  C21917861   5.978   1.677   4.123  0.1990  0.6509  0.2540
  160SAPE  H19R17862   5.934   1.612   4.044  0.8018  1.2270 -0.5520
  160SAPE  H19S17863   5.904   1.691   4.205  0.4036  0.3082  0.5009
  160SAPE  C22017864   6.095   1.593   4.165 -0.1582 -0.6176  0.5358
  160SAPE  H20R17865   6.155   1.565   4.077  1.7584  4.2207  0.1210
  160SAPE  H20S17866   6.061   1.495   4.206  0.2085  0.0421  2.4884
  160SAPE  H20T17867   6.168   1.641   4.234 -2.9333  0.8729  2.5966
  160SAPE   C3317868   6.187   2.512   3.157  0.6465  0.2675  0.3680
  160SAPE   H3X17869   6.206   2.617   3.187 -0.7171  0.9403 -1.0373
  160SAPE   H3Y17870   6.280   2.472   3.112  1.6066  1.6277  1.1044
  160SAPE   C3417871   6.153   2.430   3.292 -0.0137 -0.0250 -0.1706
  160SAPE   H4X17872   6.147   2.323   3.264  0.4848 -0.7412  2.2880
  160SAPE   H4Y17873   6.055   2.471   3.325 -0.5136 -1.2355 -0.1376
  160SAPE   C3517874   6.249   2.460   3.400  0.6679 -0.1516 -1.0533
  160SAPE   H5X17875   6.254   2.569   3.421  2.2434 -0.5307  0.6207
  160SAPE   H5Y17876   6.354   2.435   3.373  0.8145 -0.3480 -0.3138
  160SAPE   C3617877   6.214   2.384   3.525 -0.3362  0.0733  0.1487
  160SAPE   H6X17878   6.212   2.273   3.514 -0.3643  0.2135 -1.3143
  160SAPE   H6Y17879   6.105   2.398   3.541 -0.5340 -2.4496  1.2368
  160SAPE   C3717880   6.298   2.419   3.656 -0.3266  0.0734 -0.0385
  160SAPE   H7X17881   6.305   2.530   3.663 -0.5096  0.1682 -1.2716
  160SAPE   H7Y17882   6.406   2.391   3.650  0.0579  1.4943 -0.0205
  160SAPE   C3817883   6.230   2.380   3.791  0.5079  0.3849 -0.4833
  160SAPE   H8X17884   6.282   2.288   3.825 -1.7580 -0.2684  1.3858
  160SAPE   H8Y17885   6.126   2.343   3.785 -0.0249  1.0848  3.2471
  160SAPE   C3917886   6.247   2.491   3.892 -0.4379 -0.3189  0.2366
  160SAPE   H9X17887   6.167   2.566   3.872 -1.5623 -1.3591  0.7422
  160SAPE   H9Y17888   6.346   2.538   3.875 -0.4161 -0.6982 -0.7527
  160SAPE  C31017889   6.225   2.449   4.036  0.4324  0.0880  0.2224
  160SAPE  H10X17890   6.251   2.531   4.106 -1.0519  2.9275 -2.4621
  160SAPE  H10Y17891   6.286   2.360   4.061  1.9594  0.3765 -2.3522
  160SAPE  C31117892   6.073   2.424   4.060  0.2153  0.4561  0.4652
  160SAPE  H11X17893   6.058   2.322   4.018  0.9126  0.1771  0.8924
  160SAPE  H11Y17894   6.003   2.490   4.004  0.2057 -0.1593 -0.2665
  160SAPE  C31217895   6.022   2.414   4.206 -0.6306 -0.0013  0.0440
  160SAPE  H12X17896   6.082   2.347   4.271 -0.9141  0.1087  0.4275
  160SAPE  H12Y17897   5.926   2.358   4.200 -1.3432  1.1728  0.2366
  160SAPE  C31317898   6.006   2.555   4.278  0.6052  0.4937 -0.1472
  160SAPE  H13X17899   5.927   2.601   4.215  0.1812 -1.0818 -0.7931
  160SAPE  H13Y17900   6.098   2.617   4.267  0.4793  0.7888  0.3941
  160SAPE  C31417901   5.946   2.543   4.422  0.6996  0.5762 -0.2063
  160SAPE  H14X17902   5.923   2.647   4.453 -1.4295 -0.5031  1.9253
  160SAPE  H14Y17903   6.023   2.496   4.487 -1.3923 -3.2884 -0.4124
  160SAPE  C31517904   5.804   2.473   4.446 -0.9883 -0.1407  0.2463
  160SAPE  H15X17905   5.761   2.477   4.548 -0.4890  0.8059  0.4293
  160SAPE  H15Y17906   5.813   2.363   4.434 -1.0711 -0.0742 -0.4759
  160SAPE  C31617907   5.707   2.521   4.340 -0.0178  0.0271 -0.1122
  160SAPE  H16X17908   5.755   2.499   4.242  0.7458 -0.9543  0.4705
  160SAPE  H16Y17909   5.679   2.628   4.352 -0.5380 -0.3635  2.4685
  160SAPE  C31717910   5.570   2.440   4.342 -0.3871 -0.6758 -0.5875
  160SAPE  H17X17911   5.492   2.476   4.272 -0.5699  2.1069  0.9516
  160SAPE  H17Y17912   5.530   2.444   4.446  1.0886 -2.6085  0.0828
  160SAPE  C31817913   5.580   2.290   4.322 -0.0523  0.4363 -0.0444
  160SAPE  H18X17914   5.676   2.240   4.349 -0.1495  0.4750  0.3640
  160SAPE  H18Y17915   5.579   2.275   4.212  1.7906  0.3661 -0.0690
  160SAPE  H18Z17916   5.489   2.240   4.361  0.5670 -1.9568 -1.4992
  161SAPE     N17917   3.732   6.036   1.938 -0.9096 -0.6864  0.4071
  161SAPE   HN117918   3.705   5.953   1.883  1.7260 -0.9022 -0.6691
  161SAPE   HN217919   3.647   6.092   1.961  0.2871  1.7658 -0.8831
  161SAPE   HN317920   3.791   6.096   1.877 -1.2824 -0.4073  0.3224
  161SAPE   C1217921   3.803   6.001   2.065  0.7766 -0.9820  0.2615
  161SAPE  H12A17922   3.892   6.067   2.073  0.9920 -1.0170 -1.6172
  161SAPE  H12B17923   3.834   5.895   2.058 -0.1530 -1.3548  1.6353
  161SAPE   C1117924   3.710   6.026   2.178 -1.0310  0.0876  0.0698
  161SAPE  H11A17925   3.696   6.136   2.172  2.1028  0.4510 -2.0366
  161SAPE  H11B17926   3.758   6.006   2.276 -1.9202 -0.0533  0.4813
  161SAPE     P17927   3.568   5.833   2.270 -0.0265  0.2196  0.3049
  161SAPE   O1317928   3.439   5.770   2.240  0.2850  0.1011  0.1722
  161SAPE   O1417929   3.684   5.739   2.273 -0.8611  0.3367  0.3476
  161SAPE   O1217930   3.596   5.948   2.169 -0.1432  0.5857 -0.0547
  161SAPE   O1117931   3.558   5.911   2.411 -0.0031 -0.5109 -0.0279
  161SAPE    C117932   3.423   5.942   2.455 -0.0156 -0.0888  1.0314
  161SAPE    HA17933   3.354   5.855   2.447  0.1550 -0.0886 -0.5131
  161SAPE    HB17934   3.424   5.971   2.562 -2.2264 -0.6263  1.2136
  161SAPE    C217935   3.360   6.059   2.370 -0.3383  0.3941 -0.1732
  161SAPE    HS17936   3.351   6.016   2.268 -1.3785 -0.7480  0.3761
  161SAPE   O2117937   3.452   6.166   2.383 -0.2099  0.1529  0.4222
  161SAPE   C2117938   3.454   6.263   2.296 -0.7008  0.4661 -0.4892
  161SAPE   O2217939   3.397   6.265   2.190 -0.6641 -0.3186 -0.3274
  161SAPE   C2217940   3.548   6.362   2.360  0.0715  0.3892 -0.0324
  161SAPE   H2R17941   3.507   6.391   2.459  0.1255 -0.8644  0.3599
  161SAPE   H2S17942   3.637   6.300   2.383  0.3899  1.2093  1.0245
  161SAPE    C317943   3.217   6.107   2.409  0.3724  0.4326  0.6662
  161SAPE    HX17944   3.143   6.026   2.391  1.2796 -0.3156  0.2590
  161SAPE    HY17945   3.185   6.193   2.347 -0.3713 -1.1453 -1.2037
  161SAPE   O3117946   3.208   6.138   2.549  0.4063  0.3250  0.2029
  161SAPE   C3117947   3.230   6.268   2.581 -0.5314 -0.3365 -0.6714
  161SAPE   O3217948   3.221   6.365   2.510 -0.3036 -0.7882 -0.1945
  161SAPE   C3217949   3.281   6.275   2.726  0.0375  0.1150 -0.2225
  161SAPE   H2X17950   3.320   6.377   2.743  0.0616 -0.0247  0.6157
  161SAPE   H2Y17951   3.373   6.213   2.726 -0.2967 -0.3796 -1.0688
  161SAPE   C2317952   3.572   6.479   2.267 -0.2988  0.6355  0.2725
  161SAPE   H3R17953   3.478   6.530   2.239  0.3732  1.5260 -0.4193
  161SAPE   H3S17954   3.617   6.437   2.175  2.4165  1.0612  1.3371
  161SAPE   C2417955   3.667   6.577   2.329  0.1213  0.8764 -0.3195
  161SAPE   H4R17956   3.702   6.644   2.247  1.0089 -0.6049 -1.1672
  161SAPE   H4S17957   3.757   6.519   2.356  1.3975  1.7340 -2.5440
  161SAPE   C2517958   3.612   6.666   2.443  0.0951  0.5506  0.3681
  161SAPE   H5R17959   3.572   6.763   2.411 -2.6302  0.0742  2.1735
  161SAPE   C2617960   3.623   6.648   2.575  0.5956 -0.1905  0.1106
  161SAPE   H6R17961   3.599   6.736   2.635  0.5105  0.6026 -1.0604
  161SAPE   C2717962   3.673   6.523   2.641 -0.2137  0.1689 -0.9226
  161SAPE   H7R17963   3.725   6.448   2.576 -3.3180 -1.6518 -1.4192
  161SAPE   H7S17964   3.584   6.457   2.649  0.6331 -0.9263 -0.4401
  161SAPE   C2817965   3.745   6.540   2.775  0.3769  0.3399  0.0293
  161SAPE   H8R17966   3.852   6.517   2.762  0.6149  0.9545  0.9090
  161SAPE   C2917967   3.697   6.569   2.897  0.3584  0.1176 -0.0997
  161SAPE   H9R17968   3.765   6.573   2.984  1.6021  0.4911 -1.0704
  161SAPE  C21017969   3.547   6.593   2.924 -0.5821  0.3605  0.4406
  161SAPE  H10R17970   3.483   6.543   2.848 -0.9288  1.7630 -0.2007
  161SAPE  H10S17971   3.526   6.701   2.935 -1.7616  0.2788 -0.8606
  161SAPE  C21117972   3.513   6.526   3.051 -0.2821  1.0731 -0.6175
  161SAPE  H11R17973   3.589   6.452   3.078 -1.4280  0.8894  2.2929
  161SAPE  C21217974   3.399   6.538   3.118 -0.3924  0.1424 -0.1706
  161SAPE  H12R17975   3.379   6.483   3.211  1.7637 -0.0241  0.2090
  161SAPE  C21317976   3.278   6.620   3.076 -0.1430  0.6703 -0.2801
  161SAPE  H13R17977   3.201   6.541   3.065  1.9581 -1.7171  1.3982
  161SAPE  H13S17978   3.282   6.666   2.975  3.7024  0.6910 -0.1875
  161SAPE  C21417979   3.233   6.724   3.174 -0.3319 -0.3798 -0.9413
  161SAPE  H14R17980   3.272   6.825   3.153  1.3273 -0.9398 -0.5841
  161SAPE  C21517981   3.150   6.712   3.285  0.8774 -0.2366  0.0611
  161SAPE  H15R17982   3.118   6.805   3.335 -1.9565 -1.7742  1.2245
  161SAPE  C21617983   3.079   6.590   3.334 -0.2551 -0.2238  0.3314
  161SAPE  H16R17984   3.116   6.505   3.273 -1.6764 -0.3185 -0.4121
  161SAPE  H16S17985   2.969   6.592   3.323 -0.2816  0.1142  0.6489
  161SAPE  C21717986   3.109   6.545   3.483 -0.0092  0.1233 -0.0272
  161SAPE  H17R17987   3.214   6.512   3.494 -0.1121 -0.4068 -0.5679
  161SAPE  H17S17988   3.052   6.452   3.502  0.1592  0.4998  2.4447
  161SAPE  C21817989   3.073   6.659   3.574 -0.6089  0.5301  0.0557
  161SAPE  H18R17990   2.963   6.668   3.571 -0.5218  0.9818 -2.1434
  161SAPE  H18S17991   3.127   6.753   3.549 -1.0437  1.5693  2.8196
  161SAPE  C21917992   3.120   6.620   3.712  0.7019  0.3230 -0.2572
  161SAPE  H19R17993   3.230   6.605   3.704  1.1924  3.5749 -0.2910
  161SAPE  H19S17994   3.062   6.532   3.745  0.4962  0.5154 -0.1040
  161SAPE  C22017995   3.107   6.722   3.822  0.1031  0.0547 -0.3846
  161SAPE  H20R17996   3.146   6.824   3.801 -0.4543  0.6413  1.3700
  161SAPE  H20S17997   3.150   6.688   3.919 -3.2211 -1.4846  0.6237
  161SAPE  H20T17998   2.997   6.727   3.832  0.1213  0.2220 -0.2525
  161SAPE   C3317999   3.196   6.231   2.846 -0.1938  0.2365 -0.2789
  161SAPE   H3X18000   3.124   6.154   2.811  0.5365 -0.6602  0.1732
  161SAPE   H3Y18001   3.118   6.305   2.875  0.1186  0.0666  1.0392
  161SAPE   C3418002   3.286   6.195   2.961 -0.4997  0.4123  0.1678
  161SAPE   H4X18003   3.365   6.272   2.948 -1.3936  1.1730 -0.9002
  161SAPE   H4Y18004   3.328   6.093   2.945  0.0827  0.6921 -0.0972
  161SAPE   C3518005   3.216   6.202   3.098 -0.5736 -0.2043 -0.1137
  161SAPE   H5X18006   3.150   6.112   3.096 -0.8937 -0.0196  1.2533
  161SAPE   H5Y18007   3.157   6.296   3.098  1.3538  1.0815  3.5989
  161SAPE   C3618008   3.308   6.183   3.215  0.8285 -0.0977  0.1289
  161SAPE   H6X18009   3.237   6.166   3.299  0.9848 -1.5133 -0.0168
  161SAPE   H6Y18010   3.378   6.268   3.230  1.4760 -0.4923 -0.6087
  161SAPE   C3718011   3.381   6.046   3.213  0.0343  0.0053  0.3891
  161SAPE   H7X18012   3.451   6.059   3.127 -0.8324  1.7280 -0.0779
  161SAPE   H7Y18013   3.332   5.949   3.189  0.3660 -0.3751  1.2286
  161SAPE   C3818014   3.466   6.013   3.334  0.5254  0.3823 -0.1560
  161SAPE   H8X18015   3.527   6.101   3.360 -1.5945  1.5921  0.8405
  161SAPE   H8Y18016   3.529   5.926   3.305  0.2019  0.3073 -0.6507
  161SAPE   C3918017   3.388   5.967   3.455  0.0329 -0.7326  0.2490
  161SAPE   H9X18018   3.331   5.875   3.430  0.3753 -1.2682  1.3814
  161SAPE   H9Y18019   3.314   6.047   3.474  0.4217  0.1710 -1.9065
  161SAPE  C31018020   3.484   5.932   3.572  0.1147  0.5098  0.3361
  161SAPE  H10X18021   3.519   6.028   3.616 -0.4910  0.3618  1.1628
  161SAPE  H10Y18022   3.576   5.876   3.546 -0.6646  0.4105 -2.3437
  161SAPE  C31118023   3.407   5.861   3.690  0.2795  0.1472 -0.5782
  161SAPE  H11X18024   3.370   5.763   3.653 -1.2633  1.0477 -1.4625
  161SAPE  H11Y18025   3.324   5.929   3.718  0.1673  0.0562 -0.6909
  161SAPE  C31218026   3.493   5.839   3.809  0.4644  0.3967  0.4125
  161SAPE  H12X18027   3.543   5.938   3.819  0.6470  0.4592 -1.1074
  161SAPE  H12Y18028   3.573   5.764   3.791  0.4006  0.6327 -0.8818
  161SAPE  C31318029   3.417   5.801   3.937 -0.0869  0.1170 -0.3301
  161SAPE  H13X18030   3.397   5.691   3.930 -0.0111  0.1835 -1.7074
  161SAPE  H13Y18031   3.313   5.839   3.928  0.2926  1.1897 -0.1867
  161SAPE  C31418032   3.486   5.828   4.063 -0.3561  0.7268 -0.5617
  161SAPE  H14X18033   3.595   5.844   4.055 -0.3613  1.2123  0.2387
  161SAPE  H14Y18034   3.477   5.754   4.146  0.4227 -0.0692 -1.1789
  161SAPE  C31518035   3.447   5.960   4.131  0.4819  0.0581 -0.7453
  161SAPE  H15X18036   3.337   5.973   4.129  0.2534 -1.9086 -1.7708
  161SAPE  H15Y18037   3.483   6.046   4.070 -0.6226 -0.7383 -2.5410
  161SAPE  C31618038   3.500   5.980   4.282 -0.6685  0.2937 -0.2974
  161SAPE  H16X18039   3.611   5.976   4.275 -0.8563 -2.1105 -2.5389
  161SAPE  H16Y18040   3.457   5.904   4.350 -0.3761 -1.1919 -1.7473
  161SAPE  C31718041   3.445   6.117   4.339 -0.6547  0.6633 -0.2328
  161SAPE  H17X18042   3.428   6.095   4.447  2.0219 -1.4143 -0.1741
  161SAPE  H17Y18043   3.341   6.117   4.299 -2.0474 -0.4050  3.1460
  161SAPE  C31818044   3.524   6.235   4.305 -0.2688  0.1078 -0.3301
  161SAPE  H18X18045   3.542   6.237   4.196 -1.1234  0.4083 -0.4710
  161SAPE  H18Y18046   3.612   6.239   4.372  0.4925  2.9931 -1.4093
  161SAPE  H18Z18047   3.466   6.329   4.316  2.7614  2.0296 -0.0049
  162SAPE     N18048   3.041   1.633   2.172 -0.1978  0.0014  0.2816
  162SAPE   HN118049   3.050   1.737   2.174 -1.0382  0.1993 -3.1560
  162SAPE   HN218050   2.974   1.618   2.094 -2.0147 -0.7497  1.9598
  162SAPE   HN318051   2.997   1.600   2.260 -1.7466  0.5912 -0.2573
  162SAPE   C1218052   3.176   1.567   2.149  0.2396 -0.1131 -0.3822
  162SAPE  H12A18053   3.250   1.600   2.225 -0.0683  3.4296 -1.5517
  162SAPE  H12B18054   3.208   1.594   2.046 -0.1431 -3.1933 -1.3689
  162SAPE   C1118055   3.159   1.411   2.156 -0.1137 -0.0349  0.3118
  162SAPE  H11A18056   3.116   1.382   2.254 -0.7852 -1.2215 -0.3202
  162SAPE  H11B18057   3.254   1.353   2.150 -1.6676 -2.5137 -1.9283
  162SAPE     P18058   3.047   1.223   2.021  0.1908  0.1545 -0.1634
  162SAPE   O1318059   2.906   1.206   1.990  0.1726  0.1994 -0.0302
  162SAPE   O1418060   3.142   1.185   1.917  0.4598 -0.2200 -0.2514
  162SAPE   O1218061   3.066   1.367   2.060  0.3651  0.2373  1.0987
  162SAPE   O1118062   3.086   1.143   2.156  0.4002 -0.0140 -0.0066
  162SAPE    C118063   2.986   1.065   2.228  0.0726  0.2079  0.5687
  162SAPE    HA18064   2.923   1.005   2.159  0.4348 -1.3022  1.5126
  162SAPE    HB18065   3.033   0.993   2.299  1.1019  1.3049  1.0094
  162SAPE    C218066   2.885   1.153   2.306 -0.0301  0.0754  0.4193
  162SAPE    HS18067   2.846   1.235   2.241  2.2936  1.6630  0.9916
  162SAPE   O2118068   2.962   1.209   2.412 -0.1261 -0.0862 -0.2769
  162SAPE   C2118069   2.919   1.297   2.496 -0.4559 -0.9062  0.2280
  162SAPE   O2218070   2.813   1.362   2.476 -0.5363  0.7928 -0.1016
  162SAPE   C2218071   3.016   1.322   2.609 -0.1157  0.0226 -0.2369
  162SAPE   H2R18072   3.121   1.320   2.572 -0.4999  1.4290 -1.4256
  162SAPE   H2S18073   2.994   1.425   2.643  0.7823 -1.0239  3.8573
  162SAPE    C318074   2.764   1.066   2.360 -0.3333 -0.0840  0.6200
  162SAPE    HX18075   2.710   1.028   2.271 -0.6858  0.5674  0.5462
  162SAPE    HY18076   2.699   1.139   2.414 -1.6588 -0.9970  0.2968
  162SAPE   O3118077   2.821   0.961   2.447  0.4991 -0.5065  0.0508
  162SAPE   C3118078   2.745   0.855   2.465 -0.3909  0.0446 -0.3887
  162SAPE   O3218079   2.637   0.832   2.409 -0.2890  0.1536  0.6228
  162SAPE   C3218080   2.812   0.762   2.572 -0.2061  0.3624 -0.5890
  162SAPE   H2X18081   2.897   0.705   2.530 -0.3844  1.0082 -1.8507
  162SAPE   H2Y18082   2.734   0.686   2.594 -0.2535  0.7441  0.6093
  162SAPE   C2318083   2.998   1.216   2.720 -0.3668  0.1399  0.7420
  162SAPE   H3R18084   3.079   1.233   2.794  0.6416 -0.2261 -0.2644
  162SAPE   H3S18085   3.001   1.109   2.689  1.2951  0.5100 -0.5008
  162SAPE   C2418086   2.872   1.263   2.797 -0.0108  0.1122 -0.0327
  162SAPE   H4R18087   2.842   1.173   2.855 -0.2477  0.3506  0.2126
  162SAPE   H4S18088   2.785   1.277   2.729 -0.4569  1.0014  0.7120
  162SAPE   C2518089   2.893   1.372   2.897 -0.4415  1.0620 -0.6006
  162SAPE   H5R18090   2.967   1.364   2.978 -0.8834  2.8116  0.0155
  162SAPE   C2618091   2.829   1.490   2.891  0.8284 -0.2460 -0.1990
  162SAPE   H6R18092   2.834   1.566   2.970 -0.5602  2.4457 -2.6147
  162SAPE   C2718093   2.734   1.528   2.783  0.2003  0.8785 -0.0176
  162SAPE   H7R18094   2.662   1.448   2.760  1.0354 -0.6704  2.5675
  162SAPE   H7S18095   2.798   1.553   2.696  1.2854  1.2592  0.8634
  162SAPE   C2818096   2.646   1.642   2.816  0.5062  0.2634 -0.4569
  162SAPE   H8R18097   2.656   1.718   2.737  0.9725 -0.2591 -0.9006
  162SAPE   C2918098   2.549   1.650   2.911 -0.3790  0.5207 -0.0627
  162SAPE   H9R18099   2.497   1.746   2.926 -2.4759 -0.4508 -0.8024
  162SAPE  C21018100   2.505   1.544   3.005 -0.2042  0.7353  0.6060
  162SAPE  H10R18101   2.518   1.586   3.107  3.9385 -2.2915  1.4391
  162SAPE  H10S18102   2.570   1.454   3.010  1.9473  2.1190 -1.4928
  162SAPE  C21118103   2.374   1.476   2.992  0.0951 -0.2180 -0.0767
  162SAPE  H11R18104   2.341   1.464   2.888 -0.1309  0.2612 -0.0597
  162SAPE  C21218105   2.286   1.428   3.080 -0.1137  0.1939 -0.1965
  162SAPE  H12R18106   2.188   1.392   3.048 -0.2210 -0.2059  0.5705
  162SAPE  C21318107   2.302   1.424   3.229 -0.0180  0.4377  0.1422
  162SAPE  H13R18108   2.405   1.449   3.262  0.7732 -1.0503 -1.1435
  162SAPE  H13S18109   2.282   1.317   3.250 -0.8799  0.9489  2.0470
  162SAPE  C21418110   2.199   1.508   3.300  0.6097 -0.3422 -0.6281
  162SAPE  H14R18111   2.103   1.528   3.251  0.0081  0.4505  0.8386
  162SAPE  C21518112   2.214   1.563   3.424  0.8903 -0.2588  0.5935
  162SAPE  H15R18113   2.142   1.636   3.465  2.0880  1.9198 -1.0981
  162SAPE  C21618114   2.338   1.527   3.503 -1.1402 -0.0770 -0.1374
  162SAPE  H16R18115   2.394   1.438   3.468  3.7589  2.8714 -0.3297
  162SAPE  H16S18116   2.307   1.479   3.598 -3.1390 -2.4836 -1.9334
  162SAPE  C21718117   2.426   1.654   3.530 -1.0616 -0.3534 -0.7665
  162SAPE  H17R18118   2.354   1.726   3.576 -0.3048  0.5886 -1.0314
  162SAPE  H17S18119   2.465   1.690   3.433  0.9001  0.8312  0.4265
  162SAPE  C21818120   2.536   1.627   3.632 -0.6254  0.2992 -0.1396
  162SAPE  H18R18121   2.596   1.542   3.595  0.8911  0.6565  1.4103
  162SAPE  H18S18122   2.492   1.582   3.724  0.7569 -0.1405  0.3265
  162SAPE  C21918123   2.618   1.751   3.670 -0.0917  0.3709 -0.1411
  162SAPE  H19R18124   2.651   1.793   3.572 -1.1353  0.6517 -0.3822
  162SAPE  H19S18125   2.704   1.714   3.729  0.5087  1.3844 -0.3546
  162SAPE  C22018126   2.530   1.863   3.729 -0.4762  0.1346  0.1258
  162SAPE  H20R18127   2.472   1.918   3.652 -0.6980  1.7578  1.4037
  162SAPE  H20S18128   2.599   1.932   3.782 -1.9015  1.5890  0.1354
  162SAPE  H20T18129   2.456   1.817   3.798 -1.6726  0.6016 -0.8185
  162SAPE   C3318130   2.848   0.835   2.696 -0.1106  0.3377 -0.2308
  162SAPE   H3X18131   2.753   0.879   2.735  0.7634  2.8775 -0.8799
  162SAPE   H3Y18132   2.920   0.916   2.672  1.5906 -0.7218  1.2586
  162SAPE   C3418133   2.904   0.750   2.808  0.1455 -0.3659 -0.2809
  162SAPE   H4X18134   2.999   0.698   2.784  0.0381 -0.5022 -0.4156
  162SAPE   H4Y18135   2.820   0.678   2.822 -2.5202  2.9584  1.5371
  162SAPE   C3518136   2.915   0.817   2.948  0.0914  0.1303 -0.4189
  162SAPE   H5X18137   2.933   0.744   3.030 -0.1026 -2.2973 -2.4754
  162SAPE   H5Y18138   2.826   0.872   2.985  0.9642 -0.2615  2.3856
  162SAPE   C3618139   3.036   0.916   2.933 -0.1271 -0.9973 -0.1150
  162SAPE   H6X18140   3.000   0.999   2.869 -2.3481 -1.8867 -0.0479
  162SAPE   H6Y18141   3.121   0.862   2.885 -0.0547 -1.6500  0.7310
  162SAPE   C3718142   3.085   0.971   3.069 -0.5409  0.5409  0.3417
  162SAPE   H7X18143   3.100   0.891   3.144  0.7158 -1.2501 -1.7680
  162SAPE   H7Y18144   3.017   1.055   3.094 -2.2000  0.4937 -3.6823
  162SAPE   C3818145   3.232   1.022   3.062  0.2634  0.4641 -0.0338
  162SAPE   H8X18146   3.234   1.097   2.980 -0.1867 -0.1128 -0.5721
  162SAPE   H8Y18147   3.286   0.933   3.024 -1.5559  0.4237 -2.5850
  162SAPE   C3918148   3.299   1.086   3.184 -0.2094  0.5798 -0.1103
  162SAPE   H9X18149   3.251   1.181   3.215 -3.9265 -0.4186 -2.4684
  162SAPE   H9Y18150   3.406   1.102   3.162 -0.4341  1.1041 -0.8462
  162SAPE  C31018151   3.291   0.994   3.305  0.0916 -0.6853  0.4854
  162SAPE  H10X18152   3.333   0.895   3.281  1.5612  0.0645 -0.0797
  162SAPE  H10Y18153   3.182   0.990   3.328 -0.4679  1.4862 -1.5575
  162SAPE  C31118154   3.351   1.058   3.428  0.9678  0.0707  0.4172
  162SAPE  H11X18155   3.305   1.159   3.434  0.1644 -0.3396  1.3573
  162SAPE  H11Y18156   3.462   1.059   3.430  0.9669 -0.4507  0.9889
  162SAPE  C31218157   3.309   0.981   3.552 -0.1562 -0.2363 -0.0081
  162SAPE  H12X18158   3.376   0.893   3.542 -0.5043 -0.5963  0.7276
  162SAPE  H12Y18159   3.205   0.941   3.544 -0.1290  0.1143 -2.5788
  162SAPE  C31318160   3.333   1.053   3.686  0.8808  0.3599 -0.0266
  162SAPE  H13X18161   3.246   1.118   3.710 -0.4868 -2.2527  2.3956
  162SAPE  H13Y18162   3.429   1.110   3.687  0.1714  1.5572  0.6528
  162SAPE  C31418163   3.351   0.942   3.791  0.2020 -1.2354 -0.8749
  162SAPE  H14X18164   3.370   0.983   3.893  0.5185 -0.1615 -1.3553
  162SAPE  H14Y18165   3.436   0.880   3.757 -1.4923 -4.0153 -0.2041
  162SAPE  C31518166   3.229   0.849   3.823  0.1384 -0.5272 -0.6342
  162SAPE  H15X18167   3.206   0.778   3.741  3.7730 -0.4572 -1.8142
  162SAPE  H15Y18168   3.147   0.921   3.846  1.6972  1.4037 -1.0087
  162SAPE  C31618169   3.258   0.756   3.944 -0.1915 -0.1828  0.4058
  162SAPE  H16X18170   3.322   0.805   4.020  2.1512 -0.2361 -1.4642
  162SAPE  H16Y18171   3.313   0.662   3.922 -1.3051 -1.4149  2.7958
  162SAPE  C31718172   3.132   0.701   4.016 -0.4256 -0.1686  0.3305
  162SAPE  H17X18173   3.074   0.642   3.942  0.8683 -2.0065  0.7372
  162SAPE  H17Y18174   3.074   0.776   4.073 -0.1075  1.4189 -1.3765
  162SAPE  C31818175   3.174   0.583   4.118  0.3161  0.7981  0.2943
  162SAPE  H18X18176   3.079   0.546   4.164 -0.9858  2.3827 -1.0496
  162SAPE  H18Y18177   3.240   0.633   4.192 -0.5590 -0.2249  1.7964
  162SAPE  H18Z18178   3.234   0.499   4.078  2.9309  1.0074  3.5881
  163SAPE     N18179   4.533   6.204   2.445 -0.3555  0.3114 -0.4073
  163SAPE   HN118180   4.457   6.222   2.376 -0.9786  1.6319  0.5990
  163SAPE   HN218181   4.594   6.142   2.388 -1.6540 -2.0126  0.6821
  163SAPE   HN318182   4.487   6.150   2.521  1.4168 -0.9748 -0.2170
  163SAPE   C1218183   4.607   6.332   2.487  0.1191 -0.1639  0.2697
  163SAPE  H12A18184   4.712   6.309   2.512 -0.2862  0.2706  2.4519
  163SAPE  H12B18185   4.557   6.382   2.573  1.4676 -1.5584  1.8676
  163SAPE   C1118186   4.605   6.430   2.371  0.7111 -0.1906  0.6560
  163SAPE  H11A18187   4.508   6.418   2.318  0.9222 -0.8909  0.4226
  163SAPE  H11B18188   4.692   6.399   2.309  1.9103 -2.1154  3.1889
  163SAPE     P18189   4.637   6.665   2.314  0.4946  0.4012 -0.5331
  163SAPE   O1318190   4.665   6.792   2.385  0.2748  0.3873 -0.5805
  163SAPE   O1418191   4.729   6.620   2.210 -0.3638 -0.1334  0.9293
  163SAPE   O1218192   4.627   6.554   2.433 -0.0405  0.3321  0.2274
  163SAPE   O1118193   4.491   6.669   2.259 -0.6911  0.2463 -0.1529
  163SAPE    C118194   4.422   6.796   2.273  0.1353  0.6172 -0.3922
  163SAPE    HA18195   4.390   6.802   2.379 -0.2903  0.2692 -0.4978
  163SAPE    HB18196   4.474   6.888   2.240  1.7423  1.0934  3.1916
  163SAPE    C218197   4.278   6.786   2.199 -0.0980  0.0894  0.0321
  163SAPE    HS18198   4.300   6.786   2.090  0.7112 -0.5455  0.1851
  163SAPE   O2118199   4.209   6.909   2.228  0.5690  0.2775 -0.1708
  163SAPE   C2118200   4.239   7.027   2.187 -0.1297  0.3160 -0.0887
  163SAPE   O2218201   4.332   7.051   2.106 -0.2118  0.3072 -0.3106
  163SAPE   C2218202   4.144   7.135   2.251 -0.1197  0.1047 -0.5819
  163SAPE   H2R18203   4.199   7.231   2.251 -0.7870  0.4937 -1.1027
  163SAPE   H2S18204   4.055   7.139   2.185 -0.1690  1.1165 -0.4566
  163SAPE    C318205   4.197   6.659   2.238  0.7051  0.2286  0.4544
  163SAPE    HX18206   4.253   6.565   2.215 -0.0452 -0.6140  1.9904
  163SAPE    HY18207   4.104   6.645   2.178  0.4252 -1.1685  1.1784
  163SAPE   O3118208   4.158   6.658   2.380  0.1575 -0.6860  0.4717
  163SAPE   C3118209   4.033   6.704   2.404 -0.0173 -1.4872 -0.5488
  163SAPE   O3218210   3.961   6.756   2.321  0.4223 -0.5092  0.4712
  163SAPE   C3218211   4.001   6.698   2.555 -0.4143  0.1525  0.3648
  163SAPE   H2X18212   3.976   6.592   2.579  2.8357 -0.8905 -0.7000
  163SAPE   H2Y18213   3.903   6.747   2.575 -2.3687 -2.1454 -3.0407
  163SAPE   C2318214   4.092   7.096   2.391 -0.0015 -0.0264 -0.5019
  163SAPE   H3R18215   4.152   7.033   2.459 -2.8255  1.3113  3.3934
  163SAPE   H3S18216   3.998   7.039   2.376 -0.0052 -0.1997  0.1617
  163SAPE   C2418217   4.061   7.217   2.477  0.4990  0.3188 -0.4004
  163SAPE   H4R18218   4.145   7.291   2.479 -0.1676  1.1371 -1.8930
  163SAPE   H4S18219   4.038   7.184   2.581  0.6458 -1.2661 -0.8643
  163SAPE   C2518220   3.939   7.293   2.446  0.3924  1.2558  0.5641
  163SAPE   H5R18221   3.972   7.372   2.377  2.5930  0.6192  0.8536
  163SAPE   C2618222   3.811   7.254   2.466  0.1287 -0.1313  0.0280
  163SAPE   H6R18223   3.734   7.317   2.419  1.5860  1.6870  0.0074
  163SAPE   C2718224   3.753   7.133   2.530 -0.0657  0.4783 -0.0044
  163SAPE   H7R18225   3.832   7.063   2.564  2.1136  1.1322 -3.4993
  163SAPE   H7S18226   3.692   7.075   2.458 -0.7013 -1.3781  1.9648
  163SAPE   C2818227   3.664   7.163   2.650 -0.3041 -0.8266 -0.5011
  163SAPE   H8R18228   3.640   7.270   2.656 -0.2442 -0.7950 -0.8148
  163SAPE   C2918229   3.654   7.090   2.766  0.8664  0.4647 -0.1746
  163SAPE   H9R18230   3.594   7.121   2.853  0.9079  0.6219 -0.2024
  163SAPE  C21018231   3.715   6.955   2.796  0.5100  0.8300  0.2117
  163SAPE  H10R18232   3.727   6.889   2.707  0.0071 -0.4811  1.1017
  163SAPE  H10S18233   3.648   6.902   2.868  1.4878  0.0550  0.5756
  163SAPE  C21118234   3.857   6.962   2.846 -0.3219  0.5315 -0.3690
  163SAPE  H11R18235   3.938   6.988   2.777 -1.0326  2.2074 -0.5847
  163SAPE  C21218236   3.898   6.942   2.976 -0.4565 -0.9572 -0.9139
  163SAPE  H12R18237   4.005   6.948   3.001 -0.0616 -2.8764 -1.9847
  163SAPE  C21318238   3.820   6.907   3.099  0.5692  0.5136  0.6167
  163SAPE  H13R18239   3.722   6.867   3.063  0.6726  1.7670 -1.1267
  163SAPE  H13S18240   3.806   7.005   3.149  0.7969  1.1648 -0.5925
  163SAPE  C21418241   3.892   6.795   3.177 -0.4153  0.6141 -0.1760
  163SAPE  H14R18242   3.925   6.705   3.124 -1.4736  0.3640 -0.4248
  163SAPE  C21518243   3.881   6.784   3.310 -1.2689 -0.1213  0.3796
  163SAPE  H15R18244   3.944   6.721   3.375 -1.1248 -0.0159  0.3416
  163SAPE  C21618245   3.816   6.882   3.407  0.3090  0.0800  0.5988
  163SAPE  H16R18246   3.722   6.834   3.441 -0.7769  0.4158 -1.8151
  163SAPE  H16S18247   3.779   6.973   3.356  0.6829 -1.6889 -3.0263
  163SAPE  C21718248   3.910   6.919   3.523 -0.4496  0.0175  0.4051
  163SAPE  H17R18249   4.001   6.971   3.486  0.2271 -1.4928 -0.0898
  163SAPE  H17S18250   3.935   6.831   3.587 -2.7454 -0.4684  0.6701
  163SAPE  C21818251   3.821   7.015   3.606  0.2979 -0.2740  0.0111
  163SAPE  H18R18252   3.729   6.959   3.635 -2.0195  3.5016  0.3367
  163SAPE  H18S18253   3.787   7.100   3.543 -0.4183 -1.4700 -1.2490
  163SAPE  C21918254   3.889   7.064   3.740  0.0520 -0.1841 -0.7264
  163SAPE  H19R18255   3.979   7.123   3.710  0.7024 -0.7925 -0.0106
  163SAPE  H19S18256   3.924   6.974   3.796  0.7810 -1.5153 -3.2362
  163SAPE  C22018257   3.801   7.145   3.839 -0.5184 -0.0161 -0.2936
  163SAPE  H20R18258   3.711   7.090   3.873 -0.2403  0.1481  0.7010
  163SAPE  H20S18259   3.774   7.236   3.782  0.3332 -0.1281 -0.8963
  163SAPE  H20T18260   3.860   7.167   3.930 -1.9773  2.7328  0.0371
  163SAPE   C3318261   4.108   6.753   2.643  0.2084 -0.5088  0.2202
  163SAPE   H3X18262   4.099   6.864   2.651  0.8678 -0.4818  0.6898
  163SAPE   H3Y18263   4.205   6.720   2.601  0.2125  0.7189 -0.7639
  163SAPE   C3418264   4.104   6.709   2.791  0.0127 -0.1967 -0.1976
  163SAPE   H4X18265   3.994   6.703   2.799 -0.1170  0.2907 -1.5358
  163SAPE   H4Y18266   4.164   6.774   2.859  1.4624  0.0504 -1.6665
  163SAPE   C3518267   4.152   6.567   2.810 -0.1362  0.3381 -0.1878
  163SAPE   H5X18268   4.261   6.555   2.790  0.0097 -0.3443  0.9447
  163SAPE   H5Y18269   4.091   6.503   2.742  1.0161 -1.0472  0.0580
  163SAPE   C3618270   4.112   6.515   2.946 -0.4446  0.4195 -0.4098
  163SAPE   H6X18271   4.107   6.405   2.935  0.6007  0.2798  0.4379
  163SAPE   H6Y18272   4.018   6.561   2.983 -0.1412  0.9018 -0.2364
  163SAPE   C3718273   4.229   6.538   3.044  0.3841  0.8106  0.1675
  163SAPE   H7X18274   4.246   6.646   3.060 -1.1426  1.4571 -2.3624
  163SAPE   H7Y18275   4.321   6.494   2.998 -0.3652 -1.0070  0.3710
  163SAPE   C3818276   4.198   6.486   3.182  0.8395 -0.1521  0.0321
  163SAPE   H8X18277   4.164   6.380   3.190 -0.5827  0.2702 -0.2078
  163SAPE   H8Y18278   4.118   6.556   3.216  0.5017 -0.6089  0.1952
  163SAPE   C3918279   4.317   6.502   3.275 -0.3312 -0.0927  0.7649
  163SAPE   H9X18280   4.371   6.596   3.252  2.2022 -1.4081  1.2283
  163SAPE   H9Y18281   4.385   6.416   3.259 -0.6358  0.3020 -2.9023
  163SAPE  C31018282   4.281   6.511   3.419 -0.0210  0.5426 -0.4661
  163SAPE  H10X18283   4.371   6.476   3.475  0.2358  2.2662  0.2168
  163SAPE  H10Y18284   4.192   6.451   3.448 -0.2571  1.4983  0.8288
  163SAPE  C31118285   4.251   6.652   3.476  0.2702 -0.1704 -0.1599
  163SAPE  H11X18286   4.146   6.678   3.451  0.2612  0.3343  0.3812
  163SAPE  H11Y18287   4.325   6.726   3.439 -0.8765  1.6352  1.0671
  163SAPE  C31218288   4.246   6.656   3.635  0.1235  0.3009  0.3006
  163SAPE  H12X18289   4.273   6.755   3.679 -4.4592  1.2585  1.1666
  163SAPE  H12Y18290   4.335   6.594   3.659  0.1401  0.1517 -0.1376
  163SAPE  C31318291   4.121   6.597   3.705 -0.3587  0.2107 -0.6591
  163SAPE  H13X18292   4.099   6.495   3.668 -0.7493  0.6832 -1.7423
  163SAPE  H13Y18293   4.031   6.656   3.675 -0.7327  1.0536  2.0105
  163SAPE  C31418294   4.153   6.581   3.855 -0.6693 -0.3832  0.7018
  163SAPE  H14X18295   4.261   6.556   3.867 -0.1245  0.2174 -2.6367
  163SAPE  H14Y18296   4.093   6.495   3.892  1.0712 -1.3288  1.3763
  163SAPE  C31518297   4.131   6.708   3.937 -0.5578 -1.0585  0.5656
  163SAPE  H15X18298   4.023   6.731   3.950 -0.7532  1.1683 -4.0533
  163SAPE  H15Y18299   4.182   6.798   3.898  0.9538 -1.2711  1.9759
  163SAPE  C31618300   4.200   6.687   4.071  0.3090  0.7972 -0.6407
  163SAPE  H16X18301   4.309   6.686   4.051  0.5572  2.7013  0.5361
  163SAPE  H16Y18302   4.177   6.585   4.110  3.3242  0.0499 -0.6862
  163SAPE  C31718303   4.179   6.794   4.175  0.2760 -0.2961  0.0423
  163SAPE  H17X18304   4.210   6.888   4.123 -0.3480 -0.2950 -0.3351
  163SAPE  H17Y18305   4.250   6.767   4.256 -0.5848  2.8261  1.9329
  163SAPE  C31818306   4.033   6.794   4.229  0.4294 -0.6948  0.0617
  163SAPE  H18X18307   4.027   6.890   4.285  0.0435 -0.1803 -0.8570
  163SAPE  H18Y18308   4.021   6.718   4.309 -1.5723  0.7639  1.2044
  163SAPE  H18Z18309   3.949   6.812   4.158 -1.1755  0.4797  2.1811
  164SAPE     N18310   6.353   4.991   2.176 -1.0507 -0.7689 -0.5383
  164SAPE   HN118311   6.257   5.027   2.197 -0.6695  0.6039 -1.1099
  164SAPE   HN218312   6.371   4.965   2.077  1.1542  1.4009 -0.7303
  164SAPE   HN318313   6.360   4.900   2.226  0.1988 -0.7023 -0.5833
  164SAPE   C1218314   6.461   5.087   2.215  0.1112  0.4298 -0.4428
  164SAPE  H12A18315   6.556   5.037   2.186 -1.1355  0.2145 -4.3534
  164SAPE  H12B18316   6.450   5.101   2.325 -0.8016 -1.5252 -0.2569
  164SAPE   C1118317   6.455   5.223   2.154  0.4071 -0.4135  0.1017
  164SAPE  H11A18318   6.355   5.272   2.155  1.0810  1.0149  2.8024
  164SAPE  H11B18319   6.478   5.197   2.049  2.8629 -0.8510  0.7165
  164SAPE     P18320   6.544   5.457   2.234  0.3268 -0.2791  0.1213
  164SAPE   O1318321   6.649   5.504   2.327 -0.0747 -0.1553 -0.4166
  164SAPE   O1418322   6.535   5.527   2.104 -0.2116  0.4471 -0.2259
  164SAPE   O1218323   6.559   5.306   2.195 -0.3909  0.3783  0.1236
  164SAPE   O1118324   6.409   5.456   2.305  0.1179  0.2816  0.1106
  164SAPE    C118325   6.413   5.461   2.447  0.8691  1.0499 -0.2421
  164SAPE    HA18326   6.488   5.390   2.488 -1.2384 -2.7939 -2.7618
  164SAPE    HB18327   6.444   5.564   2.474 -1.1042  0.7461  3.4797
  164SAPE    C218328   6.274   5.425   2.510  0.2039  0.0665 -0.0790
  164SAPE    HS18329   6.203   5.490   2.455 -2.2295 -1.6074  1.0207
  164SAPE   O2118330   6.278   5.450   2.651  0.0193  0.0600 -0.5585
  164SAPE   C2118331   6.166   5.470   2.714  0.1306 -0.2295  0.1146
  164SAPE   O2218332   6.055   5.478   2.661  0.3394 -0.0181  0.4303
  164SAPE   C2218333   6.198   5.479   2.863  0.5075  0.0398  1.1040
  164SAPE   H2R18334   6.216   5.377   2.905 -1.9635 -0.0531  2.0434
  164SAPE   H2S18335   6.282   5.551   2.865  0.4800  0.1889 -1.8511
  164SAPE    C318336   6.240   5.272   2.495  0.4087 -1.0222  0.0700
  164SAPE    HX18337   6.252   5.248   2.387  2.2170 -2.3066  0.5276
  164SAPE    HY18338   6.132   5.250   2.511  0.5336 -1.5425  0.2029
  164SAPE   O3118339   6.330   5.180   2.561  0.3801 -0.6671 -1.0046
  164SAPE   C3118340   6.281   5.137   2.680 -0.5662 -0.1670 -0.1435
  164SAPE   O3218341   6.180   5.170   2.732 -0.2989 -0.6754  0.0315
  164SAPE   C3218342   6.370   5.031   2.740 -0.3976 -0.3803 -0.6927
  164SAPE   H2X18343   6.401   4.967   2.655  2.6803  0.4649 -0.2659
  164SAPE   H2Y18344   6.315   4.972   2.816 -3.2667  0.5934 -1.9689
  164SAPE   C2318345   6.083   5.544   2.946 -0.1541 -0.0002 -0.5430
  164SAPE   H3R18346   5.988   5.489   2.933 -0.5374  0.5951 -0.3237
  164SAPE   H3S18347   6.076   5.650   2.913 -1.1087 -0.0977 -0.6678
  164SAPE   C2418348   6.122   5.569   3.099  0.2679  0.4157 -0.2254
  164SAPE   H4R18349   6.055   5.644   3.145  0.0431  0.0095  0.1109
  164SAPE   H4S18350   6.222   5.618   3.105  1.2689 -1.4940 -0.7899
  164SAPE   C2518351   6.117   5.447   3.182  0.6346  0.0570 -0.2049
  164SAPE   H5R18352   6.029   5.385   3.159 -0.1632  0.2645  2.1566
  164SAPE   C2618353   6.209   5.409   3.274 -0.1207  0.0502 -0.9111
  164SAPE   H6R18354   6.187   5.313   3.321  1.0209 -0.8835 -2.2315
  164SAPE   C2718355   6.341   5.472   3.327 -0.1403 -0.4314  0.0958
  164SAPE   H7R18356   6.362   5.439   3.431 -0.3344  0.9892  0.6026
  164SAPE   H7S18357   6.336   5.583   3.313  0.5669 -0.3427  0.4967
  164SAPE   C2818358   6.452   5.427   3.233  0.2754  0.2555 -0.6764
  164SAPE   H8R18359   6.429   5.404   3.128 -3.9885 -0.7373  0.4150
  164SAPE   C2918360   6.582   5.432   3.266 -0.2864  0.6026 -0.6416
  164SAPE   H9R18361   6.647   5.377   3.197  0.0024 -0.1847  0.2366
  164SAPE  C21018362   6.633   5.484   3.402  1.2273  0.5853 -0.2702
  164SAPE  H10R18363   6.729   5.431   3.423 -0.1182 -1.9368 -0.2313
  164SAPE  H10S18364   6.563   5.459   3.485  1.0379 -3.3037 -1.4867
  164SAPE  C21118365   6.657   5.629   3.391  0.0311  0.3622  0.9051
  164SAPE  H11R18366   6.712   5.659   3.301 -0.4461  1.0059  0.8214
  164SAPE  C21218367   6.620   5.719   3.479  0.0762 -0.0620  0.0557
  164SAPE  H12R18368   6.640   5.823   3.451 -0.1306 -0.3885 -1.3277
  164SAPE  C21318369   6.550   5.690   3.611  0.0594 -0.0673 -0.6555
  164SAPE  H13R18370   6.624   5.672   3.692  0.2499  0.3281 -0.7401
  164SAPE  H13S18371   6.496   5.594   3.599 -0.5062  0.1214  0.3731
  164SAPE  C21418372   6.458   5.809   3.648 -0.0639  0.0657  0.2526
  164SAPE  H14R18373   6.505   5.904   3.675  0.1558 -0.0828  0.3967
  164SAPE  C21518374   6.329   5.795   3.660 -0.0403 -0.4276  0.0161
  164SAPE  H15R18375   6.274   5.879   3.706  0.1365  0.1542 -0.8232
  164SAPE  C21618376   6.230   5.678   3.643  0.0003 -0.2032  0.1827
  164SAPE  H16R18377   6.277   5.581   3.617 -2.6177 -1.2274 -0.9092
  164SAPE  H16S18378   6.171   5.695   3.550  0.7249 -1.4039 -0.4994
  164SAPE  C21718379   6.140   5.644   3.763 -0.1920 -0.7388  0.1374
  164SAPE  H17R18380   6.196   5.640   3.859 -0.7720  0.5061  0.5348
  164SAPE  H17S18381   6.093   5.544   3.755  0.0175 -1.1763  3.6101
  164SAPE  C21818382   6.027   5.750   3.771 -0.1687  0.7282 -0.1355
  164SAPE  H18R18383   5.979   5.744   3.671 -0.0815  1.4468 -0.2228
  164SAPE  H18S18384   6.059   5.856   3.779  1.0301  0.3690 -0.0190
  164SAPE  C21918385   5.918   5.723   3.879  0.4183 -0.2549  0.4263
  164SAPE  H19R18386   5.969   5.739   3.976  1.6851 -0.1317 -0.2338
  164SAPE  H19S18387   5.877   5.620   3.874  0.2872 -0.2851  1.9434
  164SAPE  C22018388   5.798   5.822   3.864 -0.0598 -0.3891  0.2212
  164SAPE  H20R18389   5.825   5.920   3.908 -0.8792 -1.3024  2.8580
  164SAPE  H20S18390   5.719   5.780   3.930 -1.1022 -0.1446 -0.8770
  164SAPE  H20T18391   5.779   5.839   3.756 -1.3224 -0.3221  0.4458
  164SAPE   C3318392   6.492   5.103   2.798 -0.4343 -1.0330 -0.5731
  164SAPE   H3X18393   6.516   5.198   2.745 -0.4249 -0.1105  1.0569
  164SAPE   H3Y18394   6.580   5.036   2.787  0.5649 -0.3861  2.9599
  164SAPE   C3418395   6.473   5.142   2.948  0.3167 -0.2377  0.7949
  164SAPE   H4X18396   6.386   5.210   2.957  0.2581 -0.2603  0.4168
  164SAPE   H4Y18397   6.559   5.200   2.988 -0.8770  2.3843 -0.2941
  164SAPE   C3518398   6.465   5.023   3.035 -0.1109  0.2117  0.2627
  164SAPE   H5X18399   6.561   4.967   3.026 -0.6970 -1.7960  5.0565
  164SAPE   H5Y18400   6.385   4.950   3.010 -0.1497  0.0074  0.9910
  164SAPE   C3618401   6.469   5.056   3.182  0.3235 -0.3188  0.6004
  164SAPE   H6X18402   6.372   5.093   3.221 -0.6135  0.8377 -2.6970
  164SAPE   H6Y18403   6.546   5.135   3.198  1.0279 -0.9545  0.4121
  164SAPE   C3718404   6.522   4.939   3.264 -0.3080  0.1189 -0.2449
  164SAPE   H7X18405   6.478   4.844   3.227 -2.1115  1.2846 -1.1412
  164SAPE   H7Y18406   6.485   4.951   3.368  0.3151  0.7704 -0.0952
  164SAPE   C3818407   6.676   4.931   3.278  1.1329  0.7101  0.1559
  164SAPE   H8X18408   6.712   5.024   3.327  0.2558  1.3353 -0.3680
  164SAPE   H8Y18409   6.722   4.927   3.176  2.3294 -0.8494  0.7353
  164SAPE   C3918410   6.711   4.808   3.359  1.3127 -0.9037  0.8049
  164SAPE   H9X18411   6.650   4.723   3.321  2.6356 -2.4470  2.0635
  164SAPE   H9Y18412   6.669   4.821   3.461  1.6573  1.3391  0.6863
  164SAPE  C31018413   6.858   4.771   3.363 -0.1507 -0.2200 -0.8610
  164SAPE  H10X18414   6.913   4.819   3.279  0.5979 -0.0615 -0.2753
  164SAPE  H10Y18415   6.851   4.664   3.335 -4.5702  0.1303 -1.5603
  164SAPE  C31118416   6.930   4.799   3.491  0.1494  0.1028  0.7307
  164SAPE  H11X18417   7.030   4.753   3.475 -0.0596  0.3488 -1.3132
  164SAPE  H11Y18418   6.882   4.759   3.583 -0.8761 -0.2821  0.0280
  164SAPE  C31218419   6.947   4.950   3.509  0.2321 -0.0562 -0.5579
  164SAPE  H12X18420   6.849   4.980   3.550  2.1124  2.0287  2.5599
  164SAPE  H12Y18421   6.953   4.989   3.405 -3.2416  0.9338 -0.4503
  164SAPE  C31318422   7.056   5.008   3.608  0.2997  0.6464  0.5659
  164SAPE  H13X18423   7.160   4.991   3.574 -0.6953 -1.7109 -1.5147
  164SAPE  H13Y18424   7.045   4.953   3.704  2.2582 -1.1223 -0.1811
  164SAPE  C31418425   7.047   5.167   3.621 -0.3834  0.2792  0.5935
  164SAPE  H14X18426   7.043   5.208   3.518 -1.5497  0.8316  0.8494
  164SAPE  H14Y18427   7.143   5.214   3.652  0.4373 -0.2937 -0.9937
  164SAPE  C31518428   6.921   5.228   3.683  0.3061  0.4233 -0.1437
  164SAPE  H15X18429   6.887   5.147   3.751 -0.1845 -0.1913 -1.1096
  164SAPE  H15Y18430   6.843   5.238   3.604  1.6685  2.9675 -1.2469
  164SAPE  C31618431   6.934   5.363   3.747 -0.0609  0.0675 -0.0348
  164SAPE  H16X18432   6.833   5.404   3.770 -0.1486 -0.3302  0.2980
  164SAPE  H16Y18433   6.995   5.434   3.686 -1.9897  0.0385 -2.0751
  164SAPE  C31718434   7.013   5.366   3.872 -0.4149 -0.5088 -0.0105
  164SAPE  H17X18435   7.056   5.466   3.898  0.6260 -0.7489 -0.7873
  164SAPE  H17Y18436   7.096   5.294   3.861 -0.7761 -1.0030  0.4505
  164SAPE  C31818437   6.934   5.326   3.994  0.1116 -0.2497  0.1611
  164SAPE  H18X18438   6.911   5.218   3.982 -1.2149 -0.0753  0.9557
  164SAPE  H18Y18439   6.838   5.383   3.995  1.0254  1.3040 -0.1843
  164SAPE  H18Z18440   6.995   5.345   4.085 -0.3302 -0.8929  0.5947
  165SAPE     N18441   3.051   6.581   2.442  0.1925  0.0475  0.0014
  165SAPE   HN118442   3.104   6.510   2.497  3.5898  1.1902 -1.6904
  165SAPE   HN218443   3.029   6.539   2.349 -2.3438 -2.2524  1.5572
  165SAPE   HN318444   3.118   6.660   2.440 -0.4222  0.5826  0.3072
  165SAPE   C1218445   2.919   6.628   2.499 -0.2897 -0.0354 -0.8311
  165SAPE  H12A18446   2.934   6.618   2.609  0.5974  0.7996 -0.8668
  165SAPE  H12B18447   2.848   6.561   2.446  3.3550 -2.4508 -2.9101
  165SAPE   C1118448   2.897   6.774   2.467  0.4010 -0.4199 -0.7091
  165SAPE  H11A18449   2.982   6.834   2.507 -0.2810 -1.6980  2.8157
  165SAPE  H11B18450   2.805   6.807   2.521 -0.3267 -1.1219 -1.5110
  165SAPE     P18451   2.948   6.857   2.227 -0.0023  0.5437  0.3110
  165SAPE   O1318452   2.907   6.789   2.101 -0.1267  0.3786 -0.2541
  165SAPE   O1418453   2.921   7.005   2.222 -0.3432 -0.0176 -0.4017
  165SAPE   O1218454   2.865   6.780   2.327 -0.0307  0.0873  0.2016
  165SAPE   O1118455   3.090   6.823   2.280  0.1627 -0.7070 -0.3043
  165SAPE    C118456   3.200   6.877   2.209  0.2582 -0.0363  0.2568
  165SAPE    HA18457   3.202   6.830   2.109  4.2012  2.5865 -1.0212
  165SAPE    HB18458   3.190   6.988   2.198 -3.7515 -0.2306  1.1864
  165SAPE    C218459   3.334   6.845   2.280 -0.5757 -0.0260  0.3835
  165SAPE    HS18460   3.354   6.738   2.301 -1.1201 -0.1888  0.0803
  165SAPE   O2118461   3.353   6.916   2.398 -0.0603  0.1814 -0.3166
  165SAPE   C2118462   3.319   6.859   2.513 -0.0274  0.2904  0.2548
  165SAPE   O2218463   3.259   6.753   2.526 -0.6212 -0.7182  0.1614
  165SAPE   C2218464   3.356   6.950   2.627  0.3623 -0.2721  0.2654
  165SAPE   H2R18465   3.467   6.958   2.626  0.3646 -0.2300  0.6106
  165SAPE   H2S18466   3.316   7.049   2.598 -0.0759 -0.7115 -0.6332
  165SAPE    C318467   3.447   6.890   2.182  0.1526  0.1229 -0.0937
  165SAPE    HX18468   3.460   6.815   2.102  1.8524  0.0517  0.2249
  165SAPE    HY18469   3.540   6.889   2.243 -0.9738 -1.1748  1.6712
  165SAPE   O3118470   3.424   7.020   2.122  0.0532 -0.1140  0.1631
  165SAPE   C3118471   3.501   7.120   2.157 -0.5371  0.0200  0.0168
  165SAPE   O3218472   3.602   7.110   2.225 -0.4731 -1.1087  0.0320
  165SAPE   C3218473   3.440   7.255   2.102 -0.5961  0.4257 -0.1005
  165SAPE   H2X18474   3.375   7.229   2.016 -0.8096 -1.0058  0.4761
  165SAPE   H2Y18475   3.526   7.312   2.059  1.8684 -2.2395  1.0835
  165SAPE   C2318476   3.313   6.910   2.773 -1.0580 -0.5120  0.7664
  165SAPE   H3R18477   3.367   6.979   2.841 -2.4166  0.5565  0.7909
  165SAPE   H3S18478   3.355   6.809   2.794 -2.0079 -0.9739  0.5187
  165SAPE   C2418479   3.161   6.912   2.788 -0.7842  0.4364  1.3329
  165SAPE   H4R18480   3.136   6.880   2.891 -1.7380 -1.6512  0.4807
  165SAPE   H4S18481   3.122   6.835   2.718  0.6338  0.8754  0.0323
  165SAPE   C2518482   3.089   7.041   2.755  0.2835  0.1280 -0.0205
  165SAPE   H5R18483   3.097   7.080   2.652 -2.5239  0.7781 -0.0389
  165SAPE   C2618484   3.013   7.116   2.838  0.0460 -0.3626 -0.5826
  165SAPE   H6R18485   2.974   7.213   2.803  0.8475  0.4621  0.7780
  165SAPE   C2718486   2.988   7.086   2.986 -0.2990 -0.3172 -0.3526
  165SAPE   H7R18487   3.071   7.032   3.036 -0.0561 -1.7927 -2.3114
  165SAPE   H7S18488   2.890   7.037   3.004  0.9488 -2.0805  1.9251
  165SAPE   C2818489   2.962   7.217   3.061 -0.0920 -0.3944  0.6431
  165SAPE   H8R18490   2.944   7.307   3.001  0.2390 -0.1346  0.9362
  165SAPE   C2918491   2.955   7.233   3.195 -0.6793  0.1494  0.0690
  165SAPE   H9R18492   2.948   7.338   3.225  2.0928  0.1134  0.9442
  165SAPE  C21018493   2.969   7.120   3.297  0.6416  0.1364  0.8507
  165SAPE  H10R18494   3.073   7.118   3.337  1.5473 -1.3162 -1.4218
  165SAPE  H10S18495   2.952   7.028   3.237 -3.5934  0.5022  1.3459
  165SAPE  C21118496   2.872   7.126   3.410 -0.4122 -0.2196 -0.2637
  165SAPE  H11R18497   2.774   7.151   3.367 -0.4797 -1.4122 -0.8276
  165SAPE  C21218498   2.886   7.101   3.537  1.1209 -0.1988  0.4787
  165SAPE  H12R18499   2.797   7.098   3.602  2.3742 -1.0922  2.1852
  165SAPE  C21318500   3.013   7.047   3.602 -0.0880 -0.0558 -0.1051
  165SAPE  H13R18501   3.097   7.023   3.534  0.8444  2.1162  0.2570
  165SAPE  H13S18502   3.001   6.952   3.660  3.1073 -0.1574  0.4412
  165SAPE  C21418503   3.067   7.158   3.686 -0.3281 -0.5506 -0.5023
  165SAPE  H14R18504   3.004   7.246   3.702 -0.1601 -0.7019  0.9943
  165SAPE  C21518505   3.195   7.156   3.743  0.1509 -0.1230  0.6521
  165SAPE  H15R18506   3.236   7.250   3.782 -0.4398  0.6939 -0.6734
  165SAPE  C21618507   3.297   7.046   3.743 -1.0200 -0.0584 -1.2275
  165SAPE  H16R18508   3.259   6.970   3.671  0.3309 -1.8769 -0.0528
  165SAPE  H16S18509   3.308   6.995   3.841  0.5929  2.2790 -0.1525
  165SAPE  C21718510   3.445   7.078   3.707 -0.5237 -0.1871 -0.2822
  165SAPE  H17R18511   3.513   6.992   3.725 -0.0282  0.1258 -0.6475
  165SAPE  H17S18512   3.486   7.157   3.773  1.5795 -0.5268 -1.1491
  165SAPE  C21818513   3.472   7.132   3.567  0.1299 -0.0618  0.2225
  165SAPE  H18R18514   3.574   7.175   3.562 -0.8824  2.3725 -0.5035
  165SAPE  H18S18515   3.407   7.221   3.550  1.6102  1.1311  0.7870
  165SAPE  C21918516   3.455   7.012   3.463 -0.0125  0.0786 -0.1670
  165SAPE  H19R18517   3.353   6.968   3.462 -0.5617  1.2993 -2.2535
  165SAPE  H19S18518   3.527   6.929   3.478  0.1318  0.2234 -0.0556
  165SAPE  C22018519   3.474   7.066   3.320  0.5300 -0.0832  0.4409
  165SAPE  H20R18520   3.392   7.136   3.296  2.1895  2.0962  0.9778
  165SAPE  H20S18521   3.473   6.991   3.238  3.7458  1.4911 -1.1195
  165SAPE  H20T18522   3.570   7.121   3.328  0.7694 -0.6920  2.0822
  165SAPE   C3318523   3.372   7.325   2.219 -0.0307  0.2251 -0.1099
  165SAPE   H3X18524   3.323   7.418   2.185  0.8896  1.7218  2.4911
  165SAPE   H3Y18525   3.458   7.344   2.286 -0.0891 -0.5991  0.2062
  165SAPE   C3418526   3.265   7.249   2.303 -0.1503 -0.7168 -0.0387
  165SAPE   H4X18527   3.307   7.155   2.344  2.6770  0.1617 -0.7526
  165SAPE   H4Y18528   3.202   7.201   2.226  0.6709  1.7874 -2.3425
  165SAPE   C3518529   3.203   7.328   2.418 -0.2487  0.0626  0.7436
  165SAPE   H5X18530   3.132   7.262   2.471 -1.4345  1.6714  1.2028
  165SAPE   H5Y18531   3.139   7.406   2.371  0.3096 -1.5849 -2.9253
  165SAPE   C3618532   3.316   7.380   2.510 -0.1835 -0.0046 -0.1229
  165SAPE   H6X18533   3.383   7.453   2.460 -0.7748 -2.1509 -4.2643
  165SAPE   H6Y18534   3.372   7.288   2.539  0.2946  0.5410  0.7046
  165SAPE   C3718535   3.259   7.455   2.634 -0.0417  0.0814 -0.3626
  165SAPE   H7X18536   3.163   7.408   2.667  0.6044 -0.7063  0.4033
  165SAPE   H7Y18537   3.221   7.557   2.612  1.3922  0.1476 -2.6789
  165SAPE   C3818538   3.362   7.442   2.744  0.8627 -0.2920  0.5786
  165SAPE   H8X18539   3.365   7.530   2.811 -0.5029  0.7984 -0.7451
  165SAPE   H8Y18540   3.459   7.439   2.690 -0.7271 -1.3584 -2.3290
  165SAPE   C3918541   3.334   7.321   2.833  0.2900 -0.0628  0.1411
  165SAPE   H9X18542   3.354   7.227   2.778  0.7593  0.5417 -0.7433
  165SAPE   H9Y18543   3.225   7.332   2.854 -0.1849 -2.0448 -1.1344
  165SAPE  C31018544   3.412   7.324   2.972 -0.3406  0.0264 -0.1534
  165SAPE  H10X18545   3.517   7.360   2.966 -0.0727 -0.7665 -0.3425
  165SAPE  H10Y18546   3.406   7.221   3.015  0.6694  1.1930  2.9677
  165SAPE  C31118547   3.328   7.411   3.071 -0.2302 -0.0806  0.1634
  165SAPE  H11X18548   3.228   7.362   3.074 -0.0865 -0.3017  2.8645
  165SAPE  H11Y18549   3.317   7.515   3.036  1.3760  0.6253  1.6601
  165SAPE  C31218550   3.389   7.431   3.206 -0.4363 -0.3702  0.6539
  165SAPE  H12X18551   3.453   7.520   3.187  0.2303 -1.4107 -2.2431
  165SAPE  H12Y18552   3.457   7.346   3.230 -0.3389 -0.7590 -0.9955
  165SAPE  C31318553   3.277   7.441   3.311  0.2702  0.5668 -0.1818
  165SAPE  H13X18554   3.226   7.343   3.307 -0.1493  0.8036 -0.6306
  165SAPE  H13Y18555   3.203   7.518   3.281  0.5340  1.1089  0.5185
  165SAPE  C31418556   3.342   7.487   3.446 -0.2043 -0.0998  0.1050
  165SAPE  H14X18557   3.356   7.597   3.440 -1.4921  0.0678 -0.1199
  165SAPE  H14Y18558   3.440   7.440   3.467  1.5278  3.4920  0.3442
  165SAPE  C31518559   3.240   7.469   3.563  0.1037  0.1693 -0.3721
  165SAPE  H15X18560   3.289   7.437   3.658  0.9099  0.9462 -0.5192
  165SAPE  H15Y18561   3.181   7.386   3.518 -0.3254  1.4623 -2.2825
  165SAPE  C31618562   3.145   7.593   3.594  0.1215  0.5205 -0.3175
  165SAPE  H16X18563   3.074   7.619   3.513 -0.4989 -0.1009  0.0243
  165SAPE  H16Y18564   3.207   7.681   3.620  3.1604 -1.8625  0.8307
  165SAPE  C31718565   3.060   7.563   3.720 -1.0934 -0.1014 -0.1424
  165SAPE  H17X18566   3.050   7.657   3.778  0.6865  0.5689 -0.8685
  165SAPE  H17Y18567   3.130   7.493   3.770 -0.9812 -2.2534 -3.1303
  165SAPE  C31818568   2.931   7.490   3.682  0.4074 -0.5539  0.6169
  165SAPE  H18X18569   2.955   7.429   3.593  0.1294 -1.3587  1.0916
  165SAPE  H18Y18570   2.865   7.571   3.642  1.7686 -0.4072 -1.3677
  165SAPE  H18Z18571   2.893   7.438   3.773  1.0631 -0.8639  0.7167
  166SAPE     N18572   5.492   0.968   2.210 -0.0344  0.4336 -0.0637
  166SAPE   HN118573   5.587   1.009   2.213  0.3533 -0.4163 -0.5579
  166SAPE   HN218574   5.486   0.903   2.129  0.7763 -2.0358  1.7766
  166SAPE   HN318575   5.431   1.051   2.200  1.2578  1.5586  1.1962
  166SAPE   C1218576   5.443   0.905   2.335  0.2098  0.0704  0.3461
  166SAPE  H12A18577   5.460   0.987   2.409  1.7539  1.1942 -1.2334
  166SAPE  H12B18578   5.503   0.816   2.362 -0.9256 -1.1794 -1.1890
  166SAPE   C1118579   5.306   0.844   2.323 -0.3361  0.0093 -0.3160
  166SAPE  H11A18580   5.240   0.928   2.296 -1.6236 -0.4907  1.1904
  166SAPE  H11B18581   5.268   0.811   2.422 -1.8163 -3.3568 -1.9070
  166SAPE     P18582   5.209   0.719   2.112  0.1587  0.4728 -0.1460
  166SAPE   O1318583   5.199   0.844   2.038  0.5314 -0.2984 -0.2072
  166SAPE   O1418584   5.266   0.601   2.041 -0.3351  0.2800 -0.0880
  166SAPE   O1218585   5.310   0.737   2.229 -0.2947 -0.7220  0.1763
  166SAPE   O1118586   5.071   0.677   2.175  0.0473  0.2331 -0.1853
  166SAPE    C118587   5.075   0.578   2.290  0.7800  0.3142  0.5351
  166SAPE    HA18588   5.076   0.475   2.249 -0.1288  0.5147  0.0003
  166SAPE    HB18589   5.166   0.591   2.353  2.1037 -3.3967 -0.4782
  166SAPE    C218590   4.945   0.586   2.377 -0.1682 -0.2265  0.6335
  166SAPE    HS18591   4.858   0.567   2.311 -0.0651 -2.5519  1.1381
  166SAPE   O2118592   4.951   0.714   2.457  0.9041 -0.1941  0.7568
  166SAPE   C2118593   4.837   0.787   2.426 -0.7452 -0.1518 -0.5194
  166SAPE   O2218594   4.758   0.758   2.341 -0.0385  0.3572 -0.3110
  166SAPE   C2218595   4.825   0.902   2.528 -0.9904  0.1584 -0.8119
  166SAPE   H2R18596   4.740   0.967   2.497 -0.6202  1.5095  0.9138
  166SAPE   H2S18597   4.798   0.862   2.628 -2.3014 -3.4880 -2.5448
  166SAPE    C318598   4.940   0.464   2.464 -0.5172  0.3983 -0.1548
  166SAPE    HX18599   4.945   0.375   2.399  3.1237 -0.7417  1.5556
  166SAPE    HY18600   4.839   0.463   2.510 -0.0764 -0.9818  0.7958
  166SAPE   O3118601   5.026   0.464   2.576 -0.0587 -0.2403 -0.0191
  166SAPE   C3118602   5.111   0.361   2.581  0.4502  0.3868  0.5015
  166SAPE   O3218603   5.128   0.282   2.489  0.3075  0.4394 -0.6599
  166SAPE   C3218604   5.189   0.376   2.697  0.5835  0.1187 -0.4322
  166SAPE   H2X18605   5.126   0.362   2.787 -1.6949  1.1383 -1.8338
  166SAPE   H2Y18606   5.229   0.480   2.690  1.7598 -0.2137  1.0347
  166SAPE   C2318607   4.946   1.000   2.522  0.9912 -0.1833 -0.3629
  166SAPE   H3R18608   4.939   1.055   2.426 -2.1438  0.9876  0.4594
  166SAPE   H3S18609   5.043   0.949   2.541  0.5644 -0.6711  0.5638
  166SAPE   C2418610   4.932   1.104   2.633  1.1303  0.4139  0.0517
  166SAPE   H4R18611   4.915   1.043   2.724  0.9410  0.5892  0.1345
  166SAPE   H4S18612   4.832   1.145   2.609  0.9067 -1.5339 -2.6144
  166SAPE   C2518613   5.039   1.209   2.643 -0.2054 -0.1747 -0.1599
  166SAPE   H5R18614   5.038   1.281   2.560  3.4486  1.2665  0.9480
  166SAPE   C2618615   5.131   1.209   2.738 -0.6207  0.2389 -0.4457
  166SAPE   H6R18616   5.205   1.290   2.741 -1.3037  0.8729 -0.5572
  166SAPE   C2718617   5.139   1.111   2.852  0.5973 -0.5863  0.2199
  166SAPE   H7R18618   5.063   1.031   2.837  0.5429 -0.3652 -0.7638
  166SAPE   H7S18619   5.114   1.169   2.943 -0.2978  0.7751 -0.8666
  166SAPE   C2818620   5.282   1.053   2.857  1.0381 -0.0133  0.7969
  166SAPE   H8R18621   5.355   1.099   2.789 -1.1564  0.9476 -0.9731
  166SAPE   C2918622   5.316   0.956   2.946 -0.5139  0.3000 -0.5484
  166SAPE   H9R18623   5.420   0.921   2.958 -0.3760  0.9048  0.0865
  166SAPE  C21018624   5.218   0.891   3.045 -0.7280 -0.4204 -0.0366
  166SAPE  H10R18625   5.122   0.946   3.039  0.1067  1.0891  0.3047
  166SAPE  H10S18626   5.247   0.899   3.152  1.0754 -1.1944 -0.4448
  166SAPE  C21118627   5.214   0.743   3.014  0.1279 -0.5684 -0.1268
  166SAPE  H11R18628   5.314   0.699   3.020 -1.5582 -4.5203  0.9747
  166SAPE  C21218629   5.105   0.666   2.983  0.1814 -0.1711  0.9417
  166SAPE  H12R18630   5.110   0.560   2.951 -0.7814  0.9382 -3.1651
  166SAPE  C21318631   4.960   0.722   2.964 -0.2441 -0.3434 -0.0372
  166SAPE  H13R18632   4.932   0.715   2.857  0.4130  0.2334 -0.2554
  166SAPE  H13S18633   4.947   0.826   3.001  1.3137  0.0954 -0.6599
  166SAPE  C21418634   4.859   0.652   3.049  0.0349  0.0281  0.6983
  166SAPE  H14R18635   4.866   0.683   3.154  3.5299 -1.1984  0.8679
  166SAPE  C21518636   4.766   0.562   3.022  0.1352  0.4161  0.8426
  166SAPE  H15R18637   4.728   0.507   3.110  1.8818 -1.0756  0.7161
  166SAPE  C21618638   4.723   0.497   2.894 -0.5499  0.1495 -0.1674
  166SAPE  H16R18639   4.783   0.529   2.806  2.1064 -2.0485  0.8009
  166SAPE  H16S18640   4.617   0.525   2.876 -1.6162 -2.9793  1.0077
  166SAPE  C21718641   4.732   0.346   2.898 -0.1627  0.4643  0.2517
  166SAPE  H17R18642   4.672   0.317   2.809  0.0502 -0.6487  0.4635
  166SAPE  H17S18643   4.691   0.299   2.990  0.8671 -3.3779 -1.1468
  166SAPE  C21818644   4.879   0.295   2.892 -0.1484  0.6197  0.4341
  166SAPE  H18R18645   4.943   0.314   2.980  2.1830  2.0946 -1.5399
  166SAPE  H18S18646   4.930   0.341   2.805  1.8975  1.1226  1.8811
  166SAPE  C21918647   4.892   0.147   2.857 -0.3457 -0.2841  0.2989
  166SAPE  H19R18648   4.858   0.080   2.939  4.1010 -1.9700  0.9341
  166SAPE  H19S18649   5.000   0.122   2.847  0.2601  2.7210 -1.2328
  166SAPE  C22018650   4.820   0.096   2.730 -0.6362 -0.1719 -0.9531
  166SAPE  H20R18651   4.800  -0.013   2.737  0.7752 -0.3498  0.7047
  166SAPE  H20S18652   4.882   0.120   2.642  2.3529 -0.5747  0.9690
  166SAPE  H20T18653   4.725   0.150   2.709 -0.1657  1.5504  1.2286
  166SAPE   C3318654   5.309   0.279   2.696 -0.2084 -0.5386  0.0135
  166SAPE   H3X18655   5.390   0.340   2.651 -0.1715  1.3790  2.5662
  166SAPE   H3Y18656   5.291   0.187   2.637 -1.2930  0.7253 -1.6740
  166SAPE   C3418657   5.352   0.241   2.841  0.3490  0.5619 -0.2069
  166SAPE   H4X18658   5.449   0.187   2.833 -2.1915 -4.4311  0.3569
  166SAPE   H4Y18659   5.277   0.167   2.876 -0.4925  1.1265 -0.7957
  166SAPE   C3518660   5.363   0.362   2.935 -0.1936  0.0731  0.0567
  166SAPE   H5X18661   5.264   0.408   2.951  0.0848  0.0541  2.0302
  166SAPE   H5Y18662   5.426   0.450   2.909 -0.6757  0.5760  0.5979
  166SAPE   C3618663   5.409   0.302   3.068  0.5137  0.2464 -0.0008
  166SAPE   H6X18664   5.512   0.261   3.062 -0.6060 -2.4591 -1.1704
  166SAPE   H6Y18665   5.342   0.215   3.078 -1.6662  1.8697 -0.1290
  166SAPE   C3718666   5.384   0.393   3.189 -0.1752 -0.3585  0.2553
  166SAPE   H7X18667   5.292   0.453   3.175  0.4471  0.3152 -1.1024
  166SAPE   H7Y18668   5.468   0.463   3.207 -1.2685  0.7764  1.0301
  166SAPE   C3818669   5.385   0.307   3.313  0.7794  0.0996  0.0576
  166SAPE   H8X18670   5.476   0.244   3.306 -0.4589 -1.7411  0.0979
  166SAPE   H8Y18671   5.299   0.237   3.307  0.7037  0.0060  1.9818
  166SAPE   C3918672   5.394   0.377   3.445 -0.1214  0.3261  0.5739
  166SAPE   H9X18673   5.293   0.415   3.472  0.9711  2.7849  1.3358
  166SAPE   H9Y18674   5.468   0.460   3.446 -1.7729  1.8243  1.2150
  166SAPE  C31018675   5.423   0.283   3.556 -0.5626 -0.0952 -0.0432
  166SAPE  H10X18676   5.522   0.233   3.561  0.3715  1.6364 -0.8027
  166SAPE  H10Y18677   5.342   0.208   3.557 -0.4538 -0.2590 -1.9986
  166SAPE  C31118678   5.417   0.368   3.684 -0.1859  0.3618  0.1978
  166SAPE  H11X18679   5.338   0.443   3.664  1.8839  1.9040 -2.4708
  166SAPE  H11Y18680   5.510   0.419   3.717 -2.0034  3.8495  0.0754
  166SAPE  C31218681   5.373   0.297   3.814 -0.9382 -0.3782  0.6381
  166SAPE  H12X18682   5.366   0.363   3.903  1.4992 -1.0757  1.3730
  166SAPE  H12Y18683   5.447   0.218   3.838  1.1771  1.4596  0.3065
  166SAPE  C31318684   5.234   0.230   3.801 -0.4149 -0.6504 -0.4335
  166SAPE  H13X18685   5.245   0.162   3.714 -0.1070 -1.4540  0.2334
  166SAPE  H13Y18686   5.162   0.308   3.766  1.3364  0.4616 -1.6665
  166SAPE  C31418687   5.199   0.153   3.925  0.1465  1.0057 -0.4985
  166SAPE  H14X18688   5.198   0.220   4.013  1.8873 -0.4891  0.6839
  166SAPE  H14Y18689   5.257   0.062   3.951 -1.0451  0.5623  0.6695
  166SAPE  C31518690   5.055   0.093   3.919  0.5801 -0.0397  0.1091
  166SAPE  H15X18691   5.048   0.014   3.841  0.8223 -0.1660  0.2152
  166SAPE  H15Y18692   4.983   0.172   3.890 -0.3283 -1.4323 -1.5402
  166SAPE  C31618693   5.008   0.023   4.046 -0.2349 -0.0297 -0.1557
  166SAPE  H16X18694   4.997   0.094   4.131 -0.9190 -0.9996  0.5891
  166SAPE  H16Y18695   5.093  -0.041   4.077  0.6663  0.9847 -0.5382
  166SAPE  C31718696   4.872  -0.060   4.033  0.1301 -0.6959 -0.5385
  166SAPE  H17X18697   4.785   0.006   4.014  0.7742 -0.1377 -1.6308
  166SAPE  H17Y18698   4.848  -0.115   4.126 -1.3718 -0.7307 -0.9346
  166SAPE  C31818699   4.870  -0.168   3.917  0.8715 -0.5305 -0.2938
  166SAPE  H18X18700   4.865  -0.119   3.817  0.7660  2.6862  1.2147
  166SAPE  H18Y18701   4.785  -0.239   3.917 -1.2003  1.7580 -4.8375
  166SAPE  H18Z18702   4.961  -0.230   3.931  1.3606  0.6997  2.2610
  167SAPE     N18703   0.242   4.541   2.253  0.1233 -0.3408 -0.1083
  167SAPE   HN118704   0.139   4.556   2.252 -0.2938 -2.8976 -0.3437
  167SAPE   HN218705   0.276   4.572   2.160 -0.2358 -1.6757 -0.7014
  167SAPE   HN318706   0.254   4.437   2.257 -3.3892 -0.7679  0.9148
  167SAPE   C1218707   0.304   4.587   2.384  0.2272 -0.2175 -0.0059
  167SAPE  H12A18708   0.281   4.511   2.462 -0.0267 -0.4518 -0.3064
  167SAPE  H12B18709   0.260   4.687   2.407 -0.4707 -0.5783  0.2476
  167SAPE   C1118710   0.457   4.604   2.387  0.0474 -0.1936 -0.1714
  167SAPE  H11A18711   0.516   4.510   2.386  1.1628  0.4154  3.0837
  167SAPE  H11B18712   0.480   4.628   2.493  0.3793 -1.0341 -0.0484
  167SAPE     P18713   0.470   4.850   2.289 -0.3268 -0.3759  0.2648
  167SAPE   O1318714   0.572   4.930   2.215  0.7612  0.5326 -0.1091
  167SAPE   O1418715   0.332   4.857   2.237  0.6748 -0.2027 -0.0386
  167SAPE   O1218716   0.512   4.702   2.293 -0.4061 -0.0568 -0.1488
  167SAPE   O1118717   0.470   4.908   2.442 -0.0257  0.0354  0.0506
  167SAPE    C118718   0.586   4.874   2.524 -0.4769 -0.1841  0.2759
  167SAPE    HA18719   0.615   4.768   2.534  0.4525  0.1078  0.7283
  167SAPE    HB18720   0.673   4.919   2.472 -0.1892 -1.7134 -0.5973
  167SAPE    C218721   0.583   4.923   2.673 -0.3360 -0.0674 -0.0089
  167SAPE    HS18722   0.678   4.885   2.716 -0.9318 -1.8220 -0.1943
  167SAPE   O2118723   0.470   4.864   2.739 -0.7727  0.6134 -0.1200
  167SAPE   C2118724   0.483   4.737   2.781  0.4638  0.3628  0.4102
  167SAPE   O2218725   0.584   4.666   2.761  0.0742  0.5474 -0.5551
  167SAPE   C2218726   0.354   4.689   2.849  0.2529  0.2168 -0.0831
  167SAPE   H2R18727   0.285   4.776   2.847  0.2556  0.2100 -0.4317
  167SAPE   H2S18728   0.316   4.618   2.772  1.0360  0.6678 -0.8929
  167SAPE    C318729   0.579   5.075   2.693  0.2237 -0.0355  0.7252
  167SAPE    HX18730   0.504   5.112   2.619  0.7034 -0.6708 -0.0795
  167SAPE    HY18731   0.678   5.112   2.659 -0.0494 -1.3101 -1.5967
  167SAPE   O3118732   0.539   5.120   2.822  0.8003  0.3920  0.4014
  167SAPE   C3118733   0.642   5.136   2.909  0.1399 -0.9520  0.2566
  167SAPE   O3218734   0.758   5.105   2.878 -0.2752  0.0709 -0.6129
  167SAPE   C3218735   0.595   5.194   3.044 -0.9963 -0.0724  0.5977
  167SAPE   H2X18736   0.485   5.178   3.041 -0.8842 -0.7863  0.0842
  167SAPE   H2Y18737   0.624   5.301   3.041 -0.8949 -0.0782  1.2968
  167SAPE   C2318738   0.365   4.625   2.989  0.2144 -0.0878 -0.1088
  167SAPE   H3R18739   0.448   4.554   2.966  0.1738  0.3582 -1.6509
  167SAPE   H3S18740   0.282   4.553   3.010 -0.1741 -0.3012 -2.2732
  167SAPE   C2418741   0.407   4.718   3.106 -0.1938  0.0779  0.6550
  167SAPE   H4R18742   0.397   4.654   3.197 -0.2796  0.2154  0.7429
  167SAPE   H4S18743   0.328   4.796   3.117 -0.1381  0.2117  0.1000
  167SAPE   C2518744   0.540   4.785   3.097  0.8564  0.2528  0.2706
  167SAPE   H5R18745   0.540   4.879   3.040  1.6577  0.8187  1.1964
  167SAPE   C2618746   0.653   4.747   3.149 -0.5512 -1.3128  0.6088
  167SAPE   H6R18747   0.741   4.810   3.127 -1.6462 -0.1148 -0.4460
  167SAPE   C2718748   0.671   4.625   3.239 -0.0133  0.2037  0.3293
  167SAPE   H7R18749   0.639   4.533   3.187 -0.0634  0.0188  0.6890
  167SAPE   H7S18750   0.600   4.618   3.325 -0.3808  0.4898  0.0498
  167SAPE   C2818751   0.815   4.620   3.281 -0.1970  0.0906 -0.6110
  167SAPE   H8R18752   0.883   4.607   3.195  1.5440  1.2797  0.5358
  167SAPE   C2918753   0.858   4.608   3.408  0.3143 -0.2156  0.2893
  167SAPE   H9R18754   0.965   4.621   3.431  0.4837 -0.5039 -0.3211
  167SAPE  C21018755   0.771   4.602   3.533 -0.3844 -0.4289  0.6768
  167SAPE  H10R18756   0.824   4.550   3.616  2.4071  1.2947  0.0244
  167SAPE  H10S18757   0.673   4.561   3.500 -0.0856 -0.3168 -0.3635
  167SAPE  C21118758   0.738   4.745   3.583 -0.3434 -0.4164  0.0970
  167SAPE  H11R18759   0.699   4.817   3.509  0.5309 -1.3445 -1.2873
  167SAPE  C21218760   0.742   4.775   3.715  0.4313 -0.1427 -0.5370
  167SAPE  H12R18761   0.693   4.870   3.741  0.7550 -0.4032  1.1349
  167SAPE  C21318762   0.777   4.679   3.831  0.3344  0.3397 -0.6082
  167SAPE  H13R18763   0.791   4.751   3.914 -1.1778 -0.3963  0.2989
  167SAPE  H13S18764   0.874   4.628   3.812  1.0818  1.2153  0.7831
  167SAPE  C21418765   0.676   4.574   3.859 -0.2914  0.0307 -0.3276
  167SAPE  H14R18766   0.654   4.510   3.772 -2.3135 -1.4720  1.2365
  167SAPE  C21518767   0.640   4.531   3.987 -0.5800 -0.7393  0.4163
  167SAPE  H15R18768   0.556   4.460   3.991 -0.9836 -0.4951 -2.2812
  167SAPE  C21618769   0.689   4.585   4.118 -0.4859 -0.3111  0.2200
  167SAPE  H16R18770   0.618   4.664   4.151  0.8771  1.1394 -0.3162
  167SAPE  H16S18771   0.779   4.644   4.093  0.4670 -1.9542 -0.3154
  167SAPE  C21718772   0.723   4.493   4.244  0.6159  0.8828 -0.3484
  167SAPE  H17R18773   0.629   4.435   4.259  0.3370  0.4001 -3.6580
  167SAPE  H17S18774   0.745   4.555   4.334  1.7743 -1.4517  1.0210
  167SAPE  C21818775   0.837   4.396   4.221 -0.5716  0.5420 -0.5295
  167SAPE  H18R18776   0.939   4.437   4.208 -0.2701 -0.5588 -1.7653
  167SAPE  H18S18777   0.803   4.347   4.127 -1.8641 -1.9681  1.1818
  167SAPE  C21918778   0.854   4.271   4.307  0.5113  0.7879  0.3998
  167SAPE  H19R18779   0.895   4.297   4.406 -0.3583  0.1475  0.9337
  167SAPE  H19S18780   0.928   4.207   4.255  0.5737  2.8271 -2.1379
  167SAPE  C22018781   0.722   4.187   4.312  0.0008  0.0806 -1.0956
  167SAPE  H20R18782   0.735   4.097   4.376 -2.5790 -2.0457 -3.4701
  167SAPE  H20S18783   0.689   4.151   4.213 -0.9743 -0.2577 -0.6512
  167SAPE  H20T18784   0.651   4.254   4.364  0.5813 -0.4784  0.4726
  167SAPE   C3318785   0.665   5.123   3.170  0.3253  0.3606  0.2057
  167SAPE   H3X18786   0.776   5.117   3.159  0.1733  0.1746 -1.3627
  167SAPE   H3Y18787   0.620   5.024   3.188 -0.3322  0.4836 -0.7264
  167SAPE   C3418788   0.650   5.212   3.296  0.1992  0.4562 -0.0959
  167SAPE   H4X18789   0.542   5.218   3.318  0.0122  2.8363 -1.5778
  167SAPE   H4Y18790   0.689   5.312   3.269  0.8579 -0.6086 -3.2806
  167SAPE   C3518791   0.718   5.130   3.407 -0.4738 -0.8971  0.0205
  167SAPE   H5X18792   0.826   5.118   3.384  0.0527 -1.4354  2.5900
  167SAPE   H5Y18793   0.663   5.035   3.422 -1.1924 -0.4395  0.3367
  167SAPE   C3618794   0.722   5.212   3.535  0.0026  1.0459 -1.2199
  167SAPE   H6X18795   0.628   5.209   3.593  0.5916 -1.7815 -0.2862
  167SAPE   H6Y18796   0.725   5.321   3.514 -1.5060  1.5029  0.8137
  167SAPE   C3718797   0.841   5.172   3.631 -0.2171 -0.1203 -0.0866
  167SAPE   H7X18798   0.940   5.179   3.580  0.5754  0.6484  1.5131
  167SAPE   H7Y18799   0.826   5.066   3.658  1.2306  0.2622  2.3380
  167SAPE   C3818800   0.847   5.268   3.753  0.1182 -0.0676  0.1212
  167SAPE   H8X18801   0.746   5.257   3.798  0.2509  0.5543  0.5764
  167SAPE   H8Y18802   0.867   5.370   3.715  0.8436 -0.6522 -1.1353
  167SAPE   C3918803   0.946   5.235   3.863  0.4496  0.3677  0.1534
  167SAPE   H9X18804   0.948   5.132   3.905  2.5634  1.0413  1.8028
  167SAPE   H9Y18805   0.921   5.298   3.952 -0.0364  3.4891 -2.0968
  167SAPE  C31018806   1.094   5.273   3.838 -0.0027 -0.1526  0.0696
  167SAPE  H10X18807   1.093   5.381   3.811  0.6561 -0.0816  0.3317
  167SAPE  H10Y18808   1.136   5.221   3.749 -1.7326 -1.0030 -0.2659
  167SAPE  C31118809   1.190   5.255   3.960 -0.7691  0.8057 -0.0334
  167SAPE  H11X18810   1.283   5.311   3.938 -1.4619  1.7729 -0.5346
  167SAPE  H11Y18811   1.217   5.148   3.976 -2.4629  0.3362 -0.1659
  167SAPE  C31218812   1.132   5.315   4.088  0.3078 -0.6993  0.2439
  167SAPE  H12X18813   1.047   5.254   4.122 -0.5399  1.6499  2.5000
  167SAPE  H12Y18814   1.091   5.416   4.065  0.6122 -0.0672  2.3713
  167SAPE  C31318815   1.233   5.319   4.212 -0.3771 -0.1558 -0.3848
  167SAPE  H13X18816   1.179   5.374   4.292 -1.2037  0.0214 -1.0647
  167SAPE  H13Y18817   1.319   5.381   4.177 -0.1090 -0.8273 -0.9437
  167SAPE  C31418818   1.276   5.182   4.258 -0.3036  0.4474  0.0939
  167SAPE  H14X18819   1.341   5.148   4.175 -0.4583  0.0403  0.1394
  167SAPE  H14Y18820   1.197   5.103   4.254  0.6128 -0.4918  0.2892
  167SAPE  C31518821   1.352   5.178   4.390  0.2682  0.7022 -0.2067
  167SAPE  H15X18822   1.438   5.248   4.384  0.5239  0.2242 -2.3115
  167SAPE  H15Y18823   1.393   5.080   4.422 -0.9524  1.3031  3.5113
  167SAPE  C31618824   1.252   5.210   4.500  0.0349 -0.3911 -0.4078
  167SAPE  H16X18825   1.158   5.155   4.480 -0.8162  0.7015  0.5589
  167SAPE  H16Y18826   1.244   5.321   4.498 -1.0503 -0.4653 -0.4165
  167SAPE  C31718827   1.310   5.173   4.638  0.0822 -0.6800  0.5630
  167SAPE  H17X18828   1.399   5.238   4.652 -0.2325  0.7509 -3.4339
  167SAPE  H17Y18829   1.335   5.065   4.636 -0.8227 -0.8796 -0.9018
  167SAPE  C31818830   1.213   5.203   4.744  0.2334 -0.4416  0.3174
  167SAPE  H18X18831   1.125   5.136   4.746  0.1923 -0.3703  1.3445
  167SAPE  H18Y18832   1.189   5.311   4.748 -0.4614 -0.6416  2.0483
  167SAPE  H18Z18833   1.265   5.185   4.841 -1.6488 -1.7664  1.1172
  168SAPE     N18834   2.115   0.645   1.843  0.0649  0.5747  0.1587
  168SAPE   HN118835   2.126   0.728   1.781 -1.0835  0.6901  0.1003
  168SAPE   HN218836   2.187   0.640   1.917 -2.1841 -2.0937  2.2525
  168SAPE   HN318837   2.120   0.563   1.780 -2.1425  0.4487  0.1231
  168SAPE   C1218838   1.987   0.642   1.925  0.0413 -0.0206 -0.0128
  168SAPE  H12A18839   1.911   0.606   1.853  0.6567  1.1799 -1.2645
  168SAPE  H12B18840   1.977   0.745   1.966  0.4020  0.0490 -0.0983
  168SAPE   C1118841   2.003   0.531   2.041 -0.0273 -0.1490  0.3051
  168SAPE  H11A18842   2.028   0.434   1.994  1.1727  0.2744  0.0670
  168SAPE  H11B18843   1.901   0.527   2.085 -1.2445 -1.8609 -2.5841
  168SAPE     P18844   2.127   0.460   2.242 -0.1872  0.0913 -0.3657
  168SAPE   O1318845   2.118   0.327   2.171 -0.1116 -0.6303  0.2731
  168SAPE   O1418846   2.256   0.482   2.310 -0.2013  0.4659  0.1365
  168SAPE   O1218847   2.102   0.572   2.132  0.1301  0.1388 -0.1370
  168SAPE   O1118848   2.002   0.454   2.336  0.3569 -0.2507  0.0897
  168SAPE    C118849   1.941   0.561   2.403 -0.1765 -0.1910 -0.7805
  168SAPE    HA18850   1.955   0.659   2.354 -0.4258 -0.3223 -1.1100
  168SAPE    HB18851   1.832   0.555   2.383 -0.4601 -1.6225  1.0281
  168SAPE    C218852   1.965   0.555   2.560  0.2047  0.1875 -1.2545
  168SAPE    HS18853   1.888   0.615   2.612 -0.0157 -1.1844  0.0158
  168SAPE   O2118854   2.098   0.603   2.596  0.1952 -0.0771  0.4224
  168SAPE   C2118855   2.111   0.737   2.582  0.2097  0.3516  0.0055
  168SAPE   O2218856   2.023   0.812   2.550  0.1848 -0.4861 -0.0632
  168SAPE   C2218857   2.257   0.775   2.606 -0.0594 -0.6346  0.7515
  168SAPE   H2R18858   2.318   0.731   2.525 -0.0926  0.8746 -0.1177
  168SAPE   H2S18859   2.271   0.883   2.585  0.3659 -0.8782 -0.2215
  168SAPE    C318860   1.954   0.410   2.624  0.1399 -0.0811 -0.0099
  168SAPE    HX18861   2.025   0.350   2.563 -1.0029 -0.2853 -1.1679
  168SAPE    HY18862   1.846   0.383   2.612 -0.2282  1.2564  0.2816
  168SAPE   O3118863   1.986   0.398   2.764 -0.3215  0.0998  0.6144
  168SAPE   C3118864   1.931   0.303   2.840 -0.0459  0.1836 -0.7294
  168SAPE   O3218865   1.844   0.224   2.804 -0.3266 -0.0210  0.1233
  168SAPE   C3218866   2.000   0.313   2.976 -0.0721 -0.6143  0.6663
  168SAPE   H2X18867   1.952   0.398   3.028  0.4728  0.7328 -0.9862
  168SAPE   H2Y18868   2.110   0.323   2.962  0.1178 -3.1876  0.0980
  168SAPE   C2318869   2.310   0.756   2.754 -0.2109 -0.2938  0.0855
  168SAPE   H3R18870   2.417   0.776   2.732 -0.9792  0.6042 -3.0188
  168SAPE   H3S18871   2.303   0.651   2.790  1.8042 -1.2202 -2.0830
  168SAPE   C2418872   2.236   0.842   2.865 -0.2373  0.2339  0.0629
  168SAPE   H4R18873   2.216   0.943   2.825 -0.1543  0.7958  1.3945
  168SAPE   H4S18874   2.312   0.860   2.944 -0.8717  3.0783  0.0803
  168SAPE   C2518875   2.114   0.771   2.910 -0.8183 -0.1134 -0.3213
  168SAPE   H5R18876   2.022   0.801   2.856  0.0964  0.3832 -1.6225
  168SAPE   C2618877   2.113   0.704   3.025 -0.2902  0.0449  0.1290
  168SAPE   H6R18878   2.023   0.647   3.051  0.5202 -0.6128  1.5430
  168SAPE   C2718879   2.234   0.695   3.123  0.7820 -0.8338  0.3572
  168SAPE   H7R18880   2.248   0.795   3.170  0.1158 -0.7072  0.2951
  168SAPE   H7S18881   2.321   0.672   3.058  0.0997 -2.5104  0.0263
  168SAPE   C2818882   2.217   0.597   3.236 -0.0413  0.3969 -0.1258
  168SAPE   H8R18883   2.192   0.493   3.212  1.4010  0.0351 -0.1130
  168SAPE   C2918884   2.216   0.626   3.360 -0.0337  0.1742  0.2345
  168SAPE   H9R18885   2.180   0.542   3.421 -1.6043 -0.6627 -1.7535
  168SAPE  C21018886   2.219   0.757   3.435 -0.1384 -0.3025  0.0578
  168SAPE  H10R18887   2.135   0.769   3.506  0.4146  2.9122  0.2362
  168SAPE  H10S18888   2.207   0.840   3.362 -0.8833 -1.4045 -1.0948
  168SAPE  C21118889   2.354   0.760   3.501 -1.3355 -0.2075  0.2104
  168SAPE  H11R18890   2.434   0.748   3.427 -3.1919 -2.7686 -1.4720
  168SAPE  C21218891   2.383   0.794   3.626  0.0791 -0.1929  0.0055
  168SAPE  H12R18892   2.490   0.789   3.651  0.7059 -0.5721 -2.6670
  168SAPE  C21318893   2.287   0.832   3.735 -0.3083  0.2158  0.0141
  168SAPE  H13R18894   2.323   0.776   3.824 -1.8136 -1.8682 -0.6565
  168SAPE  H13S18895   2.187   0.785   3.723 -0.6226  1.4389 -2.5250
  168SAPE  C21418896   2.290   0.982   3.765  0.0454 -0.4341  0.2874
  168SAPE  H14R18897   2.211   1.036   3.713  0.2628 -0.5306 -0.1436
  168SAPE  C21518898   2.375   1.048   3.832 -0.5373 -0.3187 -0.8181
  168SAPE  H15R18899   2.363   1.155   3.852 -0.1777 -0.0893 -1.8393
  168SAPE  C21618900   2.496   0.998   3.912 -0.1389  0.2475  0.0400
  168SAPE  H16R18901   2.589   1.024   3.857  0.6240 -1.6802  0.3863
  168SAPE  H16S18902   2.493   0.887   3.914  1.3904  0.0473 -3.6892
  168SAPE  C21718903   2.492   1.045   4.058 -0.0886  0.0785  0.2415
  168SAPE  H17R18904   2.490   1.155   4.071 -1.5030  0.1188 -0.1901
  168SAPE  H17S18905   2.585   1.001   4.100 -0.6527 -0.6141  0.7835
  168SAPE  C21818906   2.373   0.977   4.132  0.3409 -0.0245  0.1402
  168SAPE  H18R18907   2.361   0.869   4.108 -0.0788  0.0569 -0.0168
  168SAPE  H18S18908   2.281   1.033   4.105  0.3922 -1.5036 -3.3545
  168SAPE  C21918909   2.403   0.987   4.282 -0.4546 -0.0818  0.1612
  168SAPE  H19R18910   2.408   1.093   4.313 -1.3467  0.2360 -0.7570
  168SAPE  H19S18911   2.500   0.938   4.307 -1.2166 -2.1530 -0.7579
  168SAPE  C22018912   2.289   0.918   4.361  0.5362 -0.3970  0.5418
  168SAPE  H20R18913   2.280   0.966   4.461  0.8643  0.9694 -0.0653
  168SAPE  H20S18914   2.288   0.807   4.360 -0.7582 -0.3894 -0.6157
  168SAPE  H20T18915   2.199   0.953   4.306  0.7994  0.8506  0.8748
  168SAPE   C3318916   1.971   0.189   3.066 -0.5505 -0.1382  0.2262
  168SAPE   H3X18917   2.014   0.090   3.043 -1.6240 -1.2171  2.6641
  168SAPE   H3Y18918   1.862   0.169   3.072  0.1256 -3.0625  4.2045
  168SAPE   C3418919   1.999   0.239   3.208  0.2097 -0.2333 -0.0994
  168SAPE   H4X18920   1.928   0.322   3.228  1.7616  0.6129  2.1135
  168SAPE   H4Y18921   2.105   0.270   3.219 -0.0421  0.2502  1.0084
  168SAPE   C3518922   1.951   0.137   3.309 -0.2422 -0.2831  0.1701
  168SAPE   H5X18923   2.020   0.052   3.293 -0.2318 -0.1555 -0.4639
  168SAPE   H5Y18924   1.844   0.113   3.292  0.0893 -2.3799  0.9734
  168SAPE   C3618925   1.973   0.177   3.451  0.0706 -0.1283 -0.2727
  168SAPE   H6X18926   1.915   0.272   3.458 -2.1620 -1.4345 -0.5719
  168SAPE   H6Y18927   2.081   0.186   3.475 -0.3633 -0.5365  1.9176
  168SAPE   C3718928   1.902   0.085   3.550 -0.4816 -0.7207 -0.8202
  168SAPE   H7X18929   1.963  -0.007   3.561 -1.5148 -1.4111 -0.8275
  168SAPE   H7Y18930   1.803   0.063   3.506 -0.7671  1.8839 -1.5983
  168SAPE   C3818931   1.866   0.145   3.686  0.3164  0.1128  0.7993
  168SAPE   H8X18932   1.805   0.067   3.737 -1.3358 -0.0166 -1.2942
  168SAPE   H8Y18933   1.785   0.217   3.665  0.8162  0.2335 -0.7380
  168SAPE   C3918934   1.979   0.208   3.763  0.2155 -0.5921 -0.0474
  168SAPE   H9X18935   2.035   0.289   3.711  1.0392 -2.9649 -2.9829
  168SAPE   H9Y18936   2.049   0.125   3.788  0.1297 -0.3042  1.1680
  168SAPE  C31018937   1.926   0.264   3.896  0.1230  0.5589  0.1676
  168SAPE  H10X18938   1.879   0.178   3.947 -1.8491  1.0658 -0.7290
  168SAPE  H10Y18939   1.845   0.337   3.875  0.0583 -0.4104 -3.3130
  168SAPE  C31118940   2.034   0.326   3.982  0.6500 -0.9218  0.4812
  168SAPE  H11X18941   2.070   0.417   3.928  0.6059 -1.3782 -0.3199
  168SAPE  H11Y18942   2.120   0.256   3.995  1.4494  0.2431  1.6224
  168SAPE  C31218943   1.982   0.381   4.110 -0.7696 -1.0446  0.0251
  168SAPE  H12X18944   1.878   0.416   4.088  0.1519  0.1351 -2.6797
  168SAPE  H12Y18945   2.043   0.466   4.147  0.3117  0.0221 -4.0217
  168SAPE  C31318946   1.975   0.281   4.231 -0.0957 -0.2794 -0.4276
  168SAPE  H13X18947   2.075   0.243   4.261 -0.3509 -1.3544 -0.8978
  168SAPE  H13Y18948   1.917   0.193   4.198 -0.7793 -0.7873  1.9997
  168SAPE  C31418949   1.905   0.347   4.344 -0.5986 -0.3675  0.2239
  168SAPE  H14X18950   1.889   0.452   4.313 -2.4383 -1.5762 -3.1912
  168SAPE  H14Y18951   1.965   0.349   4.438 -0.3915 -1.0745  0.1123
  168SAPE  C31518952   1.771   0.282   4.370  0.0807 -0.0315 -0.1180
  168SAPE  H15X18953   1.717   0.284   4.273 -1.4656 -0.7338  0.7081
  168SAPE  H15Y18954   1.711   0.349   4.435 -0.4607 -0.3088 -0.3298
  168SAPE  C31618955   1.784   0.135   4.422  0.4201 -0.3273  0.8185
  168SAPE  H16X18956   1.833   0.068   4.348  1.2979  0.8186  0.3419
  168SAPE  H16Y18957   1.679   0.098   4.426 -0.0016  0.9346  1.5669
  168SAPE  C31718958   1.859   0.114   4.550  0.3353 -0.4549 -0.6269
  168SAPE  H17X18959   1.946   0.183   4.552 -1.1360  1.4971 -1.5556
  168SAPE  H17Y18960   1.906   0.014   4.554  0.8116 -0.2457 -0.9487
  168SAPE  C31818961   1.780   0.129   4.674 -0.4904  0.3633 -0.2348
  168SAPE  H18X18962   1.686   0.069   4.675  0.0387 -0.4708  0.5813
  168SAPE  H18Y18963   1.747   0.227   4.714 -0.4437  0.7475 -1.1242
  168SAPE  H18Z18964   1.837   0.076   4.753  2.6464 -0.6666 -3.0405
  169SAPE     N18965   0.086   4.925   2.164 -0.4474  0.1957 -0.2739
  169SAPE   HN118966   0.188   4.903   2.173 -0.0616  2.0294  0.1123
  169SAPE   HN218967   0.042   4.842   2.120 -2.3027  0.4290  1.0835
  169SAPE   HN318968   0.083   5.017   2.116  1.6987  1.3273  1.6781
  169SAPE   C1218969   0.014   4.937   2.298 -0.7270 -0.4910 -0.5165
  169SAPE  H12A18970   0.019   5.044   2.326  2.9599 -0.0332 -2.5946
  169SAPE  H12B18971   0.072   4.868   2.362 -1.4989 -2.1952 -1.6127
  169SAPE   C1118972  -0.134   4.884   2.291 -0.2564 -0.3532  0.1781
  169SAPE  H11A18973  -0.189   4.955   2.226  0.9630 -1.1094 -1.7363
  169SAPE  H11B18974  -0.171   4.883   2.395 -0.8920  2.2656  0.0044
  169SAPE     P18975  -0.139   4.631   2.326  0.1358 -0.0428 -0.0515
  169SAPE   O1318976  -0.276   4.574   2.308  0.3104 -0.7796  0.3161
  169SAPE   O1418977  -0.024   4.546   2.281 -0.3827 -0.2662  1.0710
  169SAPE   O1218978  -0.141   4.756   2.239 -0.5114  0.4531 -0.5723
  169SAPE   O1118979  -0.124   4.671   2.477  0.1638  0.1608 -0.4549
  169SAPE    C118980  -0.227   4.653   2.572  0.7460 -0.2315 -0.5512
  169SAPE    HA18981  -0.326   4.613   2.538 -0.6499  1.2154  1.7072
  169SAPE    HB18982  -0.200   4.568   2.638 -2.6154 -1.9391 -1.2660
  169SAPE    C218983  -0.249   4.766   2.663  0.3931 -0.7843 -0.0722
  169SAPE    HS18984  -0.243   4.856   2.599  1.1524 -0.3180  0.6348
  169SAPE   O2118985  -0.139   4.760   2.760 -0.1253 -0.2676  0.3087
  169SAPE   C2118986  -0.127   4.876   2.821 -0.9275 -0.8055  0.2457
  169SAPE   O2218987  -0.183   4.978   2.789 -0.1649 -0.2116 -0.4599
  169SAPE   C2218988  -0.014   4.860   2.929 -0.6340 -0.2747 -0.0175
  169SAPE   H2R18989  -0.027   4.762   2.979  0.4885 -1.1475 -1.3698
  169SAPE   H2S18990   0.070   4.854   2.856 -0.0065 -0.7809  0.7476
  169SAPE    C318991  -0.393   4.761   2.738 -0.3347  0.8868  0.2691
  169SAPE    HX18992  -0.458   4.738   2.651  0.9837 -1.8413 -0.0300
  169SAPE    HY18993  -0.422   4.860   2.780 -0.3941  1.4180 -0.9802
  169SAPE   O3118994  -0.393   4.650   2.830  0.6118 -0.1989  0.1757
  169SAPE   C3118995  -0.355   4.685   2.954  0.0424  0.4019  0.3787
  169SAPE   O3218996  -0.318   4.789   3.002  0.7036 -0.0463 -0.6176
  169SAPE   C3218997  -0.381   4.556   3.042 -0.5321 -0.1474 -0.3667
  169SAPE   H2X18998  -0.382   4.463   2.981 -1.7975  2.5206 -4.6232
  169SAPE   H2Y18999  -0.482   4.569   3.085 -0.6406 -1.2744 -0.2709
  169SAPE   C2319000   0.010   4.989   3.019 -0.2560 -0.1675 -0.8414
  169SAPE   H3R19001   0.006   5.077   2.952  0.1781  0.4287 -0.0904
  169SAPE   H3S19002   0.114   4.990   3.057 -0.2889  1.6645 -0.7701
  169SAPE   C2419003  -0.080   4.996   3.148 -0.2132 -0.1121 -0.2467
  169SAPE   H4R19004  -0.183   5.016   3.113  0.4206  0.8786 -1.5669
  169SAPE   H4S19005  -0.061   5.089   3.205 -2.1380  0.3086 -0.2616
  169SAPE   C2519006  -0.058   4.879   3.247  0.4649 -0.5570 -0.6186
  169SAPE   H5R19007  -0.119   4.788   3.233  0.0255 -0.1044 -1.6683
  169SAPE   C2619008   0.022   4.892   3.352 -0.3646 -0.2363 -0.0271
  169SAPE   H6R19009   0.031   4.803   3.415  0.9532 -0.3976 -0.4257
  169SAPE   C2719010   0.109   5.013   3.386  0.1520 -0.5554 -0.1752
  169SAPE   H7R19011   0.105   5.041   3.494 -0.5284 -0.3050 -0.2640
  169SAPE   H7S19012   0.080   5.105   3.332  1.1778  0.5195  1.0620
  169SAPE   C2819013   0.257   4.984   3.355  0.5028  0.4849  0.1075
  169SAPE   H8R19014   0.292   4.996   3.251 -0.7047 -0.8778 -0.4838
  169SAPE   C2919015   0.353   4.934   3.432  0.9659 -1.0491  0.5042
  169SAPE   H9R19016   0.449   4.912   3.384  0.3149 -1.1603 -0.7745
  169SAPE  C21019017   0.340   4.898   3.576  0.6112  0.1788  0.4878
  169SAPE  H10R19018   0.242   4.932   3.616  0.6211  0.6547  0.1197
  169SAPE  H10S19019   0.413   4.962   3.629 -1.0145  2.3486  0.1750
  169SAPE  C21119020   0.366   4.757   3.618  0.0068  0.4456  0.0018
  169SAPE  H11R19021   0.419   4.691   3.548  0.0793  0.5253 -0.0189
  169SAPE  C21219022   0.335   4.701   3.737  0.5039 -0.6743  0.3403
  169SAPE  H12R19023   0.373   4.602   3.766 -0.5517 -1.2570 -0.2356
  169SAPE  C21319024   0.256   4.762   3.849 -0.2390  0.3514  1.2212
  169SAPE  H13R19025   0.159   4.709   3.865  0.0934 -0.0902  1.8453
  169SAPE  H13S19026   0.246   4.869   3.821  2.1843  0.1873 -0.4573
  169SAPE  C21419027   0.335   4.751   3.982 -0.1588  0.2176 -0.5574
  169SAPE  H14R19028   0.443   4.763   3.971  0.4973 -2.2919  2.5836
  169SAPE  C21519029   0.284   4.725   4.105  0.0516  0.8868 -0.1695
  169SAPE  H15R19030   0.351   4.729   4.192  1.0720 -0.4776 -0.8758
  169SAPE  C21619031   0.138   4.717   4.139  0.0907  0.2370 -0.3819
  169SAPE  H16R19032   0.112   4.705   4.246  0.5371  1.5648 -0.1130
  169SAPE  H16S19033   0.091   4.637   4.077 -1.3285  0.4818  0.3722
  169SAPE  C21719034   0.052   4.833   4.095  0.2622  0.1514 -0.3023
  169SAPE  H17R19035   0.081   4.872   3.995 -0.1532 -2.7983 -1.6195
  169SAPE  H17S19036   0.057   4.916   4.168  1.0364  0.5966 -0.8513
  169SAPE  C21819037  -0.097   4.791   4.073  0.8789 -0.2667  0.2929
  169SAPE  H18R19038  -0.148   4.747   4.161 -2.0341 -1.2454 -1.8051
  169SAPE  H18S19039  -0.094   4.703   4.005 -0.9999  1.8394 -2.6313
  169SAPE  C21919040  -0.189   4.896   4.007  0.6637  0.2862 -0.6330
  169SAPE  H19R19041  -0.139   4.940   3.918 -0.9666 -0.6082 -2.0181
  169SAPE  H19S19042  -0.212   4.972   4.084  0.2195 -0.1693 -0.3200
  169SAPE  C22019043  -0.328   4.843   3.963  0.1933 -0.1128 -0.1196
  169SAPE  H20R19044  -0.330   4.756   3.893 -0.7354 -0.5452  0.4348
  169SAPE  H20S19045  -0.374   4.925   3.903  0.1282 -1.0907 -1.4398
  169SAPE  H20T19046  -0.398   4.813   4.044  0.7581 -2.3732 -0.4281
  169SAPE   C3319047  -0.274   4.542   3.159  0.3284 -0.1926 -0.2666
  169SAPE   H3X19048  -0.297   4.462   3.232 -0.5397 -1.7096 -2.1747
  169SAPE   H3Y19049  -0.263   4.638   3.215  0.9999 -0.8570  0.7470
  169SAPE   C3419050  -0.134   4.510   3.107  0.2507  0.6543  0.4780
  169SAPE   H4X19051  -0.095   4.595   3.047  0.0011 -0.2613 -0.9848
  169SAPE   H4Y19052  -0.135   4.415   3.050  0.7694  0.5647  0.6079
  169SAPE   C3519053  -0.052   4.489   3.231 -0.6308  0.1709 -0.4949
  169SAPE   H5X19054  -0.088   4.399   3.286 -1.4112  0.3213 -0.7483
  169SAPE   H5Y19055  -0.057   4.576   3.300  0.4353  0.4074 -0.7183
  169SAPE   C3619056   0.096   4.478   3.206  0.8569  0.3337 -0.8166
  169SAPE   H6X19057   0.139   4.569   3.160  0.7074 -0.8794 -3.4775
  169SAPE   H6Y19058   0.113   4.397   3.132 -0.3030  0.0728 -0.8128
  169SAPE   C3719059   0.186   4.475   3.332  0.4001 -0.2743 -0.4412
  169SAPE   H7X19060   0.192   4.569   3.390 -0.2002 -1.8552  2.2802
  169SAPE   H7Y19061   0.288   4.453   3.293  0.3417 -1.6635  0.1330
  169SAPE   C3819062   0.155   4.356   3.423  0.0047  0.1376  0.2007
  169SAPE   H8X19063   0.129   4.266   3.364  0.9073  0.9730 -1.4901
  169SAPE   H8Y19064   0.060   4.375   3.478 -0.3308 -0.2657 -0.2316
  169SAPE   C3919065   0.265   4.337   3.528 -0.0643 -0.1984 -0.0287
  169SAPE   H9X19066   0.273   4.429   3.588  0.8334  0.1498 -0.6658
  169SAPE   H9Y19067   0.364   4.314   3.482 -0.4404 -0.6152 -0.6433
  169SAPE  C31019068   0.231   4.221   3.622 -0.6561 -0.0573 -0.3504
  169SAPE  H10X19069   0.126   4.222   3.660 -1.0892 -0.9153 -1.4905
  169SAPE  H10Y19070   0.308   4.222   3.702 -1.0446  1.4610  0.0332
  169SAPE  C31119071   0.228   4.082   3.558  0.2703 -0.1823 -0.2732
  169SAPE  H11X19072   0.299   4.085   3.472  0.7663  0.6882  0.1694
  169SAPE  H11Y19073   0.128   4.060   3.514  0.1905  0.3985 -0.3819
  169SAPE  C31219074   0.267   3.972   3.659  0.4685 -0.1535 -0.1227
  169SAPE  H12X19075   0.228   3.874   3.623 -0.0611  1.1671 -3.2562
  169SAPE  H12Y19076   0.213   3.976   3.756  0.5696  0.9143 -0.1079
  169SAPE  C31319077   0.409   3.956   3.673  0.5094  0.3079 -1.2558
  169SAPE  H13X19078   0.466   4.042   3.716  1.2104 -1.2453  0.9585
  169SAPE  H13Y19079   0.449   3.953   3.569  1.9722 -0.1849 -0.7009
  169SAPE  C31419080   0.451   3.818   3.729 -0.5198  0.0904 -0.0104
  169SAPE  H14X19081   0.380   3.777   3.804  0.8740  0.4172  1.5131
  169SAPE  H14Y19082   0.547   3.830   3.784 -0.3037  1.1829 -0.6237
  169SAPE  C31519083   0.460   3.709   3.618  0.3119  0.0084 -0.3407
  169SAPE  H15X19084   0.547   3.734   3.554 -0.5067  2.9064 -0.4206
  169SAPE  H15Y19085   0.374   3.718   3.549  0.0333 -2.3112 -0.3277
  169SAPE  C31619086   0.471   3.566   3.676  1.1840  0.1016 -0.1427
  169SAPE  H16X19087   0.546   3.564   3.757  2.3143  2.4781 -1.0893
  169SAPE  H16Y19088   0.508   3.510   3.587  0.7271 -0.6249  0.1204
  169SAPE  C31719089   0.336   3.496   3.729  0.1154 -0.5332  0.1515
  169SAPE  H17X19090   0.249   3.563   3.710  2.6282  2.2057 -2.1540
  169SAPE  H17Y19091   0.346   3.488   3.839 -1.4372 -5.0685  0.0826
  169SAPE  C31819092   0.308   3.355   3.680 -0.4043 -0.1737  0.5799
  169SAPE  H18X19093   0.215   3.332   3.735  1.2303  1.9033  4.4076
  169SAPE  H18Y19094   0.387   3.280   3.704  0.5104  0.2492 -1.0263
  169SAPE  H18Z19095   0.297   3.354   3.569  0.9475  0.6052  0.4260
  170SAPE     N19096   5.443   0.405   2.088 -0.3804  0.3120 -0.1168
  170SAPE   HN119097   5.540   0.440   2.097 -0.7238  2.3171 -3.5190
  170SAPE   HN219098   5.420   0.330   2.020  0.1005 -1.3744  1.5307
  170SAPE   HN319099   5.379   0.484   2.067  0.9198  1.6223  0.7288
  170SAPE   C1219100   5.409   0.337   2.212  0.3048  0.0576 -0.9259
  170SAPE  H12A19101   5.300   0.344   2.229  0.1477  1.2627 -2.3761
  170SAPE  H12B19102   5.456   0.394   2.294  0.9411 -0.0431 -1.2110
  170SAPE   C1119103   5.449   0.194   2.227 -0.8414 -0.3913 -0.1309
  170SAPE  H11A19104   5.406   0.134   2.144 -1.8353  0.2929 -0.1190
  170SAPE  H11B19105   5.405   0.152   2.321  2.2355  0.4381  1.7606
  170SAPE     P19106   5.671   0.046   2.218 -0.2469 -0.6582  0.0827
  170SAPE   O1319107   5.615  -0.065   2.297  0.3298  0.0528 -0.1113
  170SAPE   O1419108   5.665   0.035   2.065 -0.4256  0.0720  0.4472
  170SAPE   O1219109   5.590   0.181   2.247  0.4244 -0.1349 -0.8154
  170SAPE   O1119110   5.823   0.064   2.264  0.1054  0.3293  0.0153
  170SAPE    C119111   5.877   0.192   2.312 -0.1392 -0.3330 -0.4003
  170SAPE    HA19112   5.832   0.278   2.259  0.1467 -0.8370 -1.4701
  170SAPE    HB19113   5.859   0.204   2.421 -2.0391 -1.4847 -0.5639
  170SAPE    C219114   6.026   0.208   2.298 -0.4057  0.5640 -0.6473
  170SAPE    HS19115   6.027   0.202   2.187 -0.4475  0.3078 -0.6352
  170SAPE   O2119116   6.096   0.099   2.363 -0.2092 -0.0752 -0.1716
  170SAPE   C2119117   6.219   0.086   2.344 -0.2583  0.2934 -0.4659
  170SAPE   O2219118   6.292   0.159   2.279  0.0839  0.1128  0.0828
  170SAPE   C2219119   6.265  -0.047   2.401  0.7322  0.1794 -0.3132
  170SAPE   H2R19120   6.212  -0.129   2.349 -0.2770  1.1254 -0.7954
  170SAPE   H2S19121   6.373  -0.058   2.377  1.3781  1.3044  1.9011
  170SAPE    C319122   6.065   0.349   2.352 -0.7042  0.8616  0.5388
  170SAPE    HX19123   6.001   0.425   2.302 -1.1317 -0.0676 -0.3257
  170SAPE    HY19124   6.172   0.363   2.326 -0.4699 -2.5895 -0.6498
  170SAPE   O3119125   6.041   0.348   2.490 -0.2487 -0.3829 -0.5406
  170SAPE   C3119126   6.146   0.343   2.571 -1.1135 -0.0313 -0.2368
  170SAPE   O3219127   6.262   0.365   2.534 -0.4095 -0.0499 -0.2373
  170SAPE   C3219128   6.092   0.303   2.704 -0.7853  0.7243  0.3241
  170SAPE   H2X19129   6.179   0.299   2.772 -1.3115  3.5500  1.2377
  170SAPE   H2Y19130   6.046   0.203   2.690  2.3046 -0.3045 -3.4701
  170SAPE   C2319131   6.242  -0.045   2.553  0.3074  0.6085 -0.6951
  170SAPE   H3R19132   6.229  -0.149   2.589  0.7707  0.2044 -1.6619
  170SAPE   H3S19133   6.148   0.009   2.574 -1.4946 -2.0373 -1.7155
  170SAPE   C2419134   6.362   0.022   2.628 -0.3809  0.0031 -0.8373
  170SAPE   H4R19135   6.342   0.035   2.737 -2.3168 -2.9717 -0.7807
  170SAPE   H4S19136   6.362   0.121   2.578  3.2325 -0.3209 -1.6267
  170SAPE   C2519137   6.495  -0.044   2.629 -0.3262  0.1409 -0.2443
  170SAPE   H5R19138   6.540  -0.053   2.529 -0.2936 -0.6471 -0.1647
  170SAPE   C2619139   6.565  -0.096   2.728  0.0343 -0.0022 -0.6589
  170SAPE   H6R19140   6.663  -0.136   2.700  0.0040 -0.7804  0.3010
  170SAPE   C2719141   6.531  -0.100   2.876  0.7618  0.1541 -0.2399
  170SAPE   H7R19142   6.470  -0.008   2.887 -0.7099 -0.5262 -2.3119
  170SAPE   H7S19143   6.622  -0.093   2.939  2.0745 -2.3835 -1.7791
  170SAPE   C2819144   6.460  -0.224   2.932 -0.2243  0.0349  0.6136
  170SAPE   H8R19145   6.506  -0.322   2.914 -1.2152 -0.3462  0.1750
  170SAPE   C2919146   6.348  -0.213   3.005  0.6670  0.8558  0.7940
  170SAPE   H9R19147   6.307  -0.302   3.055  1.4427  0.4537  0.7308
  170SAPE  C21019148   6.268  -0.102   3.059  0.4471  0.6649  0.4099
  170SAPE  H10R19149   6.178  -0.146   3.107  0.3727  0.3367 -0.0229
  170SAPE  H10S19150   6.221  -0.045   2.975  0.6589 -3.7300 -2.8628
  170SAPE  C21119151   6.356  -0.017   3.150  1.2508  0.0868  0.4057
  170SAPE  H11R19152   6.464  -0.033   3.134  1.2301  2.0531 -2.1308
  170SAPE  C21219153   6.320   0.076   3.241  0.8961  0.5232 -0.1525
  170SAPE  H12R19154   6.395   0.115   3.311  0.9117  0.6470 -0.2397
  170SAPE  C21319155   6.176   0.104   3.274  0.3926 -0.0354  0.1899
  170SAPE  H13R19156   6.151   0.012   3.332  0.3544 -1.0410 -1.4016
  170SAPE  H13S19157   6.103   0.114   3.191  1.3799  2.2281 -0.4274
  170SAPE  C21419158   6.157   0.220   3.363 -0.1561  0.3033 -0.1669
  170SAPE  H14R19159   6.169   0.318   3.315  0.4935  1.2230  1.7941
  170SAPE  C21519160   6.152   0.233   3.496 -0.3511  0.0815 -0.0046
  170SAPE  H15R19161   6.149   0.336   3.534 -2.5738 -0.7070  1.9968
  170SAPE  C21619162   6.153   0.122   3.598 -0.3871  0.4027  0.4383
  170SAPE  H16R19163   6.164   0.021   3.553 -0.9306  0.9031 -0.8491
  170SAPE  H16S19164   6.049   0.135   3.634 -1.0131 -1.5950 -0.5749
  170SAPE  C21719165   6.252   0.145   3.714 -0.1184 -0.4522  0.7142
  170SAPE  H17R19166   6.236   0.247   3.754  2.0491  0.5050 -0.7416
  170SAPE  H17S19167   6.359   0.151   3.686 -0.9902  1.1901 -2.4457
  170SAPE  C21819168   6.256   0.046   3.829 -0.0040 -0.2171  1.3250
  170SAPE  H18R19169   6.359   0.013   3.857  0.0713 -1.6380 -0.5231
  170SAPE  H18S19170   6.210  -0.053   3.811 -1.4259  0.8919 -1.3968
  170SAPE  C21919171   6.198   0.105   3.959 -0.0616 -0.1558  0.0003
  170SAPE  H19R19172   6.098   0.151   3.944 -1.1840 -1.8452  2.0857
  170SAPE  H19S19173   6.268   0.180   3.999  0.0001 -0.2205  0.0150
  170SAPE  C22019174   6.190  -0.004   4.060 -0.4362  0.2170 -0.1667
  170SAPE  H20R19175   6.115  -0.082   4.033 -0.9294 -0.1151  2.0983
  170SAPE  H20S19176   6.161   0.046   4.154  1.4895  0.5258  0.2960
  170SAPE  H20T19177   6.292  -0.048   4.060 -0.6280 -0.2838 -2.2845
  170SAPE   C3319178   5.987   0.401   2.754  0.6120 -0.3631 -0.2444
  170SAPE   H3X19179   5.894   0.405   2.692  0.8069 -1.7376 -0.6511
  170SAPE   H3Y19180   6.041   0.498   2.755 -0.1931  0.1353 -1.8945
  170SAPE   C3419181   5.935   0.367   2.899 -0.8579  0.4777 -0.3336
  170SAPE   H4X19182   6.019   0.376   2.971 -1.4482 -1.4324  0.6245
  170SAPE   H4Y19183   5.901   0.262   2.895  0.5642  0.0484 -1.8445
  170SAPE   C3519184   5.823   0.471   2.926  0.1921 -0.1714  0.0613
  170SAPE   H5X19185   5.745   0.455   2.848 -0.2841  2.4794 -0.0483
  170SAPE   H5Y19186   5.864   0.575   2.923  0.5993 -0.3281  0.1471
  170SAPE   C3619187   5.754   0.450   3.055 -0.0200 -0.3888 -0.3923
  170SAPE   H6X19188   5.725   0.343   3.054 -2.4221  0.1862  1.5869
  170SAPE   H6Y19189   5.662   0.510   3.074 -0.0766 -0.5951  0.0003
  170SAPE   C3719190   5.843   0.465   3.181  0.0213  0.0266  0.5822
  170SAPE   H7X19191   5.874   0.570   3.199  2.3595 -0.8412  1.8043
  170SAPE   H7Y19192   5.931   0.398   3.173  0.8621  1.3314 -1.8643
  170SAPE   C3819193   5.764   0.416   3.301 -0.4375  0.3330 -0.0625
  170SAPE   H8X19194   5.736   0.309   3.290  2.0208 -0.0912 -2.9480
  170SAPE   H8Y19195   5.662   0.461   3.303 -0.0009  1.2942  1.1135
  170SAPE   C3919196   5.836   0.450   3.433 -0.0137 -0.0121  0.1574
  170SAPE   H9X19197   5.842   0.559   3.453 -1.3684 -0.2072  1.7128
  170SAPE   H9Y19198   5.942   0.416   3.437  0.3415  1.0464  0.1023
  170SAPE  C31019199   5.757   0.381   3.555 -0.0837 -0.4077  0.4778
  170SAPE  H10X19200   5.724   0.280   3.521  0.2523 -0.3192 -0.1218
  170SAPE  H10Y19201   5.666   0.444   3.562  1.0426  1.2988 -0.0187
  170SAPE  C31119202   5.836   0.372   3.687 -0.0256 -0.1365  0.3284
  170SAPE  H11X19203   5.944   0.379   3.663 -0.6033 -1.4900 -3.0094
  170SAPE  H11Y19204   5.827   0.265   3.714  0.9824 -0.3454 -0.1414
  170SAPE  C31219205   5.786   0.459   3.804 -0.3196 -0.1037  0.1167
  170SAPE  H12X19206   5.862   0.452   3.886 -0.4352  2.1955  0.4408
  170SAPE  H12Y19207   5.696   0.408   3.846  0.5604 -2.2529 -0.5036
  170SAPE  C31319208   5.742   0.600   3.765  0.1084  0.0334 -0.4804
  170SAPE  H13X19209   5.661   0.585   3.691 -0.1571 -0.1693 -0.1508
  170SAPE  H13Y19210   5.822   0.657   3.714  0.2813 -0.4286 -0.7243
  170SAPE  C31419211   5.704   0.687   3.881  0.0716  0.0232  0.7550
  170SAPE  H14X19212   5.777   0.681   3.965  1.7894 -1.5323 -0.8270
  170SAPE  H14Y19213   5.610   0.645   3.924  1.0453 -3.2072 -0.1665
  170SAPE  C31519214   5.681   0.829   3.848  0.7766 -0.7382  0.1053
  170SAPE  H15X19215   5.764   0.863   3.782  0.2596 -1.4029 -0.8976
  170SAPE  H15Y19216   5.686   0.899   3.935  0.8015  1.8714 -1.9094
  170SAPE  C31619217   5.547   0.854   3.770  0.2792  0.0845  0.2849
  170SAPE  H16X19218   5.474   0.797   3.832  1.7925 -1.6178  0.5474
  170SAPE  H16Y19219   5.549   0.792   3.678  0.2539  1.4365 -0.6354
  170SAPE  C31719220   5.508   0.998   3.731 -0.4546  0.2047  0.2793
  170SAPE  H17X19221   5.581   1.043   3.661  1.0226 -2.8018 -0.1962
  170SAPE  H17Y19222   5.521   1.047   3.830  1.0828 -2.4535  1.4430
  170SAPE  C31819223   5.364   1.001   3.664  0.9315 -0.7284  0.2607
  170SAPE  H18X19224   5.307   1.093   3.688  3.5748  0.9142  0.3843
  170SAPE  H18Y19225   5.302   0.912   3.686  1.7792 -0.9463  1.8161
  170SAPE  H18Z19226   5.377   1.000   3.553 -1.5920 -2.8206 -0.0638
  171SAPE     N19227   0.741   5.355   2.043  0.6406 -0.1708  0.2120
  171SAPE   HN119228   0.724   5.278   2.110  1.0238 -0.9028 -0.5267
  171SAPE   HN219229   0.714   5.314   1.952  2.0785 -1.1457  0.2029
  171SAPE   HN319230   0.839   5.388   2.034 -0.0124  1.9029  0.3818
  171SAPE   C1219231   0.639   5.464   2.084  0.2620  0.1121  0.2234
  171SAPE  H12A19232   0.651   5.560   2.029  1.7700 -0.9734 -1.3922
  171SAPE  H12B19233   0.651   5.492   2.191  1.8733  1.5859 -0.3145
  171SAPE   C1119234   0.497   5.411   2.062  0.7104  0.1399 -0.2070
  171SAPE  H11A19235   0.483   5.379   1.956  0.8704 -0.5358 -0.0253
  171SAPE  H11B19236   0.437   5.504   2.064  0.6156  0.0911 -0.6947
  171SAPE     P19237   0.316   5.326   2.242 -0.1041 -0.0210  0.5253
  171SAPE   O1319238   0.218   5.390   2.157  0.5224 -0.0922 -0.2995
  171SAPE   O1419239   0.277   5.192   2.283 -0.2980 -0.0631 -0.9486
  171SAPE   O1219240   0.461   5.316   2.165 -0.0808 -0.7958  0.2338
  171SAPE   O1119241   0.353   5.421   2.362 -0.3149 -0.2107 -0.0947
  171SAPE    C119242   0.443   5.375   2.459 -0.5710  0.0647  0.5358
  171SAPE    HA19243   0.397   5.334   2.551 -1.8666 -1.5777 -0.7910
  171SAPE    HB19244   0.524   5.302   2.435 -1.3635 -1.2039  1.6574
  171SAPE    C219245   0.517   5.501   2.506 -0.6923  0.2756  0.2508
  171SAPE    HS19246   0.580   5.536   2.421  0.2545  0.2219  0.9240
  171SAPE   O2119247   0.603   5.455   2.606  0.2264 -0.3165  0.6634
  171SAPE   C2119248   0.715   5.524   2.628  0.8822 -0.1262  0.7573
  171SAPE   O2219249   0.734   5.633   2.580  0.4547  0.4094  0.0737
  171SAPE   C2219250   0.806   5.433   2.708 -0.2188 -0.0688 -0.1486
  171SAPE   H2R19251   0.733   5.387   2.779 -0.8167  0.5942 -0.3292
  171SAPE   H2S19252   0.868   5.359   2.655 -0.7349 -0.6094 -0.0009
  171SAPE    C319253   0.417   5.612   2.562 -0.1701 -0.6668 -0.1367
  171SAPE    HX19254   0.350   5.642   2.479 -1.8211 -5.3994 -0.6835
  171SAPE    HY19255   0.461   5.706   2.603 -2.5954  0.5841 -0.3395
  171SAPE   O3119256   0.331   5.550   2.661 -0.1056 -0.4691 -0.1590
  171SAPE   C3119257   0.387   5.535   2.783  0.7090  0.9208 -0.6537
  171SAPE   O3219258   0.495   5.573   2.812 -0.5872 -0.8974  0.1107
  171SAPE   C3219259   0.291   5.475   2.889 -0.7653  0.1042 -0.1044
  171SAPE   H2X19260   0.284   5.366   2.867  2.7562 -0.0339 -0.8109
  171SAPE   H2Y19261   0.187   5.511   2.874 -0.6093  1.3771  1.7858
  171SAPE   C2319262   0.900   5.519   2.795 -0.2741  0.0142  0.5103
  171SAPE   H3R19263   0.829   5.570   2.864 -0.2744  2.1256 -0.9995
  171SAPE   H3S19264   0.956   5.594   2.735 -0.2791  0.9962  1.7025
  171SAPE   C2419265   0.990   5.424   2.872  0.1031 -0.6382  0.2319
  171SAPE   H4R19266   1.059   5.350   2.826 -1.0058 -1.8882  0.5327
  171SAPE   H4S19267   0.917   5.364   2.931 -0.7869 -0.4170 -0.6225
  171SAPE   C2519268   1.060   5.507   2.972  0.0604  0.5073 -0.0931
  171SAPE   H5R19269   1.138   5.577   2.938 -0.3829  0.9287 -0.2314
  171SAPE   C2619270   1.040   5.508   3.104  0.7812  0.4762 -0.1794
  171SAPE   H6R19271   1.101   5.578   3.164  0.1614  1.3632 -0.5725
  171SAPE   C2719272   0.930   5.430   3.179  0.2132 -0.7183  0.3092
  171SAPE   H7R19273   0.930   5.325   3.142 -0.0417 -0.0562 -1.6282
  171SAPE   H7S19274   0.829   5.466   3.149  0.3623  0.0304  0.7060
  171SAPE   C2819275   0.941   5.430   3.331  0.5778  0.4424  0.5965
  171SAPE   H8R19276   0.946   5.326   3.367 -1.1144 -0.4043 -1.4807
  171SAPE   C2919277   0.931   5.534   3.415 -0.6525 -0.1285 -0.0258
  171SAPE   H9R19278   0.916   5.517   3.523 -0.4418 -0.1128  0.0063
  171SAPE  C21019279   0.909   5.680   3.370 -0.4134 -0.5743 -0.0863
  171SAPE  H10R19280   0.826   5.723   3.430  0.3733  1.1311 -0.1934
  171SAPE  H10S19281   0.894   5.687   3.260  0.5157  1.4313 -0.0994
  171SAPE  C21119282   1.036   5.747   3.416  0.1456  0.1295 -0.1351
  171SAPE  H11R19283   1.116   5.736   3.341 -0.8596  1.1981 -1.3751
  171SAPE  C21219284   1.048   5.826   3.528 -0.3683 -0.4862  0.9434
  171SAPE  H12R19285   1.147   5.869   3.551 -0.3378  0.3374 -0.6890
  171SAPE  C21319286   0.949   5.853   3.640  0.3155  0.2443  0.6337
  171SAPE  H13R19287   1.006   5.835   3.733 -1.2175  1.7102  1.8776
  171SAPE  H13S19288   0.865   5.781   3.629  1.3219 -1.0052  0.9625
  171SAPE  C21419289   0.896   5.991   3.611  0.1404 -0.6909 -0.6947
  171SAPE  H14R19290   0.868   6.007   3.505 -2.4092  0.7997  0.1587
  171SAPE  C21519291   0.881   6.087   3.703 -0.2452 -0.0263  0.1944
  171SAPE  H15R19292   0.834   6.178   3.662 -0.3747 -0.4770 -0.6728
  171SAPE  C21619293   0.913   6.079   3.850  0.7049 -0.1958  0.0278
  171SAPE  H16R19294   0.986   6.160   3.871  0.3073  0.1562  0.0751
  171SAPE  H16S19295   0.969   5.984   3.864  2.1390  0.6055 -0.2112
  171SAPE  C21719296   0.788   6.076   3.944 -0.0934 -0.8663  0.2839
  171SAPE  H17R19297   0.712   6.006   3.903 -0.0375 -0.5593 -0.3412
  171SAPE  H17S19298   0.757   6.183   3.948 -0.3925 -0.9921  1.4807
  171SAPE  C21819299   0.816   6.022   4.084  0.2530 -0.3571 -0.5626
  171SAPE  H18R19300   0.891   6.089   4.130  1.9101 -2.0089 -0.8289
  171SAPE  H18S19301   0.850   5.917   4.076 -1.7241 -0.9177 -2.0354
  171SAPE  C21919302   0.693   6.003   4.169 -0.2388 -0.3043  0.1155
  171SAPE  H19R19303   0.629   5.935   4.110 -1.9843  1.5466 -0.1710
  171SAPE  H19S19304   0.640   6.100   4.181  0.1820 -0.2764  1.9846
  171SAPE  C22019305   0.711   5.954   4.308  0.3160 -0.6310  0.0650
  171SAPE  H20R19306   0.610   5.934   4.349 -0.5802  1.7123 -0.9262
  171SAPE  H20S19307   0.762   6.032   4.368 -0.5347  1.7116 -2.2132
  171SAPE  H20T19308   0.775   5.864   4.321  1.0751  0.0565  1.2642
  171SAPE   C3319309   0.347   5.501   3.028 -0.0600  0.0152  0.6859
  171SAPE   H3X19310   0.318   5.603   3.062 -2.0850 -1.3738  3.3143
  171SAPE   H3Y19311   0.457   5.486   3.033  0.3246  1.4505 -2.3499
  171SAPE   C3419312   0.287   5.404   3.133  0.1122 -0.0860  0.3015
  171SAPE   H4X19313   0.339   5.306   3.138 -0.1986 -0.3695 -1.5341
  171SAPE   H4Y19314   0.182   5.395   3.096  0.0238  1.2586  0.2156
  171SAPE   C3519315   0.291   5.467   3.270 -0.4044 -0.3179 -0.2171
  171SAPE   H5X19316   0.237   5.564   3.273  0.0267 -0.0852  0.0890
  171SAPE   H5Y19317   0.393   5.501   3.298  0.2688 -0.4638 -2.4145
  171SAPE   C3619318   0.234   5.367   3.370 -0.0149 -1.2053  0.0430
  171SAPE   H6X19319   0.287   5.273   3.345  0.1205 -1.0174 -0.3931
  171SAPE   H6Y19320   0.128   5.341   3.352 -1.1784  1.4511  2.5312
  171SAPE   C3719321   0.259   5.427   3.509  1.2421  0.1117 -1.0765
  171SAPE   H7X19322   0.236   5.536   3.508 -1.5405 -0.4027  1.5251
  171SAPE   H7Y19323   0.363   5.412   3.545  0.9261 -3.2741 -1.4772
  171SAPE   C3819324   0.185   5.343   3.613  1.3178  0.4496 -1.2060
  171SAPE   H8X19325   0.161   5.251   3.556  0.5262  1.8126 -3.1165
  171SAPE   H8Y19326   0.086   5.387   3.640  2.6915  2.4399  0.7349
  171SAPE   C3919327   0.274   5.306   3.735 -0.2624 -0.6083  0.3886
  171SAPE   H9X19328   0.307   5.398   3.788  2.0226 -1.3155  0.2472
  171SAPE   H9Y19329   0.366   5.258   3.696  0.5168  1.3995 -0.3274
  171SAPE  C31019330   0.209   5.208   3.836 -0.2274  0.3722 -0.2775
  171SAPE  H10X19331   0.184   5.110   3.791  2.1527 -1.3505  2.0086
  171SAPE  H10Y19332   0.117   5.262   3.867  0.8411  2.2770 -0.3582
  171SAPE  C31119333   0.295   5.188   3.962 -0.7803  0.6694 -0.7171
  171SAPE  H11X19334   0.237   5.141   4.044 -1.5799  0.7228 -1.2478
  171SAPE  H11Y19335   0.325   5.290   3.994 -0.4835  0.5017 -0.4453
  171SAPE  C31219336   0.421   5.115   3.924 -0.1670  0.1701 -0.4552
  171SAPE  H12X19337   0.481   5.169   3.848 -3.0089  3.2589 -0.6048
  171SAPE  H12Y19338   0.384   5.015   3.893  0.4492  0.0276 -0.7435
  171SAPE  C31319339   0.505   5.092   4.048 -0.4307  0.1215 -0.6243
  171SAPE  H13X19340   0.445   5.049   4.131  0.5373 -0.0601 -0.0107
  171SAPE  H13Y19341   0.532   5.188   4.097  0.6305 -2.1247  3.4554
  171SAPE  C31419342   0.631   5.028   4.008  0.0293 -0.0373  0.4700
  171SAPE  H14X19343   0.692   5.085   3.934  0.4799  1.5824  2.0784
  171SAPE  H14Y19344   0.606   4.929   3.962  0.8053 -0.2042  0.3964
  171SAPE  C31519345   0.733   4.998   4.115 -0.4655  0.6256 -0.1199
  171SAPE  H15X19346   0.819   4.948   4.064  0.4929  1.3828  0.7234
  171SAPE  H15Y19347   0.690   4.936   4.197 -0.7893 -0.9868 -1.4742
  171SAPE  C31619348   0.788   5.121   4.193  0.3460  0.3025 -0.0360
  171SAPE  H16X19349   0.699   5.172   4.235  0.1059  0.4624 -0.7372
  171SAPE  H16Y19350   0.848   5.186   4.126  0.9007 -1.7386 -1.5964
  171SAPE  C31719351   0.891   5.078   4.305 -0.2063 -0.5679  0.4386
  171SAPE  H17X19352   0.934   5.173   4.344 -1.3632 -0.0500  0.4808
  171SAPE  H17Y19353   0.982   5.023   4.272 -0.6044 -0.4877 -0.8390
  171SAPE  C31819354   0.828   4.998   4.413  0.9089 -0.6654  0.2677
  171SAPE  H18X19355   0.745   5.056   4.459  1.7279  0.7919 -0.0569
  171SAPE  H18Y19356   0.902   4.984   4.495 -0.5504 -2.1334  1.3579
  171SAPE  H18Z19357   0.802   4.894   4.384 -0.4160  0.3190 -2.2387
  172SAPE     N19358   7.078   6.095   2.524  0.8068  0.7511  0.4301
  172SAPE   HN119359   7.167   6.117   2.475  1.5065 -2.4375  0.1652
  172SAPE   HN219360   7.107   6.045   2.610 -2.7744 -0.2975  1.1021
  172SAPE   HN319361   7.018   6.034   2.464 -0.8951  1.7506  1.0544
  172SAPE   C1219362   6.995   6.219   2.549  0.3856  0.6032 -0.0196
  172SAPE  H12A19363   7.005   6.246   2.656  1.7766  0.4211 -0.1051
  172SAPE  H12B19364   6.891   6.183   2.531  0.9603 -3.3129  3.7210
  172SAPE   C1119365   7.033   6.326   2.453  0.0595  0.2008  0.5906
  172SAPE  H11A19366   7.144   6.336   2.459  0.0561  0.3374  0.4217
  172SAPE  H11B19367   6.982   6.417   2.491  0.0166 -0.4677  2.1660
  172SAPE     P19368   7.077   6.354   2.194 -0.3988  0.1772  0.0279
  172SAPE   O1319369   7.206   6.278   2.195 -0.2342  0.3307 -0.2953
  172SAPE   O1419370   6.994   6.348   2.070 -0.4990  0.2471 -0.3628
  172SAPE   O1219371   6.989   6.308   2.317  0.3839  0.2488  0.3423
  172SAPE   O1119372   7.107   6.500   2.230 -0.0697  0.3247  0.5432
  172SAPE    C119373   7.009   6.603   2.259  0.5557  0.5066  0.9355
  172SAPE    HA19374   6.974   6.645   2.163  1.4237  1.0627  0.8604
  172SAPE    HB19375   6.925   6.562   2.319  0.7876 -1.2180  0.1175
  172SAPE    C219376   7.065   6.721   2.338  0.3950  0.0675  0.1026
  172SAPE    HS19377   7.148   6.756   2.273  0.6217 -3.9408 -1.9105
  172SAPE   O2119378   7.114   6.669   2.462 -0.7459 -0.0948  0.0811
  172SAPE   C2119379   7.214   6.742   2.515 -0.6929 -0.2254 -0.3410
  172SAPE   O2219380   7.261   6.845   2.464 -0.4210 -0.5766  0.3386
  172SAPE   C2219381   7.262   6.670   2.631 -0.7431  0.5663 -0.6731
  172SAPE   H2R19382   7.260   6.749   2.709  2.2676  0.8461 -0.8381
  172SAPE   H2S19383   7.195   6.586   2.663 -2.2979  1.5380 -1.3355
  172SAPE    C319384   6.961   6.836   2.362  0.8172 -0.7375  0.6281
  172SAPE    HX19385   6.900   6.851   2.270  0.7242 -0.1126  0.7853
  172SAPE    HY19386   7.019   6.930   2.376  1.6600 -0.9280 -1.3786
  172SAPE   O3119387   6.876   6.801   2.472 -0.4831 -0.4465  0.4763
  172SAPE   C3119388   6.768   6.881   2.492  0.5508 -0.6350 -0.7564
  172SAPE   O3219389   6.716   6.961   2.420 -0.1731  0.8492 -0.1639
  172SAPE   C3219390   6.714   6.852   2.634 -0.2556  0.7731  0.2596
  172SAPE   H2X19391   6.611   6.887   2.656 -0.0048  0.4601  2.0023
  172SAPE   H2Y19392   6.783   6.910   2.699  0.2770  0.9719 -0.4746
  172SAPE   C2319393   7.416   6.623   2.615 -0.5244 -0.2861  0.4986
  172SAPE   H3R19394   7.484   6.707   2.589 -0.9905 -0.2940 -0.8178
  172SAPE   H3S19395   7.429   6.559   2.525  0.0461  1.8687 -0.9934
  172SAPE   C2419396   7.478   6.551   2.746 -0.0610 -0.8483  0.6729
  172SAPE   H4R19397   7.449   6.610   2.835  0.3854 -0.8505  0.8194
  172SAPE   H4S19398   7.587   6.562   2.733 -0.0430 -1.6426  0.0755
  172SAPE   C2519399   7.435   6.408   2.758 -0.1947 -0.1385 -0.3846
  172SAPE   H5R19400   7.472   6.329   2.691  0.9101 -0.6487  0.7999
  172SAPE   C2619401   7.358   6.364   2.866  0.7986 -0.7811 -0.4115
  172SAPE   H6R19402   7.338   6.258   2.885  4.2292 -1.4489 -0.1411
  172SAPE   C2719403   7.298   6.444   2.980  0.1846 -0.3657  0.7892
  172SAPE   H7R19404   7.315   6.553   2.965  0.3156 -0.7913 -2.2945
  172SAPE   H7S19405   7.351   6.417   3.074  1.5464  0.1703  0.1875
  172SAPE   C2819406   7.150   6.426   2.999  0.0659 -0.3985  0.0866
  172SAPE   H8R19407   7.091   6.371   2.924 -0.2442  0.5746 -0.3834
  172SAPE   C2919408   7.076   6.499   3.088  0.3582 -0.8385  0.9052
  172SAPE   H9R19409   6.972   6.467   3.103 -0.1229 -0.4326 -1.3950
  172SAPE  C21019410   7.132   6.604   3.180  0.4737  0.3279  0.7494
  172SAPE  H10R19411   7.230   6.643   3.147 -0.3524  0.4658 -1.6824
  172SAPE  H10S19412   7.159   6.554   3.275  0.2377  1.3259  1.3461
  172SAPE  C21119413   7.027   6.715   3.182  0.6344  0.4032 -0.0647
  172SAPE  H11R19414   7.004   6.760   3.084 -0.8662  1.5928  0.8273
  172SAPE  C21219415   6.955   6.750   3.289  0.3393  0.7384 -0.0257
  172SAPE  H12R19416   6.881   6.831   3.284 -0.9046 -0.3053  0.9869
  172SAPE  C21319417   6.953   6.692   3.429 -0.3613 -0.5200  0.0711
  172SAPE  H13R19418   6.936   6.582   3.426 -1.6649 -0.3030 -1.7046
  172SAPE  H13S19419   6.860   6.735   3.471  0.4316  0.4762  0.8494
  172SAPE  C21419420   7.076   6.725   3.509 -0.2195  0.2502 -0.0493
  172SAPE  H14R19421   7.168   6.729   3.448  0.8608  3.4378  1.6784
  172SAPE  C21519422   7.084   6.751   3.637  0.3793  0.6009 -0.5910
  172SAPE  H15R19423   7.182   6.765   3.686  1.4576 -1.8754 -1.9518
  172SAPE  C21619424   6.967   6.753   3.733 -0.7974  0.7825  0.1415
  172SAPE  H16R19425   6.989   6.691   3.822 -0.2417  3.0342  1.6004
  172SAPE  H16S19426   6.882   6.698   3.687  0.8548 -0.6709 -1.2660
  172SAPE  C21719427   6.922   6.891   3.780 -0.1571  0.8663  0.1646
  172SAPE  H17R19428   6.914   6.962   3.694 -1.1669 -0.9855 -1.3068
  172SAPE  H17S19429   7.007   6.922   3.845  0.9616 -1.1108 -0.3031
  172SAPE  C21819430   6.805   6.898   3.868 -0.0146 -0.5490 -0.0386
  172SAPE  H18R19431   6.801   6.818   3.945 -2.5546 -0.2971  0.1438
  172SAPE  H18S19432   6.730   6.875   3.789 -2.3169  1.3302  1.5241
  172SAPE  C21919433   6.770   7.038   3.928 -0.7964  0.1212  1.2769
  172SAPE  H19R19434   6.717   7.090   3.846  1.3038 -2.4620 -1.8050
  172SAPE  H19S19435   6.862   7.098   3.949 -0.9644  1.0391 -0.5460
  172SAPE  C22019436   6.691   7.022   4.058  0.4796 -0.1934 -0.4404
  172SAPE  H20R19437   6.590   6.986   4.031 -0.9365  2.9990  0.3322
  172SAPE  H20S19438   6.678   7.127   4.093 -1.4074 -0.5871  0.1129
  172SAPE  H20T19439   6.745   6.959   4.132 -1.3793 -0.5157  0.6748
  172SAPE   C3319440   6.720   6.700   2.677  1.1754  0.5232 -0.7653
  172SAPE   H3X19441   6.827   6.675   2.690  0.6530 -1.3771 -0.0024
  172SAPE   H3Y19442   6.687   6.619   2.609  0.1579  0.1093  0.2079
  172SAPE   C3419443   6.644   6.681   2.809  0.7814 -0.2076 -0.1690
  172SAPE   H4X19444   6.536   6.699   2.787  0.9423  1.8925  0.7148
  172SAPE   H4Y19445   6.680   6.759   2.878 -0.1449  0.0189  0.0694
  172SAPE   C3519446   6.646   6.540   2.868  0.2055  0.0847  0.8020
  172SAPE   H5X19447   6.753   6.542   2.898  0.1026  2.6461  1.1277
  172SAPE   H5Y19448   6.633   6.470   2.783  0.9884 -0.7198  1.3473
  172SAPE   C3619449   6.544   6.519   2.974  0.1629  0.5254 -0.1992
  172SAPE   H6X19450   6.449   6.482   2.931  0.3822  0.3990 -0.5760
  172SAPE   H6Y19451   6.519   6.612   3.029  2.4922  2.1634 -1.8290
  172SAPE   C3719452   6.581   6.407   3.072  0.5335 -0.1756 -0.3892
  172SAPE   H7X19453   6.679   6.438   3.114  0.3692  1.2943 -1.0498
  172SAPE   H7Y19454   6.590   6.310   3.017 -1.2965 -0.3826 -0.3455
  172SAPE   C3819455   6.485   6.383   3.192 -0.5170 -0.1279 -0.3032
  172SAPE   H8X19456   6.532   6.300   3.249 -2.4461 -0.9906  0.0897
  172SAPE   H8Y19457   6.388   6.346   3.150 -0.9938 -0.3909  1.0221
  172SAPE   C3919458   6.448   6.487   3.296  0.0383  1.0600  0.9237
  172SAPE   H9X19459   6.419   6.436   3.390  0.3144  3.4464  2.3436
  172SAPE   H9Y19460   6.370   6.553   3.253 -1.3792  0.4442  2.5291
  172SAPE  C31019461   6.567   6.582   3.330  0.7146 -0.7884  0.3903
  172SAPE  H10X19462   6.547   6.665   3.259  1.3629 -1.5697 -0.7125
  172SAPE  H10Y19463   6.668   6.538   3.316  1.0635  0.4902 -1.1562
  172SAPE  C31119464   6.569   6.645   3.477 -0.8392  0.6466  0.6696
  172SAPE  H11X19465   6.642   6.729   3.477 -0.0201  0.0661 -3.9952
  172SAPE  H11Y19466   6.620   6.577   3.549 -3.0479 -1.0974  0.6475
  172SAPE  C31219467   6.431   6.692   3.524  0.1700  0.5297 -0.5241
  172SAPE  H12X19468   6.359   6.609   3.535  0.2390  0.6343  0.6931
  172SAPE  H12Y19469   6.403   6.759   3.440 -1.2216 -0.0501 -0.5303
  172SAPE  C31319470   6.425   6.768   3.658 -0.2561 -0.5213 -0.1109
  172SAPE  H13X19471   6.325   6.814   3.675  0.0743 -0.0915  0.6872
  172SAPE  H13Y19472   6.498   6.851   3.659  1.8888 -2.3482 -0.9222
  172SAPE  C31419473   6.462   6.682   3.785 -0.2165 -0.1453 -0.2970
  172SAPE  H14X19474   6.505   6.753   3.859  2.6274 -0.9186 -1.1335
  172SAPE  H14Y19475   6.541   6.610   3.755 -0.5543 -1.2941  1.5224
  172SAPE  C31519476   6.346   6.603   3.844  0.1060 -0.2517  0.0377
  172SAPE  H15X19477   6.394   6.529   3.911 -0.0528  0.2893  0.7501
  172SAPE  H15Y19478   6.290   6.541   3.771  0.3863 -1.0783  0.5197
  172SAPE  C31619479   6.244   6.683   3.917  0.3703  0.0381 -0.2456
  172SAPE  H16X19480   6.181   6.741   3.846  1.1894  0.5897 -0.5368
  172SAPE  H16Y19481   6.300   6.752   3.984  1.5457 -0.2554 -0.9142
  172SAPE  C31719482   6.154   6.600   4.010  0.3794  0.0952  0.0119
  172SAPE  H17X19483   6.224   6.540   4.071 -0.2853 -0.4417  0.2580
  172SAPE  H17Y19484   6.095   6.527   3.951  2.2896 -0.5843 -1.1093
  172SAPE  C31819485   6.057   6.689   4.092  0.7158 -0.8450 -0.5840
  172SAPE  H18X19486   5.983   6.637   4.157  0.4093  1.8525  1.3040
  172SAPE  H18Y19487   5.992   6.753   4.027 -0.2161 -1.9493 -0.7521
  172SAPE  H18Z19488   6.111   6.761   4.157  0.0211  0.0773 -1.0095
  173SLPC     N19489   5.495   2.927   6.209  0.5571  0.1853  0.1966
  173SLPC   C1319490   5.593   2.846   6.136  0.0915 -0.0706  0.4850
  173SLPC  H13A19491   5.689   2.895   6.146  0.9504 -1.2672 -1.3724
  173SLPC  H13B19492   5.602   2.749   6.182 -1.3223 -0.8118 -0.7387
  173SLPC  H13C19493   5.572   2.832   6.031  2.7580  1.0215 -0.2531
  173SLPC   C1419494   5.546   2.958   6.347  0.2769 -0.2335  0.3960
  173SLPC  H14A19495   5.466   2.986   6.414  0.4770  0.0115  0.5329
  173SLPC  H14B19496   5.573   2.863   6.392 -2.7836  0.1931  3.3016
  173SLPC  H14C19497   5.631   3.023   6.333  0.2240 -0.3106 -0.3149
  173SLPC   C1519498   5.373   2.846   6.215  0.2294  0.3999 -0.4671
  173SLPC  H15A19499   5.338   2.833   6.114 -0.0533  1.0352 -0.4569
  173SLPC  H15B19500   5.400   2.753   6.262  0.2627  0.4699 -0.3478
  173SLPC  H15C19501   5.295   2.902   6.264 -0.6157  0.1435 -1.5139
  173SLPC   C1219502   5.470   3.061   6.141 -0.4878 -0.0009 -0.3034
  173SLPC  H12A19503   5.551   3.131   6.152  0.0592 -1.0259  2.4830
  173SLPC  H12B19504   5.381   3.110   6.178  0.7558  1.7453  0.4306
  173SLPC   C1119505   5.439   3.054   5.990  0.2080  0.5017  0.3554
  173SLPC  H11A19506   5.405   3.158   5.968  2.0719  0.5912 -2.3793
  173SLPC  H11B19507   5.348   2.990   5.982  0.8294 -0.3156 -0.2917
  173SLPC     P19508   5.673   3.105   5.888  0.1121 -0.2692  0.4496
  173SLPC   O1319509   5.687   3.154   5.749 -0.8695 -0.2929  0.2666
  173SLPC   O1419510   5.665   3.199   6.002  0.3138  0.4238  0.0053
  173SLPC   O1219511   5.554   3.010   5.903  0.0058  0.2441  0.4826
  173SLPC   O1119512   5.792   3.005   5.921  0.2306  0.0546  0.3459
  173SLPC    C119513   5.802   2.886   5.842 -0.0854 -0.4880  0.8961
  173SLPC    HA19514   5.732   2.811   5.884  1.1128 -1.5513  1.0561
  173SLPC    HB19515   5.772   2.899   5.736  0.1772 -2.0902  0.6059
  173SLPC    C219516   5.948   2.826   5.852  0.3863 -0.4084  0.4487
  173SLPC    HS19517   5.975   2.823   5.960  3.2963 -1.3194 -0.2567
  173SLPC   O2119518   6.035   2.911   5.763 -0.7629 -0.0656 -0.2104
  173SLPC   C2119519   6.164   2.907   5.804  0.7111  0.1965 -0.4071
  173SLPC   O2219520   6.210   2.834   5.891  0.4136 -0.2379  0.0013
  173SLPC   C2219521   6.256   2.998   5.726 -0.1122 -0.1030  0.0777
  173SLPC   H2R19522   6.203   3.063   5.653  1.9187 -0.5789 -1.8535
  173SLPC   H2S19523   6.316   3.054   5.801  0.7982 -1.3531  0.3063
  173SLPC    C319524   5.952   2.680   5.797 -0.9576  0.7565 -0.4967
  173SLPC    HX19525   5.871   2.647   5.866 -0.6152 -0.4774 -0.6816
  173SLPC    HY19526   6.045   2.623   5.818 -0.0817  2.3001 -0.0785
  173SLPC   O3119527   5.889   2.660   5.670 -0.0413  0.0663  0.1663
  173SLPC   C3119528   5.972   2.635   5.567 -1.0607 -0.4486 -0.0034
  173SLPC   O3219529   6.094   2.619   5.581  0.0376 -0.4004 -0.2519
  173SLPC   C3219530   5.894   2.628   5.434 -0.0798 -0.5714  0.4247
  173SLPC   H2X19531   5.800   2.573   5.454 -0.1782 -0.4516  0.2868
  173SLPC   H2Y19532   5.946   2.573   5.353  0.2578  1.5505 -0.8407
  173SLPC   C2319533   6.343   2.905   5.633 -0.5321  0.2259  0.0911
  173SLPC   H3R19534   6.280   2.856   5.555 -3.5190  3.9397 -0.0286
  173SLPC   H3S19535   6.380   2.828   5.703 -0.2113  0.2430 -0.0592
  173SLPC   C2419536   6.468   2.965   5.567  0.5645 -0.6196  0.0845
  173SLPC   H4R19537   6.534   3.002   5.648  2.1058 -0.8783 -1.0211
  173SLPC   H4S19538   6.437   3.056   5.512  0.3251  0.9709  2.7539
  173SLPC   C2519539   6.561   2.863   5.481  0.7398  0.0002  0.6824
  173SLPC   H5R19540   6.500   2.780   5.439  2.7327 -0.4893 -1.3343
  173SLPC   H5S19541   6.640   2.828   5.551  1.0690  0.5388  0.5818
  173SLPC   C2619542   6.636   2.942   5.371  0.4495  0.6558  0.1460
  173SLPC   H6R19543   6.703   3.017   5.418 -0.0872  0.3062  1.4975
  173SLPC   H6S19544   6.566   2.994   5.302 -1.0751 -0.4115  0.8634
  173SLPC   C2719545   6.724   2.848   5.277  0.5081  0.7470 -0.2918
  173SLPC   H7R19546   6.661   2.785   5.210 -0.3267  1.5368 -0.2661
  173SLPC   H7S19547   6.769   2.778   5.351 -3.0445  0.7942  2.0565
  173SLPC   C2819548   6.832   2.924   5.208 -0.2709  0.1828  0.4808
  173SLPC   H8R19549   6.886   2.850   5.146  2.1538  3.0605 -0.9814
  173SLPC   H8S19550   6.901   2.961   5.288 -0.5519  0.0345  0.7923
  173SLPC   C2919551   6.786   3.030   5.103  0.0869 -0.1975 -0.2275
  173SLPC   H9R19552   6.748   3.122   5.150 -1.0146 -0.3579 -0.7885
  173SLPC  C21019553   6.769   3.003   4.974 -0.3973  0.1575  0.1978
  173SLPC  H10R19554   6.738   3.088   4.911 -0.5393 -1.2927 -1.7495
  173SLPC  C21119555   6.786   2.885   4.890  0.7241  0.0095 -0.6817
  173SLPC  H11R19556   6.710   2.879   4.809 -1.1464  2.3908  0.8321
  173SLPC  H11S19557   6.782   2.791   4.949  2.1686 -0.1196 -0.7697
  173SLPC  C21219558   6.916   2.897   4.817  0.0543  0.7664  0.3600
  173SLPC  H12R19559   6.982   2.977   4.853  0.8580 -1.1762  3.3801
  173SLPC  C21319560   6.956   2.816   4.718 -0.0896 -0.3237 -0.0798
  173SLPC  H13R19561   7.055   2.826   4.669 -0.1809  1.6179  0.1155
  173SLPC  C21419562   6.870   2.708   4.656 -0.1339 -0.3520 -0.3370
  173SLPC  H14R19563   6.789   2.662   4.717 -0.5419  0.3408 -0.3497
  173SLPC  H14S19564   6.941   2.628   4.627 -0.1697 -0.0650 -1.2176
  173SLPC  C21519565   6.810   2.743   4.516  0.5513 -0.4325  0.3368
  173SLPC  H15R19566   6.761   2.841   4.534 -0.9070 -0.8881 -1.0142
  173SLPC  H15S19567   6.750   2.657   4.480  1.9470 -0.9034 -0.9259
  173SLPC  C21619568   6.924   2.775   4.416  0.4357 -1.1849  0.1546
  173SLPC  H16R19569   6.987   2.862   4.447 -0.0964 -1.7823  3.0595
  173SLPC  H16S19570   6.894   2.821   4.320 -0.1933 -1.4230  0.2341
  173SLPC  C21719571   7.006   2.650   4.371  0.4751 -0.8270  0.9130
  173SLPC  H17R19572   7.063   2.613   4.459 -2.0161 -1.0838  2.4622
  173SLPC  H17S19573   7.088   2.684   4.305  0.0344  0.1463  0.8700
  173SLPC  C21819574   6.922   2.541   4.309 -0.6935 -0.2107  0.1890
  173SLPC  H18R19575   6.865   2.571   4.218 -0.0545  0.7173  0.0869
  173SLPC  H18S19576   6.855   2.502   4.389  0.2603  0.9408  1.5687
  173SLPC  H18T19577   6.989   2.459   4.276 -1.1494  0.1382 -1.6661
  173SLPC   C3319578   5.853   2.773   5.392  0.3163 -0.0587  0.6295
  173SLPC   H3X19579   5.780   2.799   5.473 -2.2219  2.0106 -2.2159
  173SLPC   H3Y19580   5.796   2.767   5.297  0.2045 -1.7053  0.7776
  173SLPC   C3419581   5.962   2.875   5.391  0.1275  0.1596 -0.2112
  173SLPC   H4X19582   6.021   2.858   5.299 -1.9460  0.7744 -1.6903
  173SLPC   H4Y19583   6.030   2.881   5.479  0.3985 -1.7582 -0.2574
  173SLPC   C3519584   5.925   3.026   5.372  0.2496 -0.5760  0.5333
  173SLPC   H5X19585   5.869   3.055   5.463 -0.3905  1.1841 -0.3884
  173SLPC   H5Y19586   5.852   3.044   5.290  0.8081 -1.1713 -0.1058
  173SLPC   C3619587   6.041   3.123   5.364 -0.8619 -0.1554 -0.0729
  173SLPC   H6X19588   6.120   3.119   5.442  0.3572 -0.2987 -1.2909
  173SLPC   H6Y19589   5.993   3.222   5.379 -1.1774 -0.8359  3.8037
  173SLPC   C3719590   6.102   3.133   5.220 -0.0462 -0.5895 -0.1994
  173SLPC   H7X19591   6.022   3.163   5.149  1.8374  0.4229 -1.9538
  173SLPC   H7Y19592   6.153   3.039   5.191  0.8334 -0.6418  1.4478
  173SLPC   C3819593   6.204   3.249   5.219 -0.2890  0.4023 -0.4304
  173SLPC   H8X19594   6.267   3.240   5.310 -2.3361  0.2337  1.0072
  173SLPC   H8Y19595   6.151   3.347   5.220 -2.6480 -0.8316  1.5867
  173SLPC   C3919596   6.289   3.241   5.087 -0.0331 -0.0070  0.2858
  173SLPC   H9X19597   6.316   3.136   5.068  3.4790  0.8152  0.4509
  173SLPC   H9Y19598   6.385   3.293   5.108  1.5326 -3.6321  2.3474
  173SLPC  C31019599   6.214   3.309   4.964 -0.2178  0.8164  0.7651
  173SLPC  H10X19600   6.205   3.418   4.983 -2.4642  1.0826 -1.5777
  173SLPC  H10Y19601   6.110   3.270   4.964 -0.6887  2.0022 -0.6098
  173SLPC  C31119602   6.275   3.278   4.825  0.2149  0.7019  0.2244
  173SLPC  H11X19603   6.229   3.357   4.761  0.0568 -0.4300 -1.0758
  173SLPC  H11Y19604   6.251   3.172   4.800 -1.2687  0.6242  1.8821
  173SLPC  C31219605   6.424   3.314   4.832  0.0420  0.0394  0.1711
  173SLPC  H12X19606   6.492   3.240   4.880  0.9528 -0.3985 -1.7551
  173SLPC  H12Y19607   6.429   3.414   4.879  1.3809  0.5382 -1.0119
  173SLPC  C31319608   6.489   3.328   4.693  0.4659 -0.2124 -0.3369
  173SLPC  H13X19609   6.578   3.395   4.695  0.1691  0.1548  0.7455
  173SLPC  H13Y19610   6.414   3.379   4.628 -0.4723  0.6448  1.3918
  173SLPC  C31419611   6.531   3.199   4.639  0.3336 -0.4047 -0.9881
  173SLPC  H14X19612   6.444   3.145   4.595  0.6533 -1.4760 -0.3310
  173SLPC  H14Y19613   6.540   3.127   4.724  1.4875 -1.0280 -1.6202
  173SLPC  C31519614   6.651   3.207   4.544  0.6129 -0.3328 -0.2002
  173SLPC  H15X19615   6.659   3.305   4.493  4.5201  0.2421  1.3772
  173SLPC  H15Y19616   6.635   3.125   4.470  2.3582  0.1686 -1.1624
  173SLPC  C31619617   6.781   3.164   4.614 -1.1413 -0.1038 -0.4240
  173SLPC  H16X19618   6.758   3.073   4.674 -2.2393 -0.1418 -0.8895
  173SLPC  H16Y19619   6.813   3.256   4.668 -1.1589 -0.0531 -0.4999
  173SLPC  C31719620   6.888   3.137   4.511 -0.4128 -0.2103 -0.0853
  173SLPC  H17X19621   6.840   3.087   4.425 -1.6956 -0.0649  0.5398
  173SLPC  H17Y19622   6.965   3.068   4.554 -0.9042 -1.0092 -0.4717
  173SLPC  C31819623   6.957   3.266   4.467 -0.6014  0.5492 -0.6798
  173SLPC  H18X19624   6.995   3.325   4.553 -0.8093  2.0794 -1.6104
  173SLPC  H18Y19625   6.890   3.344   4.424 -0.1885  1.0841 -0.3514
  173SLPC  H18Z19626   7.047   3.257   4.403 -0.0422  0.8964  0.0450
  174SLPC     N19627   1.483   1.469   5.889  0.2427 -0.6294  0.1342
  174SLPC   C1319628   1.393   1.529   5.776  0.3196  0.0145 -0.2166
  174SLPC  H13A19629   1.392   1.471   5.685 -0.1810  1.9122 -1.4258
  174SLPC  H13B19630   1.293   1.529   5.816  0.4737  1.5089  0.2002
  174SLPC  H13C19631   1.423   1.632   5.766 -1.1209  0.1527 -3.7815
  174SLPC   C1419632   1.439   1.322   5.918  0.3897 -0.2585 -0.4993
  174SLPC  H14A19633   1.489   1.258   5.847 -1.8544 -1.9143 -0.6322
  174SLPC  H14B19634   1.486   1.283   6.008 -0.5903 -2.6280 -0.9930
  174SLPC  H14C19635   1.332   1.313   5.921  0.3911  0.2061  2.1384
  174SLPC   C1519636   1.469   1.542   6.022 -0.0195  0.1400 -0.7615
  174SLPC  H15A19637   1.481   1.647   6.001  0.9145  0.3952  0.9801
  174SLPC  H15B19638   1.382   1.515   6.080  0.9363 -0.9220  0.2182
  174SLPC  H15C19639   1.549   1.512   6.088 -1.4080  1.3656  1.5104
  174SLPC   C1219640   1.633   1.452   5.842 -0.4295  0.0307 -0.1579
  174SLPC  H12A19641   1.638   1.399   5.748  2.3241 -0.9085  0.4678
  174SLPC  H12B19642   1.677   1.376   5.906 -0.6000 -0.1928 -0.3051
  174SLPC   C1119643   1.736   1.570   5.847  0.3662  0.3976  0.8239
  174SLPC  H11A19644   1.682   1.654   5.797 -0.1643 -1.9616 -2.7323
  174SLPC  H11B19645   1.828   1.554   5.786  0.8596 -1.3276  1.9835
  174SLPC     P19646   1.878   1.542   6.066 -0.2356 -0.1960  0.3223
  174SLPC   O1319647   1.830   1.545   6.204 -0.0525 -0.1514 -0.7783
  174SLPC   O1419648   1.900   1.415   6.007 -0.5512 -0.1157  0.5940
  174SLPC   O1219649   1.771   1.619   5.980 -0.2012 -0.1353  0.1948
  174SLPC   O1119650   2.008   1.635   6.070  0.6246  0.5233 -0.8771
  174SLPC    C119651   2.092   1.640   5.952  0.3626  0.0069 -0.6433
  174SLPC    HA19652   2.195   1.629   5.992 -1.0377 -2.6783  2.4953
  174SLPC    HB19653   2.070   1.566   5.872 -0.5970 -0.7253  0.2696
  174SLPC    C219654   2.085   1.777   5.870  0.2227 -0.9189  0.9729
  174SLPC    HS19655   2.128   1.854   5.939 -2.1382  0.3264  1.0966
  174SLPC   O2119656   1.950   1.809   5.843 -0.1041 -0.9442 -0.1910
  174SLPC   C2119657   1.931   1.935   5.803 -0.3103  0.6600 -0.1220
  174SLPC   O2219658   2.018   2.023   5.793  0.4978  0.1790 -0.3012
  174SLPC   C2219659   1.785   1.956   5.772  0.5164  0.0885 -0.1773
  174SLPC   H2R19660   1.740   1.855   5.782 -1.0284  0.9620  2.3779
  174SLPC   H2S19661   1.738   2.036   5.834 -1.9347 -0.2538 -1.5279
  174SLPC    C319662   2.163   1.763   5.733 -0.4405 -0.0823 -0.0641
  174SLPC    HX19663   2.270   1.742   5.755 -0.5543 -0.5878  0.0325
  174SLPC    HY19664   2.162   1.863   5.686 -3.3060  0.3224  0.7569
  174SLPC   O3119665   2.100   1.659   5.659 -0.8600 -0.1898  0.4615
  174SLPC   C3119666   2.037   1.704   5.550 -0.0875 -0.1957 -0.3527
  174SLPC   O3219667   2.055   1.811   5.496  0.4159  0.0353 -0.3003
  174SLPC   C3219668   1.950   1.594   5.498  0.5153 -1.0867  0.0680
  174SLPC   H2X19669   1.894   1.644   5.417 -0.0951  1.5847  2.0770
  174SLPC   H2Y19670   1.882   1.551   5.575  0.7090 -0.8662  0.3649
  174SLPC   C2319671   1.774   2.002   5.629  0.8127  0.4256 -0.5500
  174SLPC   H3R19672   1.814   1.940   5.545 -0.0364 -0.9045 -0.0035
  174SLPC   H3S19673   1.823   2.101   5.622  0.0281  0.6559 -3.6490
  174SLPC   C2419674   1.622   2.021   5.597 -0.1374  0.5215 -0.2165
  174SLPC   H4R19675   1.587   2.093   5.675  0.8547 -1.2816  1.9376
  174SLPC   H4S19676   1.574   1.923   5.615  1.6764 -0.4303 -0.4741
  174SLPC   C2519677   1.582   2.069   5.456  0.1239  0.0661 -0.1818
  174SLPC   H5R19678   1.481   2.041   5.419  0.0764  0.1005 -0.0799
  174SLPC   H5S19679   1.649   2.020   5.383  0.0354  0.3294 -0.4383
  174SLPC   C2619680   1.592   2.224   5.432 -0.2918  0.1009  0.4861
  174SLPC   H6R19681   1.674   2.267   5.494 -2.1653  1.1034  2.3473
  174SLPC   H6S19682   1.497   2.258   5.478  0.2643  0.8688  1.0937
  174SLPC   C2719683   1.603   2.253   5.281  0.3387 -0.6860 -0.1489
  174SLPC   H7R19684   1.550   2.349   5.261  2.3072  0.6284  0.7444
  174SLPC   H7S19685   1.559   2.167   5.225  1.5328 -1.2181 -0.2719
  174SLPC   C2819686   1.750   2.264   5.236  0.2166 -0.0443  0.4283
  174SLPC   H8R19687   1.805   2.170   5.253  1.6091  0.8902  1.2109
  174SLPC   H8S19688   1.810   2.332   5.300  2.1523  0.9039 -2.2754
  174SLPC   C2919689   1.765   2.306   5.093 -0.7818 -0.3106  0.0576
  174SLPC   H9R19690   1.763   2.416   5.088  0.0617 -0.1944  1.8814
  174SLPC  C21019691   1.774   2.228   4.982  0.2256 -0.0384  0.0925
  174SLPC  H10R19692   1.785   2.273   4.883  2.5628  0.5344  0.5803
  174SLPC  C21119693   1.773   2.073   4.986 -0.8588  0.3374 -0.1922
  174SLPC  H11R19694   1.671   2.037   5.015 -0.0302 -2.2101 -0.3176
  174SLPC  H11S19695   1.852   2.034   5.054  0.2706 -0.0285 -1.6770
  174SLPC  C21219696   1.793   2.022   4.840 -0.1169 -0.2967 -0.1784
  174SLPC  H12R19697   1.847   2.089   4.771  0.3263 -0.6896 -0.2168
  174SLPC  C21319698   1.747   1.910   4.782 -0.1835  0.4252  0.4077
  174SLPC  H13R19699   1.769   1.880   4.679 -1.2751  0.4346  0.1641
  174SLPC  C21419700   1.650   1.812   4.846 -0.5104 -0.0616 -0.1628
  174SLPC  H14R19701   1.636   1.832   4.954 -1.5001 -1.7307  0.0420
  174SLPC  H14S19702   1.683   1.711   4.812  1.0428  0.6136 -0.7004
  174SLPC  C21519703   1.506   1.824   4.791 -0.1953  0.0045 -0.1242
  174SLPC  H15R19704   1.501   1.783   4.688  2.7136  1.5684 -0.9274
  174SLPC  H15S19705   1.485   1.933   4.785 -0.4315  0.0205  0.8734
  174SLPC  C21619706   1.401   1.754   4.881 -0.6482  0.0507  0.2143
  174SLPC  H16R19707   1.409   1.771   4.990  0.8000 -1.0661  0.2930
  174SLPC  H16S19708   1.419   1.648   4.853  1.4247  0.4028  0.1857
  174SLPC  C21719709   1.258   1.796   4.842 -0.0385 -0.0394  0.2366
  174SLPC  H17R19710   1.240   1.761   4.738 -0.1527  1.4748 -0.2647
  174SLPC  H17S19711   1.244   1.905   4.824 -0.7521 -0.0587  0.6631
  174SLPC  C21819712   1.149   1.744   4.933  1.0483  0.1067 -0.3548
  174SLPC  H18R19713   1.051   1.748   4.881  2.6239 -1.7240 -3.5589
  174SLPC  H18S19714   1.136   1.808   5.023  1.2699  2.1680 -1.7542
  174SLPC  H18T19715   1.171   1.638   4.959  0.5051 -0.2955 -1.4940
  174SLPC   C3319716   2.037   1.483   5.433  0.0903 -0.0331 -0.0641
  174SLPC   H3X19717   1.976   1.394   5.405  0.5743  0.4114 -2.6138
  174SLPC   H3Y19718   2.118   1.451   5.502  1.0158  3.1391  0.3608
  174SLPC   C3419719   2.097   1.535   5.301  0.1289  0.3199  0.4324
  174SLPC   H4X19720   2.181   1.605   5.319  0.0407  0.3379  0.7642
  174SLPC   H4Y19721   2.025   1.598   5.245 -1.8424 -1.4773  0.8586
  174SLPC   C3519722   2.141   1.420   5.214  0.1413  0.2071 -0.4601
  174SLPC   H5X19723   2.052   1.364   5.178 -0.9828  1.4745  0.3496
  174SLPC   H5Y19724   2.201   1.344   5.270 -2.5902 -0.4329  1.7141
  174SLPC   C3619725   2.219   1.462   5.087  0.4824 -0.2688  0.1215
  174SLPC   H6X19726   2.311   1.514   5.121 -0.1263 -0.2424  1.7884
  174SLPC   H6Y19727   2.154   1.526   5.024  1.2286 -0.5380 -0.9326
  174SLPC   C3719728   2.272   1.341   4.997 -0.4258 -0.7430  0.3022
  174SLPC   H7X19729   2.176   1.296   4.963 -2.5919  3.1808  0.8947
  174SLPC   H7Y19730   2.333   1.274   5.062  2.6903  1.7019 -0.0173
  174SLPC   C3819731   2.358   1.392   4.885  0.6503 -0.2475 -0.0960
  174SLPC   H8X19732   2.444   1.444   4.933  0.8936  0.9054 -1.7393
  174SLPC   H8Y19733   2.295   1.456   4.819 -0.9854 -1.5147  0.2281
  174SLPC   C3919734   2.409   1.279   4.788 -0.5244 -0.3992 -0.7342
  174SLPC   H9X19735   2.334   1.200   4.768 -2.7287  1.1485  1.0570
  174SLPC   H9Y19736   2.491   1.221   4.836  0.4594  2.0476  0.6329
  174SLPC  C31019737   2.475   1.339   4.660  0.2828 -0.4085  0.2450
  174SLPC  H10X19738   2.534   1.423   4.703 -0.9118  0.4773  0.1923
  174SLPC  H10Y19739   2.385   1.382   4.612  1.4131  2.4093  0.5197
  174SLPC  C31119740   2.559   1.244   4.580  0.7372 -0.5602  0.1135
  174SLPC  H11X19741   2.503   1.160   4.535 -1.4829  1.2889 -0.6851
  174SLPC  H11Y19742   2.626   1.194   4.653 -2.8273 -2.8537  1.9570
  174SLPC  C31219743   2.639   1.324   4.470 -0.4706  0.2026 -0.4373
  174SLPC  H12X19744   2.656   1.428   4.504  0.5766  0.4988 -1.8169
  174SLPC  H12Y19745   2.555   1.324   4.397 -0.8783  1.1120  0.0335
  174SLPC  C31319746   2.760   1.258   4.406  0.2630  0.2896  0.2585
  174SLPC  H13X19747   2.724   1.161   4.365  2.4741  0.6530 -2.7029
  174SLPC  H13Y19748   2.831   1.245   4.490 -0.9399  0.7055  1.3595
  174SLPC  C31419749   2.837   1.318   4.282 -0.7859 -0.2232 -0.1534
  174SLPC  H14X19750   2.912   1.240   4.257  2.0953  1.9230  1.5400
  174SLPC  H14Y19751   2.894   1.404   4.323  2.4753 -1.6250 -1.5685
  174SLPC  C31519752   2.739   1.339   4.165 -0.0980 -0.2538 -0.2464
  174SLPC  H15X19753   2.676   1.429   4.176  2.3538  1.5699 -0.6724
  174SLPC  H15Y19754   2.688   1.240   4.163  0.9897 -0.8026 -2.7947
  174SLPC  C31619755   2.807   1.364   4.038 -0.0489 -0.7888  0.4385
  174SLPC  H16X19756   2.908   1.317   4.042 -0.5990 -2.1986 -1.2543
  174SLPC  H16Y19757   2.831   1.472   4.025 -0.8352 -0.6797 -0.1071
  174SLPC  C31719758   2.723   1.328   3.911 -0.4832  0.1636  0.6419
  174SLPC  H17X19759   2.625   1.378   3.900 -1.2542 -0.7366  3.0775
  174SLPC  H17Y19760   2.693   1.222   3.927 -0.3571  0.3029  1.8441
  174SLPC  C31819761   2.817   1.350   3.789  0.0088  0.5363 -0.0197
  174SLPC  H18X19762   2.897   1.273   3.780 -0.0574  0.7741 -3.0931
  174SLPC  H18Y19763   2.865   1.450   3.791  1.4209 -0.0780 -1.6420
  174SLPC  H18Z19764   2.747   1.344   3.703  2.4331  0.7522 -2.0503
  175SLPC     N19765   6.496   4.341   6.288 -0.2719 -0.9399 -0.1127
  175SLPC   C1319766   6.376   4.347   6.195  0.1863  0.0858 -0.3631
  175SLPC  H13A19767   6.382   4.431   6.127  1.5133 -0.0483 -0.4213
  175SLPC  H13B19768   6.378   4.256   6.137  0.3289 -1.6995  2.3584
  175SLPC  H13C19769   6.283   4.356   6.248  0.0139 -2.0184 -0.2554
  175SLPC   C1419770   6.470   4.229   6.384 -0.6165  0.0098  0.3242
  175SLPC  H14A19771   6.379   4.254   6.437  0.5289  3.8291  0.6562
  175SLPC  H14B19772   6.479   4.136   6.330 -0.7001  0.2827 -0.1551
  175SLPC  H14C19773   6.553   4.228   6.454 -1.9689  2.0921  2.0338
  175SLPC   C1519774   6.516   4.473   6.351 -0.0531 -0.7419  0.7260
  175SLPC  H15A19775   6.512   4.558   6.284 -1.3124 -1.0265  0.4327
  175SLPC  H15B19776   6.443   4.478   6.430  0.6528  0.0142  1.3439
  175SLPC  H15C19777   6.614   4.486   6.394  0.6270  3.0605 -1.7051
  175SLPC   C1219778   6.615   4.325   6.193 -0.3381 -0.4779  0.0959
  175SLPC  H12A19779   6.611   4.407   6.123  1.2940  0.8645  1.5153
  175SLPC  H12B19780   6.598   4.234   6.138  0.1654  0.2736 -1.3118
  175SLPC   C1119781   6.760   4.311   6.251  0.1763  0.1340  0.0621
  175SLPC  H11A19782   6.834   4.269   6.180 -0.2999 -0.5568 -0.0312
  175SLPC  H11B19783   6.762   4.234   6.331 -1.1403 -0.4095 -0.4195
  175SLPC     P19784   6.854   4.547   6.200 -0.1132  0.2495  0.2900
  175SLPC   O1319785   6.824   4.686   6.253 -0.8174 -0.3789  0.6167
  175SLPC   O1419786   6.995   4.519   6.170  0.5325 -0.2204  0.3962
  175SLPC   O1219787   6.801   4.438   6.304 -0.5435  0.6863  0.5276
  175SLPC   O1119788   6.762   4.534   6.065  0.1219  0.7664 -0.1513
  175SLPC    C119789   6.827   4.490   5.943 -0.0791 -0.0727  0.9792
  175SLPC    HA19790   6.934   4.517   5.933 -0.0248 -0.8779 -0.8149
  175SLPC    HB19791   6.817   4.381   5.927  1.6570 -0.0973  0.0294
  175SLPC    C219792   6.755   4.566   5.825 -0.2667 -0.0206  0.4335
  175SLPC    HS19793   6.730   4.668   5.861  1.5005 -0.4669  3.0986
  175SLPC   O2119794   6.638   4.484   5.797  0.2312  0.8452 -0.1062
  175SLPC   C2119795   6.548   4.525   5.713 -0.0481  0.5360  0.3204
  175SLPC   O2219796   6.521   4.641   5.686  0.2998  0.6237  0.4109
  175SLPC   C2219797   6.467   4.403   5.682  0.3200  0.0151  0.2777
  175SLPC   H2R19798   6.537   4.321   5.656 -3.2794 -1.8959 -4.0505
  175SLPC   H2S19799   6.420   4.388   5.782 -0.1493 -0.7970 -0.0639
  175SLPC    C319800   6.841   4.591   5.699  0.6718  0.2534 -0.5400
  175SLPC    HX19801   6.907   4.680   5.711  0.4223  0.1908  1.5234
  175SLPC    HY19802   6.768   4.631   5.625 -0.2106  0.6671  0.5290
  175SLPC   O3119803   6.916   4.479   5.648  0.8069 -0.4448  0.1019
  175SLPC   C3119804   6.859   4.415   5.542  0.2368  0.2379 -0.8016
  175SLPC   O3219805   6.749   4.443   5.496 -0.3291  0.0759  0.0605
  175SLPC   C3219806   6.970   4.308   5.507  0.8416 -0.3946  0.1228
  175SLPC   H2X19807   7.022   4.273   5.599  0.3796  0.3080  0.6560
  175SLPC   H2Y19808   7.034   4.353   5.428  0.4757 -0.0658  0.0114
  175SLPC   C2319809   6.370   4.426   5.566  0.2010 -0.1786 -0.3261
  175SLPC   H3R19810   6.314   4.520   5.589 -0.0817 -0.7276  1.2847
  175SLPC   H3S19811   6.290   4.350   5.571  0.7710 -0.9455 -2.4145
  175SLPC   C2419812   6.430   4.427   5.423 -0.1049  0.0021 -0.2028
  175SLPC   H4R19813   6.500   4.346   5.395  0.6431  1.0798 -1.5045
  175SLPC   H4S19814   6.508   4.507   5.424  1.0808 -1.1404 -0.0692
  175SLPC   C2519815   6.319   4.429   5.319 -0.4101 -0.4541 -0.2050
  175SLPC   H5R19816   6.269   4.526   5.344  0.3156 -0.1101 -0.0822
  175SLPC   H5S19817   6.256   4.339   5.334  0.4689 -1.1553 -0.7802
  175SLPC   C2619818   6.371   4.439   5.176 -0.1450 -0.2357  0.0373
  175SLPC   H6R19819   6.456   4.368   5.162  0.6613  0.0469  3.0930
  175SLPC   H6S19820   6.416   4.539   5.156 -0.1587 -0.4979 -1.3263
  175SLPC   C2719821   6.261   4.415   5.069  0.0334  0.2575  0.7365
  175SLPC   H7R19822   6.196   4.506   5.061  0.7945  0.5454 -3.1579
  175SLPC   H7S19823   6.197   4.334   5.109  0.5746 -1.3099 -1.5451
  175SLPC   C2819824   6.322   4.391   4.929 -0.6253  0.0407 -0.5143
  175SLPC   H8R19825   6.391   4.475   4.912  1.3565 -1.6920 -1.2095
  175SLPC   H8S19826   6.240   4.396   4.855 -1.7808  0.1473  0.7354
  175SLPC   C2919827   6.393   4.261   4.926 -0.0600 -0.0553  0.1665
  175SLPC   H9R19828   6.354   4.179   4.988 -0.2926 -1.3252 -1.6125
  175SLPC  C21019829   6.511   4.239   4.856  0.1300  0.2648  0.3028
  175SLPC  H10R19830   6.540   4.135   4.834  2.4805  1.0549 -0.5592
  175SLPC  C21119831   6.589   4.343   4.776 -0.4307 -0.2456  0.0774
  175SLPC  H11R19832   6.524   4.432   4.770 -0.5014 -0.3718 -1.0371
  175SLPC  H11S19833   6.607   4.316   4.670  0.2630  0.6166 -0.0214
  175SLPC  C21219834   6.717   4.373   4.848 -0.3384  0.4084 -0.4181
  175SLPC  H12R19835   6.713   4.382   4.957 -1.3303 -0.1628 -0.4041
  175SLPC  C21319836   6.840   4.383   4.781 -0.0908  0.3290 -0.2745
  175SLPC  H13R19837   6.935   4.387   4.838 -1.7260 -0.6598  2.6368
  175SLPC  C21419838   6.876   4.368   4.635  0.1069 -0.2783 -0.9645
  175SLPC  H14R19839   6.788   4.388   4.570  0.2803 -0.5034 -1.2706
  175SLPC  H14S19840   6.901   4.261   4.619 -2.6269 -1.0596 -0.2672
  175SLPC  C21519841   7.000   4.452   4.598 -0.2364  0.2813  0.0488
  175SLPC  H15R19842   7.089   4.414   4.653 -1.7025 -1.2320  1.4640
  175SLPC  H15S19843   6.977   4.560   4.613 -2.7161 -0.2487  0.2804
  175SLPC  C21619844   7.043   4.438   4.453  0.1394 -0.1485 -0.1525
  175SLPC  H16R19845   6.984   4.506   4.388  1.5752  0.4555 -0.8608
  175SLPC  H16S19846   7.026   4.337   4.409 -1.5980 -0.7738  1.8972
  175SLPC  C21719847   7.190   4.483   4.429  0.2132 -0.0978  0.4258
  175SLPC  H17R19848   7.219   4.460   4.324  1.6941 -1.0791  1.0227
  175SLPC  H17S19849   7.255   4.430   4.501  1.0373 -0.2738 -0.4317
  175SLPC  C21819850   7.201   4.630   4.471  0.1735  0.0643 -0.2699
  175SLPC  H18R19851   7.163   4.655   4.572 -0.8927 -0.5123 -0.5268
  175SLPC  H18S19852   7.141   4.681   4.392 -0.6976 -1.6408 -0.7358
  175SLPC  H18T19853   7.301   4.679   4.469  0.2657 -0.1257 -0.3972
  175SLPC   C3319854   6.907   4.188   5.418 -0.7759  0.5261 -0.6013
  175SLPC   H3X19855   6.829   4.136   5.478  0.9383 -0.0530  1.1469
  175SLPC   H3Y19856   6.986   4.113   5.394 -0.3284  0.0215  2.2772
  175SLPC   C3419857   6.855   4.234   5.280 -0.1537 -0.1427 -0.0031
  175SLPC   H4X19858   6.943   4.249   5.214  0.9290 -1.9056  0.9914
  175SLPC   H4Y19859   6.797   4.328   5.294  0.7320  0.2067  1.5137
  175SLPC   C3519860   6.762   4.137   5.209  0.4918 -0.6898  0.8867
  175SLPC   H5X19861   6.736   4.180   5.110  0.1891  2.8232  2.4297
  175SLPC   H5Y19862   6.672   4.130   5.273 -0.2251 -0.6715 -0.1060
  175SLPC   C3619863   6.819   3.995   5.203  0.7654  0.7132  0.5864
  175SLPC   H6X19864   6.741   3.936   5.149  0.9615  0.2936  0.7583
  175SLPC   H6Y19865   6.823   3.937   5.298 -0.6730  0.1729  0.3344
  175SLPC   C3719866   6.949   3.964   5.126  0.0325 -0.1713  0.7926
  175SLPC   H7X19867   6.960   3.853   5.117 -3.4407 -0.6159  1.1035
  175SLPC   H7Y19868   7.039   4.006   5.175  2.0711  0.0615 -2.9695
  175SLPC   C3819869   6.945   4.022   4.982 -1.1575  0.6821 -0.0508
  175SLPC   H8X19870   6.956   4.132   4.990 -1.0304  0.4995  3.1096
  175SLPC   H8Y19871   6.846   3.983   4.947 -1.1009 -1.0848  1.6322
  175SLPC   C3919872   7.048   3.970   4.884  0.4792  0.0133 -0.1513
  175SLPC   H9X19873   7.034   3.864   4.854  3.0914  0.2189 -2.3733
  175SLPC   H9Y19874   7.150   3.982   4.926 -0.1702 -0.1728  1.4855
  175SLPC  C31019875   7.041   4.055   4.750 -0.3329  0.1413  0.2339
  175SLPC  H10X19876   7.044   4.161   4.782 -0.3525  0.1275  0.2827
  175SLPC  H10Y19877   6.938   4.045   4.711 -0.5011  1.0091  0.4546
  175SLPC  C31119878   7.146   4.021   4.641 -0.4767 -0.6595 -0.4241
  175SLPC  H11X19879   7.117   3.916   4.619  1.1737 -1.4800  1.2544
  175SLPC  H11Y19880   7.249   4.016   4.679  0.4609  0.5081 -2.6861
  175SLPC  C31219881   7.130   4.105   4.516 -0.1557  0.2915  0.3897
  175SLPC  H12X19882   7.191   4.198   4.527  1.5261 -0.9990  2.2133
  175SLPC  H12Y19883   7.027   4.132   4.483  1.2729  3.7269 -1.5688
  175SLPC  C31319884   7.189   4.034   4.391  0.4068 -0.5742 -0.3080
  175SLPC  H13X19885   7.122   3.955   4.350 -0.7297  0.6691 -0.8642
  175SLPC  H13Y19886   7.279   3.976   4.422 -0.1144 -1.1988  0.0502
  175SLPC  C31419887   7.240   4.143   4.285  0.0279  0.1954  0.1427
  175SLPC  H14X19888   7.320   4.197   4.341 -0.3959  0.7427  0.2227
  175SLPC  H14Y19889   7.152   4.208   4.267 -0.0522  0.0801  0.1201
  175SLPC  C31519890   7.314   4.084   4.164 -0.4812  0.3637 -0.4637
  175SLPC  H15X19891   7.260   4.006   4.107 -0.3537  0.0244 -0.1159
  175SLPC  H15Y19892   7.410   4.039   4.199  0.2657  1.8143 -0.6069
  175SLPC  C31619893   7.348   4.194   4.061  0.5663  0.4406  0.7297
  175SLPC  H16X19894   7.249   4.235   4.029  0.0954 -0.4901  0.9646
  175SLPC  H16Y19895   7.389   4.125   3.984  0.4213 -0.2188  1.2380
  175SLPC  C31719896   7.445   4.307   4.097  0.8475  0.3935 -0.7533
  175SLPC  H17X19897   7.520   4.267   4.169 -1.0231  1.0123  1.5715
  175SLPC  H17Y19898   7.390   4.379   4.162 -0.2099  0.0957 -1.3088
  175SLPC  C31819899   7.519   4.368   3.976 -0.4552 -0.9895  0.2646
  175SLPC  H18X19900   7.601   4.299   3.946 -0.5690 -1.7117  1.5918
  175SLPC  H18Y19901   7.556   4.468   4.006  0.1145 -1.5013  1.2905
  175SLPC  H18Z19902   7.451   4.384   3.889  0.2509 -3.6385 -0.8233
  176SLPC     N19903   5.500   1.436   6.301 -0.7689  0.0208  0.6583
  176SLPC   C1319904   5.585   1.437   6.418 -0.3245  0.0573 -0.8227
  176SLPC  H13A19905   5.687   1.435   6.383 -0.7481 -0.8697 -2.0467
  176SLPC  H13B19906   5.571   1.516   6.490 -1.1990 -0.4225 -0.4678
  176SLPC  H13C19907   5.577   1.339   6.463  2.1979  0.5768  0.8988
  176SLPC   C1419908   5.540   1.540   6.201 -0.8223 -0.4204  0.2958
  176SLPC  H14A19909   5.640   1.523   6.164 -1.4961  0.3589 -1.9256
  176SLPC  H14B19910   5.482   1.546   6.111  0.2606  1.2959 -0.3053
  176SLPC  H14C19911   5.544   1.633   6.256  0.4705 -0.6379  0.5883
  176SLPC   C1519912   5.366   1.464   6.351  0.1042 -0.5949 -1.6045
  176SLPC  H15A19913   5.344   1.373   6.405 -2.2949  1.8238  1.7416
  176SLPC  H15B19914   5.360   1.542   6.425 -0.9504  0.3319 -2.6369
  176SLPC  H15C19915   5.293   1.468   6.271  0.0344 -0.6215 -1.5417
  176SLPC   C1219916   5.512   1.304   6.234  0.0284 -0.3973 -0.1732
  176SLPC  H12A19917   5.514   1.225   6.309  0.7988 -0.3554 -0.1430
  176SLPC  H12B19918   5.611   1.292   6.193  1.0030  3.3754  0.8505
  176SLPC   C1119919   5.412   1.270   6.117 -0.2489 -0.5018 -0.2925
  176SLPC  H11A19920   5.454   1.184   6.060  0.5032 -2.2602  2.8363
  176SLPC  H11B19921   5.407   1.352   6.042 -2.6416 -0.6140 -0.3206
  176SLPC     P19922   5.167   1.197   6.070 -0.1459 -0.1770  0.3503
  176SLPC   O1319923   5.041   1.211   6.143  0.5359  0.1480  0.2989
  176SLPC   O1419924   5.184   1.262   5.936 -0.1772  0.0115  0.1341
  176SLPC   O1219925   5.280   1.246   6.169  0.1058 -0.1735 -0.6724
  176SLPC   O1119926   5.205   1.038   6.066  0.3123  0.0369 -0.2096
  176SLPC    C119927   5.278   0.984   5.950  0.8485  0.8465 -0.0273
  176SLPC    HA19928   5.205   0.939   5.878  1.2754  1.1011 -0.6242
  176SLPC    HB19929   5.347   1.049   5.892  2.8380 -1.2204 -0.0395
  176SLPC    C219930   5.367   0.861   5.990 -0.0606 -0.4950  0.3773
  176SLPC    HS19931   5.331   0.823   6.088 -1.5652 -0.9172 -0.3275
  176SLPC   O2119932   5.506   0.913   5.996 -0.5118 -0.2613  0.2717
  176SLPC   C2119933   5.589   0.829   6.054 -1.0287  0.1338  0.7551
  176SLPC   O2219934   5.575   0.712   6.088  0.5550 -0.0128  0.1759
  176SLPC   C2219935   5.724   0.892   6.079  0.3466 -0.2579  0.1933
  176SLPC   H2R19936   5.757   0.882   6.185  2.3840  2.5302 -0.1036
  176SLPC   H2S19937   5.797   0.837   6.017  0.1506 -0.4129  0.1017
  176SLPC    C319938   5.352   0.750   5.882 -0.1375 -0.4280  0.3799
  176SLPC    HX19939   5.246   0.719   5.892 -0.4719  0.3946 -0.5701
  176SLPC    HY19940   5.416   0.665   5.913  1.0455 -0.1516 -1.2472
  176SLPC   O3119941   5.371   0.802   5.749 -1.2974  0.1612 -0.4464
  176SLPC   C3119942   5.486   0.785   5.695  0.2961 -0.1731  0.0329
  176SLPC   O3219943   5.575   0.711   5.736  0.1466  0.7028 -0.0824
  176SLPC   C3219944   5.489   0.858   5.564 -0.0764 -0.0074  0.3796
  176SLPC   H2X19945   5.382   0.864   5.536 -0.1809  2.9875  1.2702
  176SLPC   H2Y19946   5.556   0.805   5.493 -1.6669 -0.5355 -0.7724
  176SLPC   C2319947   5.731   1.039   6.032  0.4635 -0.1336  0.2398
  176SLPC   H3R19948   5.822   1.070   6.086 -0.5117 -0.2092  1.9558
  176SLPC   H3S19949   5.650   1.110   6.057  0.4622 -0.2875  0.6630
  176SLPC   C2419950   5.741   1.039   5.875 -1.0113  0.0278  0.0315
  176SLPC   H4R19951   5.644   1.014   5.827  0.0256 -1.3988 -1.4000
  176SLPC   H4S19952   5.818   0.963   5.851  0.4492  1.8931 -1.3021
  176SLPC   C2519953   5.777   1.175   5.807 -0.1227  0.1110 -0.0753
  176SLPC   H5R19954   5.794   1.161   5.698  3.1212 -2.0537  0.6370
  176SLPC   H5S19955   5.878   1.206   5.839 -0.0151  0.5730 -0.8580
  176SLPC   C2619956   5.668   1.281   5.811  0.0233 -0.1921 -0.3216
  176SLPC   H6R19957   5.652   1.290   5.921  1.3002 -1.3261 -0.0267
  176SLPC   H6S19958   5.567   1.252   5.773 -0.5988  0.6306  0.6773
  176SLPC   C2719959   5.707   1.421   5.766 -0.3547  0.2285  0.1583
  176SLPC   H7R19960   5.746   1.404   5.664 -0.4661  3.4417 -0.4651
  176SLPC   H7S19961   5.792   1.451   5.831 -0.6243  0.8800  0.2108
  176SLPC   C2819962   5.586   1.519   5.758  0.7420  0.0121  0.0844
  176SLPC   H8R19963   5.534   1.516   5.856  2.1881 -0.9701  0.8412
  176SLPC   H8S19964   5.507   1.498   5.682 -0.5293  1.8236  0.8583
  176SLPC   C2919965   5.644   1.654   5.718 -0.1607  1.1868 -0.1938
  176SLPC   H9R19966   5.681   1.713   5.803 -0.7016  0.9843  0.1852
  176SLPC  C21019967   5.669   1.700   5.594 -0.3043  0.3752 -0.4662
  176SLPC  H10R19968   5.706   1.803   5.584 -1.3620  0.9122  1.1254
  176SLPC  C21119969   5.648   1.636   5.462  0.2936 -0.0762 -0.6611
  176SLPC  H11R19970   5.651   1.528   5.486 -1.7514  0.1655  0.7262
  176SLPC  H11S19971   5.740   1.657   5.402  1.2318 -1.5016  0.2531
  176SLPC  C21219972   5.525   1.676   5.382  0.1373 -0.1230  0.1080
  176SLPC  H12R19973   5.438   1.683   5.449 -0.8688 -0.1608 -1.1698
  176SLPC  C21319974   5.514   1.708   5.254  0.2605 -0.2519 -0.3733
  176SLPC  H13R19975   5.420   1.733   5.202  0.2366 -1.7977 -1.0875
  176SLPC  C21419976   5.624   1.700   5.153 -0.2629  0.2671  0.3362
  176SLPC  H14R19977   5.704   1.633   5.190 -0.9154 -0.8237 -0.1849
  176SLPC  H14S19978   5.668   1.802   5.142  2.3181 -0.8397  0.0329
  176SLPC  C21519979   5.558   1.660   5.021  0.3243 -0.4837 -0.4144
  176SLPC  H15R19980   5.491   1.573   5.034 -1.6068  1.4638  3.4878
  176SLPC  H15S19981   5.641   1.625   4.956  1.7234 -0.4072  1.2742
  176SLPC  C21619982   5.493   1.781   4.948  0.1302 -0.1313 -0.3298
  176SLPC  H16R19983   5.567   1.848   4.900  2.0588 -1.1973  1.0743
  176SLPC  H16S19984   5.433   1.851   5.009  0.6979  0.8098 -0.8394
  176SLPC  C21719985   5.402   1.736   4.837  0.2062 -0.3270  0.2603
  176SLPC  H17R19986   5.314   1.682   4.877 -0.4095 -1.0822 -2.0274
  176SLPC  H17S19987   5.445   1.660   4.768 -0.3650 -1.3367  1.0090
  176SLPC  C21819988   5.360   1.856   4.742 -0.0410 -0.2284 -0.2365
  176SLPC  H18R19989   5.307   1.929   4.806 -0.9124  0.8080 -2.0901
  176SLPC  H18S19990   5.291   1.819   4.663  0.0719  2.9226 -1.8777
  176SLPC  H18T19991   5.454   1.898   4.701 -0.2002 -0.9281 -1.3542
  176SLPC   C3319992   5.548   0.999   5.569 -0.1629  0.5508  0.1497
  176SLPC   H3X19993   5.651   1.006   5.610  0.1859  1.2571 -0.8051
  176SLPC   H3Y19994   5.484   1.051   5.643 -0.6611 -0.5359  0.4941
  176SLPC   C3419995   5.553   1.064   5.430 -1.0397  0.0939  0.4247
  176SLPC   H4X19996   5.607   0.999   5.359 -0.7641  0.7627  0.0172
  176SLPC   H4Y19997   5.616   1.155   5.438  0.9772 -1.1807 -0.7993
  176SLPC   C3519998   5.430   1.121   5.355  0.4552 -0.3649  0.4494
  176SLPC   H5X19999   5.382   1.188   5.430 -2.6764 -0.5973 -1.2740
  176SLPC   H5Y20000   5.357   1.043   5.326  1.4885 -1.2604  0.2141
  176SLPC   C3620001   5.473   1.196   5.227 -0.5302  0.1190 -0.0781
  176SLPC   H6X20002   5.537   1.121   5.178 -2.0232 -1.0611 -0.2444
  176SLPC   H6Y20003   5.526   1.291   5.250 -2.0211  0.5234  1.8201
  176SLPC   C3720004   5.355   1.217   5.141 -0.5797  0.1425  0.1172
  176SLPC   H7X20005   5.305   1.299   5.197 -1.4920 -1.8242  2.2110
  176SLPC   H7Y20006   5.281   1.134   5.141  0.8070 -1.1133  0.9217
  176SLPC   C3820007   5.384   1.269   4.997  0.1872  0.2654  0.2492
  176SLPC   H8X20008   5.431   1.182   4.946  0.3830 -1.2860  2.9721
  176SLPC   H8Y20009   5.470   1.339   5.006  0.8230 -0.4041 -0.5383
  176SLPC   C3920010   5.256   1.316   4.929 -0.2514 -0.2661 -0.8853
  176SLPC   H9X20011   5.212   1.401   4.986  0.9247 -0.3556  0.1703
  176SLPC   H9Y20012   5.181   1.234   4.933 -0.6198  0.1213  0.2136
  176SLPC  C31020013   5.282   1.337   4.776  0.0464 -0.4637 -0.0569
  176SLPC  H10X20014   5.347   1.253   4.742 -0.2645 -0.8511  0.3023
  176SLPC  H10Y20015   5.353   1.420   4.761  1.3352 -1.0365  2.6551
  176SLPC  C31120016   5.153   1.350   4.686  0.7050  0.4556 -0.6862
  176SLPC  H11X20017   5.111   1.451   4.705 -0.3190 -0.4178  1.9444
  176SLPC  H11Y20018   5.079   1.276   4.724  0.7955  1.0525  0.6653
  176SLPC  C31220019   5.178   1.329   4.537 -0.6919 -0.1856 -0.3663
  176SLPC  H12X20020   5.209   1.222   4.528  4.3443  1.3048 -1.7689
  176SLPC  H12Y20021   5.267   1.380   4.497 -0.9391  1.5479  1.2243
  176SLPC  C31320022   5.049   1.346   4.444  0.5467  0.8355  0.3552
  176SLPC  H13X20023   5.010   1.449   4.456 -2.3508 -0.0970 -0.6594
  176SLPC  H13Y20024   4.968   1.279   4.480  0.7009 -0.8988 -2.3563
  176SLPC  C31420025   5.073   1.321   4.300 -0.4336 -0.5520 -0.3083
  176SLPC  H14X20026   5.107   1.217   4.284  1.2306  0.0697 -0.9546
  176SLPC  H14Y20027   5.157   1.386   4.267 -2.0283  0.8390 -1.6855
  176SLPC  C31520028   4.961   1.362   4.201 -0.1050  0.1823  0.4641
  176SLPC  H15X20029   4.916   1.462   4.219 -0.8577 -0.3773  1.7287
  176SLPC  H15Y20030   4.882   1.286   4.216  1.0988 -1.1266  0.2377
  176SLPC  C31620031   5.023   1.356   4.064 -0.5458 -0.0455 -0.0290
  176SLPC  H16X20032   5.090   1.267   4.065 -1.0552 -0.4189  2.0357
  176SLPC  H16Y20033   5.090   1.442   4.044  0.3169 -0.6782  0.1145
  176SLPC  C31720034   4.922   1.351   3.936 -0.4398  0.0624 -0.5613
  176SLPC  H17X20035   4.861   1.443   3.939 -0.0965  0.2308  1.8775
  176SLPC  H17Y20036   4.855   1.268   3.966  1.6875 -1.5096 -0.0477
  176SLPC  C31820037   4.981   1.328   3.797  0.5341 -0.1568  0.1875
  176SLPC  H18X20038   5.055   1.245   3.792 -0.5286 -0.9900 -2.7222
  176SLPC  H18Y20039   5.033   1.422   3.770  2.0023 -1.3878 -1.3754
  176SLPC  H18Z20040   4.895   1.318   3.728 -1.2085 -1.7449  2.4973
  177SLPC     N20041   7.058   3.233   6.151 -1.0343  0.0403  0.2202
  177SLPC   C1320042   7.034   3.377   6.179  0.1588  0.1173 -0.3329
  177SLPC  H13A20043   7.082   3.407   6.271  2.1239  2.2891 -2.0037
  177SLPC  H13B20044   7.069   3.449   6.107 -0.9677  2.3194  1.2815
  177SLPC  H13C20045   6.928   3.387   6.198 -0.4957 -3.2827 -1.7452
  177SLPC   C1420046   7.209   3.214   6.135  0.5141  0.2354  0.5880
  177SLPC  H14A20047   7.248   3.295   6.075 -2.2701  0.1519 -1.4925
  177SLPC  H14B20048   7.262   3.216   6.228  2.6017 -0.5437 -0.5500
  177SLPC  H14C20049   7.235   3.117   6.095 -2.5599  0.0817 -1.2651
  177SLPC   C1520050   6.984   3.191   6.032  0.1867 -0.3237 -0.0522
  177SLPC  H15A20051   7.025   3.243   5.946  1.6858 -0.0130  0.8331
  177SLPC  H15B20052   6.994   3.085   6.016  2.0476  0.1996 -2.8167
  177SLPC  H15C20053   6.877   3.201   6.039  0.0053 -2.4817  0.6219
  177SLPC   C1220054   7.020   3.150   6.276  0.2728 -0.3958 -0.7807
  177SLPC  H12A20055   6.918   3.167   6.307  0.6987  0.6185  0.0810
  177SLPC  H12B20056   7.080   3.193   6.356  0.5110  0.9679 -1.6794
  177SLPC   C1120057   7.040   2.997   6.281 -0.0474  0.5880  0.0338
  177SLPC  H11A20058   6.974   2.961   6.199  1.8617  0.3764 -1.4518
  177SLPC  H11B20059   6.996   2.966   6.378  1.0690  1.9771  1.0128
  177SLPC     P20060   7.214   2.801   6.268  0.4490 -0.3070  0.5546
  177SLPC   O1320061   7.351   2.786   6.319 -0.2158  0.0953 -0.5917
  177SLPC   O1420062   7.112   2.732   6.338 -0.3029  0.5212 -0.3469
  177SLPC   O1220063   7.180   2.957   6.262 -0.2478 -0.7463  0.4932
  177SLPC   O1120064   7.221   2.760   6.115  0.2535  0.2958 -0.2406
  177SLPC    C120065   7.297   2.832   6.018  0.0856 -0.1534 -0.3456
  177SLPC    HA20066   7.330   2.932   6.053 -0.4221 -0.3827  0.8097
  177SLPC    HB20067   7.388   2.768   6.021  0.1009 -0.2856 -2.5858
  177SLPC    C220068   7.228   2.856   5.882  1.0026  0.1307 -0.4049
  177SLPC    HS20069   7.145   2.927   5.903  0.5667  0.3618 -2.7228
  177SLPC   O2120070   7.198   2.724   5.832 -0.0793  0.3353  0.2558
  177SLPC   C2120071   7.063   2.695   5.824  0.2343 -0.2466 -0.0186
  177SLPC   O2220072   6.972   2.761   5.869 -0.8355  0.3135 -0.8844
  177SLPC   C2220073   7.056   2.562   5.743 -0.0324 -0.8853 -0.0446
  177SLPC   H2R20074   7.150   2.511   5.775  1.6341  3.1090  1.7597
  177SLPC   H2S20075   6.972   2.510   5.796 -0.5387 -0.3794 -0.3505
  177SLPC    C320076   7.318   2.924   5.793  0.5645  0.5377  0.1020
  177SLPC    HX20077   7.410   2.863   5.782  0.9031  1.1714 -0.7298
  177SLPC    HY20078   7.352   3.021   5.837 -1.7868  0.5164  2.0929
  177SLPC   O3120079   7.258   2.945   5.661  0.2787  0.1536  0.4602
  177SLPC   C3120080   7.201   3.060   5.624  0.3673 -0.8083  0.3929
  177SLPC   O3220081   7.191   3.157   5.690 -0.1762 -0.0699  0.2960
  177SLPC   C3220082   7.125   3.033   5.493  0.7645  0.0541  0.9989
  177SLPC   H2X20083   7.098   3.128   5.442  0.3948  0.1367  1.3386
  177SLPC   H2Y20084   7.026   2.992   5.523  1.6182 -1.5348  1.7400
  177SLPC   C2320085   7.038   2.581   5.592  0.3185  0.0643 -0.2512
  177SLPC   H3R20086   7.114   2.651   5.552  0.3530 -1.2654 -2.5441
  177SLPC   H3S20087   6.940   2.627   5.565  0.8089  0.6504 -1.0200
  177SLPC   C2420088   7.059   2.445   5.524  0.1281 -0.0212 -0.0489
  177SLPC   H4R20089   6.980   2.375   5.558 -1.5631  1.5224 -0.7766
  177SLPC   H4S20090   7.152   2.394   5.559  0.7910  1.5522  0.5004
  177SLPC   C2520091   7.059   2.455   5.367 -0.4434 -0.1315  0.7250
  177SLPC   H5R20092   7.088   2.357   5.324 -2.3570 -0.6131  0.4955
  177SLPC   H5S20093   7.136   2.529   5.335  1.6690 -1.4645  2.5450
  177SLPC   C2620094   6.919   2.490   5.313 -0.5575  0.6026  0.3291
  177SLPC   H6R20095   6.874   2.582   5.357  0.2821  0.6567  1.0935
  177SLPC   H6S20096   6.844   2.415   5.345 -0.8281  1.2295  1.1785
  177SLPC   C2720097   6.913   2.504   5.163 -0.2967  0.1541 -0.2328
  177SLPC   H7R20098   7.000   2.566   5.134  1.9777 -1.9973  1.7883
  177SLPC   H7S20099   6.811   2.538   5.135 -0.2504 -1.4129 -2.3830
  177SLPC   C2820100   6.936   2.379   5.072  0.5086 -0.5562 -0.0627
  177SLPC   H8R20101   6.897   2.289   5.125  3.7630 -1.8500  0.3029
  177SLPC   H8S20102   7.045   2.353   5.078  0.4534 -0.1818  3.9414
  177SLPC   C2920103   6.878   2.401   4.932  0.0800  0.3073  0.0465
  177SLPC   H9R20104   6.923   2.483   4.876  0.6544 -0.0332  0.0000
  177SLPC  C21020105   6.793   2.316   4.870  0.2183  0.3066 -0.1212
  177SLPC  H10R20106   6.780   2.335   4.763  0.3306 -0.3249 -0.2473
  177SLPC  C21120107   6.741   2.188   4.924 -0.1968  0.0385  0.7360
  177SLPC  H11R20108   6.631   2.200   4.915  0.1155  1.7453 -1.0697
  177SLPC  H11S20109   6.757   2.179   5.034 -0.5952 -0.0876  0.7837
  177SLPC  C21220110   6.794   2.066   4.847 -0.1317 -0.4198 -0.2183
  177SLPC  H12R20111   6.889   2.026   4.885 -1.0273 -2.8007 -0.4004
  177SLPC  C21320112   6.730   1.997   4.751 -0.6977 -0.1781 -0.5362
  177SLPC  H13R20113   6.796   1.923   4.703  0.2729  0.8837 -0.8684
  177SLPC  C21420114   6.603   2.036   4.685  0.3948  0.2644 -0.0632
  177SLPC  H14R20115   6.614   2.032   4.575 -0.6926  1.7169 -0.2310
  177SLPC  H14S20116   6.572   2.140   4.708  0.4835  0.1346  0.6749
  177SLPC  C21520117   6.474   1.951   4.718  0.2941  0.1561  0.0946
  177SLPC  H15R20118   6.381   1.984   4.667  0.2317 -1.2437 -0.7537
  177SLPC  H15S20119   6.468   1.972   4.827  1.8406  1.9441 -0.1551
  177SLPC  C21620120   6.487   1.801   4.678  0.4901 -0.3621  0.1487
  177SLPC  H16R20121   6.446   1.746   4.766 -1.3439 -0.8669 -0.9968
  177SLPC  H16S20122   6.592   1.771   4.659  1.6354  3.4151  0.0982
  177SLPC  C21720123   6.410   1.766   4.548 -0.3619 -0.0950 -0.3885
  177SLPC  H17R20124   6.456   1.813   4.458 -0.5520  0.0681 -0.4004
  177SLPC  H17S20125   6.301   1.785   4.547 -0.1322  1.2597 -2.1433
  177SLPC  C21820126   6.425   1.616   4.513 -0.0471  0.6839  0.6745
  177SLPC  H18R20127   6.531   1.583   4.507 -0.2165  0.2897 -0.1776
  177SLPC  H18S20128   6.373   1.586   4.420 -0.5870  1.3990  0.7376
  177SLPC  H18T20129   6.380   1.555   4.594 -1.6634 -1.2178 -1.6181
  177SLPC   C3320130   7.183   2.920   5.400 -0.2223 -0.4250 -0.1180
  177SLPC   H3X20131   7.116   2.831   5.395 -0.1305 -0.4805 -0.3558
  177SLPC   H3Y20132   7.288   2.896   5.431 -0.4629 -2.0436 -0.4747
  177SLPC   C3420133   7.192   2.965   5.255 -0.4852  1.0967  0.6499
  177SLPC   H4X20134   7.266   3.048   5.245 -0.5185  0.8967 -1.3731
  177SLPC   H4Y20135   7.103   3.017   5.214 -0.2020 -1.1430 -3.0071
  177SLPC   C3520136   7.230   2.841   5.178  0.5163 -0.3168  0.3630
  177SLPC   H5X20137   7.147   2.768   5.174 -1.4029  1.8819 -0.7792
  177SLPC   H5Y20138   7.306   2.778   5.230  1.2050 -0.1667 -0.4517
  177SLPC   C3620139   7.285   2.871   5.039 -0.4683 -0.1012  0.1811
  177SLPC   H6X20140   7.382   2.922   5.055 -0.4080 -0.7242  1.8632
  177SLPC   H6Y20141   7.212   2.935   4.984 -1.0726 -1.0844 -0.1690
  177SLPC   C3720142   7.320   2.745   4.948 -0.8772 -0.3866  0.2737
  177SLPC   H7X20143   7.413   2.697   4.985  0.1138  1.6542  0.5134
  177SLPC   H7Y20144   7.346   2.788   4.849  2.0075 -3.3705 -0.3401
  177SLPC   C3820145   7.218   2.639   4.932  0.0746 -0.1389 -0.3057
  177SLPC   H8X20146   7.118   2.681   4.908  0.9596  2.4123  0.2703
  177SLPC   H8Y20147   7.205   2.592   5.032  0.7800  0.6247  0.1545
  177SLPC   C3920148   7.252   2.529   4.836 -0.5899  0.2331  0.3621
  177SLPC   H9X20149   7.161   2.468   4.817 -0.8723 -0.3368  3.2580
  177SLPC   H9Y20150   7.333   2.462   4.873  0.3406  1.7779  1.1595
  177SLPC  C31020151   7.293   2.583   4.696 -0.5764  0.6108 -0.0777
  177SLPC  H10X20152   7.255   2.685   4.676  1.8115  1.3320 -1.1929
  177SLPC  H10Y20153   7.233   2.515   4.632 -0.6587  2.3050 -1.8432
  177SLPC  C31120154   7.446   2.574   4.675  0.5043 -0.3590 -0.1157
  177SLPC  H11X20155   7.485   2.470   4.681 -0.0126 -0.5773 -0.4626
  177SLPC  H11Y20156   7.489   2.636   4.756 -1.7706 -2.2280  2.6098
  177SLPC  C31220157   7.499   2.622   4.540  0.3029 -0.2253  0.2672
  177SLPC  H12X20158   7.609   2.618   4.553  0.2542 -3.6217  0.1001
  177SLPC  H12Y20159   7.467   2.727   4.524 -0.7938 -0.9011 -2.1755
  177SLPC  C31320160   7.459   2.527   4.432  0.3639 -0.3345 -0.4097
  177SLPC  H13X20161   7.350   2.506   4.427  0.4941 -0.8728 -0.9301
  177SLPC  H13Y20162   7.525   2.438   4.433  3.2684  1.7106 -1.0601
  177SLPC  C31420163   7.485   2.587   4.289  0.0391 -0.3647  0.0251
  177SLPC  H14X20164   7.594   2.583   4.269  0.0076  0.4026 -0.3434
  177SLPC  H14Y20165   7.452   2.693   4.283  2.8029  0.5930  1.2437
  177SLPC  C31520166   7.418   2.496   4.185 -0.4991 -0.3653  0.2027
  177SLPC  H15X20167   7.311   2.497   4.215 -0.9062 -1.1798 -1.1747
  177SLPC  H15Y20168   7.446   2.389   4.193  0.1801 -0.0483  2.6511
  177SLPC  C31620169   7.421   2.550   4.039  0.1368 -0.2431  0.0629
  177SLPC  H16X20170   7.520   2.537   3.991 -0.5536 -1.7127 -1.0488
  177SLPC  H16Y20171   7.389   2.656   4.036  0.1332 -0.1976  1.6252
  177SLPC  C31720172   7.322   2.476   3.942 -1.0858 -0.6828 -0.2427
  177SLPC  H17X20173   7.213   2.481   3.966 -0.9697 -0.2947  0.2186
  177SLPC  H17Y20174   7.356   2.370   3.939  1.4466  0.0672  0.8535
  177SLPC  C31820175   7.348   2.531   3.805 -0.4840 -0.2265  0.5953
  177SLPC  H18X20176   7.275   2.486   3.735  0.0442 -3.5070  2.0485
  177SLPC  H18Y20177   7.454   2.514   3.774 -0.9818 -0.9152 -0.7163
  177SLPC  H18Z20178   7.334   2.641   3.799 -2.5682 -0.4553  1.1817
  178SLPC     N20179   1.589   6.717   6.404  0.7389  0.2878  0.6085
  178SLPC   C1320180   1.503   6.698   6.518 -0.6437 -0.4224 -0.0247
  178SLPC  H13A20181   1.432   6.618   6.501 -0.9805 -0.6664  2.2684
  178SLPC  H13B20182   1.553   6.673   6.611 -2.9639 -1.4264  0.9959
  178SLPC  H13C20183   1.446   6.788   6.533 -0.0524 -0.0147 -0.2293
  178SLPC   C1420184   1.633   6.586   6.348 -0.2612  0.2459 -0.0589
  178SLPC  H14A20185   1.654   6.517   6.429  0.6785  1.2692  0.5784
  178SLPC  H14B20186   1.558   6.551   6.278  0.8502  0.4483 -1.3793
  178SLPC  H14C20187   1.724   6.590   6.290 -1.4269  0.6900 -1.9045
  178SLPC   C1520188   1.725   6.795   6.436 -0.2964  0.0662  0.4265
  178SLPC  H15A20189   1.795   6.732   6.489  0.1403  0.4304  0.2837
  178SLPC  H15B20190   1.775   6.821   6.344  0.5428 -0.0711  0.8410
  178SLPC  H15C20191   1.701   6.883   6.494  1.9458  0.4251  0.8531
  178SLPC   C1220192   1.512   6.788   6.292 -0.0387 -0.1225  0.4071
  178SLPC  H12A20193   1.496   6.893   6.310 -1.9225  0.0173 -1.8222
  178SLPC  H12B20194   1.412   6.749   6.294 -0.8989  1.8771 -1.6381
  178SLPC   C1120195   1.564   6.793   6.155 -0.1994  0.7133  0.3082
  178SLPC  H11A20196   1.495   6.836   6.078 -0.9382 -0.5905  0.2315
  178SLPC  H11B20197   1.600   6.694   6.120 -0.4044  0.2344  1.4541
  178SLPC     P20198   1.670   7.032   6.134  0.3676 -0.1201  0.0974
  178SLPC   O1320199   1.559   7.091   6.212 -0.2530  0.1309  0.5134
  178SLPC   O1420200   1.803   7.092   6.161  0.9932  0.2141 -0.5661
  178SLPC   O1220201   1.683   6.876   6.163  0.4466  0.2974 -0.4676
  178SLPC   O1120202   1.652   7.040   5.981 -0.3985  0.3603  0.4277
  178SLPC    C120203   1.756   7.006   5.889 -0.4115 -0.2390  0.3220
  178SLPC    HA20204   1.838   6.958   5.947 -0.5669 -0.4887  0.3314
  178SLPC    HB20205   1.716   6.940   5.810 -2.5523  1.5822 -0.1541
  178SLPC    C220206   1.824   7.125   5.820 -0.2309 -0.4854  0.1823
  178SLPC    HS20207   1.851   7.198   5.900 -0.4186  0.8231 -0.9327
  178SLPC   O2120208   1.733   7.186   5.735 -0.2016 -0.5515 -0.0628
  178SLPC   C2120209   1.770   7.304   5.676 -0.3421 -0.6990 -0.6414
  178SLPC   O2220210   1.871   7.360   5.694 -0.6752 -0.3281  0.1218
  178SLPC   C2220211   1.650   7.344   5.592 -0.0061  0.9276 -0.4362
  178SLPC   H2R20212   1.559   7.312   5.647 -0.3890 -0.0037 -1.5836
  178SLPC   H2S20213   1.653   7.455   5.581  1.5400  0.8696 -0.6283
  178SLPC    C320214   1.955   7.081   5.749  0.0517 -0.3644 -0.6063
  178SLPC    HX20215   2.009   7.029   5.831  0.0905 -0.0157 -0.4095
  178SLPC    HY20216   2.028   7.162   5.725 -0.2587 -0.0731 -0.5722
  178SLPC   O3120217   1.922   6.988   5.643 -0.4666 -0.1545 -0.3455
  178SLPC   C3120218   1.965   7.023   5.520  0.1103 -0.1734  0.2666
  178SLPC   O3220219   2.039   7.118   5.491 -0.2354 -0.0077  0.0039
  178SLPC   C3220220   1.907   6.902   5.426 -0.5208 -0.9195 -1.1421
  178SLPC   H2X20221   1.797   6.911   5.420 -0.4362 -0.0958 -1.5758
  178SLPC   H2Y20222   1.937   6.811   5.481  0.8451  0.3958  0.3426
  178SLPC   C2320223   1.649   7.278   5.451 -0.0028 -0.0107  0.1177
  178SLPC   H3R20224   1.557   7.307   5.396  1.3864  0.5084 -1.9610
  178SLPC   H3S20225   1.647   7.168   5.464 -0.1417 -0.1524 -1.0607
  178SLPC   C2420226   1.772   7.306   5.367  0.5088 -0.0522 -0.4406
  178SLPC   H4R20227   1.778   7.251   5.270 -0.6059 -0.8341 -0.0757
  178SLPC   H4S20228   1.863   7.293   5.428 -0.2317 -1.1394  0.4372
  178SLPC   C2520229   1.778   7.453   5.312 -0.2408  0.6601  1.0079
  178SLPC   H5R20230   1.765   7.521   5.398 -1.9441  2.1506 -0.3967
  178SLPC   H5S20231   1.692   7.473   5.246  0.4494 -1.1520 -0.4958
  178SLPC   C2620232   1.917   7.478   5.249  0.2233 -0.0207 -0.3067
  178SLPC   H6R20233   1.924   7.581   5.208  1.5970  0.0805  0.1708
  178SLPC   H6S20234   1.927   7.423   5.153 -2.4253 -0.2141 -0.5254
  178SLPC   C2720235   2.048   7.459   5.338  0.2092  0.6007  0.1325
  178SLPC   H7R20236   2.039   7.354   5.374  1.3713  0.1182 -0.9420
  178SLPC   H7S20237   2.043   7.527   5.426  2.3190 -0.8300  1.4117
  178SLPC   C2820238   2.180   7.472   5.264 -0.3085  0.5127 -0.3425
  178SLPC   H8R20239   2.254   7.518   5.334 -2.2728 -0.7167  2.6598
  178SLPC   H8S20240   2.161   7.548   5.185  1.2214  0.0393 -1.1857
  178SLPC   C2920241   2.230   7.342   5.208 -0.7676  0.9840 -0.3503
  178SLPC   H9R20242   2.230   7.265   5.287  0.0149  2.1810  0.8424
  178SLPC  C21020243   2.254   7.319   5.082  0.2070 -0.0486  1.3706
  178SLPC  H10R20244   2.286   7.216   5.063  2.1788  0.5984  1.1426
  178SLPC  C21120245   2.232   7.412   4.962  0.1642  0.3934  0.1607
  178SLPC  H11R20246   2.329   7.444   4.917 -0.2229  1.5669  0.1257
  178SLPC  H11S20247   2.193   7.513   4.987  1.1739  0.6166  0.8470
  178SLPC  C21220248   2.131   7.353   4.869 -0.3011 -0.3987  0.0047
  178SLPC  H12R20249   2.034   7.336   4.919  0.0935 -1.6322  0.3693
  178SLPC  C21320250   2.144   7.315   4.739  0.5013 -0.1129  0.3579
  178SLPC  H13R20251   2.053   7.275   4.692  2.5248 -0.7336 -3.1955
  178SLPC  C21420252   2.275   7.332   4.662 -0.0363 -0.0896 -0.1653
  178SLPC  H14R20253   2.315   7.433   4.681 -3.1333  1.5983 -2.2717
  178SLPC  H14S20254   2.268   7.323   4.551  0.0684 -0.2537 -0.1596
  178SLPC  C21520255   2.381   7.229   4.703  0.2397 -0.2973  0.7907
  178SLPC  H15R20256   2.348   7.123   4.704  3.0138 -1.2078  1.6248
  178SLPC  H15S20257   2.397   7.251   4.811 -0.4429 -0.6149  0.9557
  178SLPC  C21620258   2.514   7.227   4.621 -0.3972  0.2372  0.2326
  178SLPC  H16R20259   2.569   7.318   4.654 -2.0952  0.7879  1.6548
  178SLPC  H16S20260   2.482   7.236   4.514  0.2908 -2.7808 -0.2579
  178SLPC  C21720261   2.597   7.094   4.651  0.0276 -0.2477  0.0020
  178SLPC  H17R20262   2.531   7.012   4.615 -0.6111 -0.0955  0.8089
  178SLPC  H17S20263   2.595   7.100   4.762  4.0167 -0.9883  0.1729
  178SLPC  C21820264   2.738   7.104   4.603  0.1070  0.3136  0.2663
  178SLPC  H18R20265   2.769   7.211   4.610 -1.2094  0.7939 -0.9832
  178SLPC  H18S20266   2.742   7.073   4.497 -0.7627  1.3028 -0.0716
  178SLPC  H18T20267   2.815   7.039   4.649 -1.2332 -2.1222 -0.8657
  178SLPC   C3320268   1.957   6.897   5.282  0.8523 -0.2747  0.4768
  178SLPC   H3X20269   1.912   6.818   5.217  0.2828 -0.2865  0.8819
  178SLPC   H3Y20270   2.067   6.881   5.283  1.0986  1.4277  1.7627
  178SLPC   C3420271   1.929   7.024   5.191  0.0127  0.6730  0.6219
  178SLPC   H4X20272   1.980   7.115   5.229  0.9897  1.1723 -1.7807
  178SLPC   H4Y20273   1.820   7.046   5.193 -0.0878  0.5007 -1.4325
  178SLPC   C3520274   1.966   7.016   5.038 -1.0949 -0.1625 -0.3945
  178SLPC   H5X20275   1.971   7.113   4.986 -1.4457  0.0323 -0.0658
  178SLPC   H5Y20276   1.900   6.944   4.984  1.7699 -1.9007 -1.7241
  178SLPC   C3620277   2.104   6.942   5.025 -0.4549  0.0229  0.1888
  178SLPC   H6X20278   2.111   6.838   5.063  1.7067 -0.8494 -2.4080
  178SLPC   H6Y20279   2.175   6.995   5.091  1.4533 -0.9596 -1.0313
  178SLPC   C3720280   2.175   6.932   4.890 -0.3353  0.7882  0.0512
  178SLPC   H7X20281   2.286   6.932   4.895 -0.4487  0.4870  4.7234
  178SLPC   H7Y20282   2.152   7.025   4.833 -0.8209  0.9776  0.5399
  178SLPC   C3820283   2.134   6.809   4.803 -0.1409 -0.8289  0.3866
  178SLPC   H8X20284   2.028   6.832   4.777 -0.4192 -0.5286  1.7327
  178SLPC   H8Y20285   2.145   6.722   4.871 -1.0317 -0.8726  0.4791
  178SLPC   C3920286   2.221   6.779   4.687  0.7814 -0.1765  0.5882
  178SLPC   H9X20287   2.230   6.876   4.633 -2.4524 -0.1606 -0.0245
  178SLPC   H9Y20288   2.169   6.700   4.629  1.8731  1.8522 -3.3918
  178SLPC  C31020289   2.361   6.713   4.710  0.1668  0.2260  0.1390
  178SLPC  H10X20290   2.374   6.614   4.758 -0.6664 -0.7852 -1.7051
  178SLPC  H10Y20291   2.409   6.779   4.787 -0.7014 -0.6540  1.4606
  178SLPC  C31120292   2.437   6.707   4.576 -0.1436  0.4953  0.0254
  178SLPC  H11X20293   2.413   6.801   4.521 -0.9202  1.0489  1.2894
  178SLPC  H11Y20294   2.414   6.621   4.511 -0.6915 -0.2516  1.1865
  178SLPC  C31220295   2.599   6.708   4.586 -0.6254 -0.3940 -0.5620
  178SLPC  H12X20296   2.633   6.629   4.656 -0.5948 -0.7181 -0.9411
  178SLPC  H12Y20297   2.635   6.800   4.636 -0.7513 -0.8174  0.3160
  178SLPC  C31320298   2.675   6.702   4.455  0.0845 -0.6611 -0.0806
  178SLPC  H13X20299   2.650   6.611   4.397 -3.7590 -0.4011  1.0556
  178SLPC  H13Y20300   2.785   6.713   4.467  0.1768 -1.0235 -0.5810
  178SLPC  C31420301   2.635   6.825   4.370  0.6344  0.6024 -0.2728
  178SLPC  H14X20302   2.593   6.914   4.422 -2.9837 -1.0172 -0.2722
  178SLPC  H14Y20303   2.549   6.800   4.304  0.6274 -2.1456  0.7308
  178SLPC  C31520304   2.737   6.880   4.268 -0.1729  0.1650 -0.3021
  178SLPC  H15X20305   2.762   6.808   4.188 -1.4818 -0.0600 -0.5279
  178SLPC  H15Y20306   2.834   6.895   4.319 -0.3185 -1.4974  0.4927
  178SLPC  C31620307   2.695   7.015   4.199 -0.3581  0.3273  0.4849
  178SLPC  H16X20308   2.701   7.095   4.276  2.0100  2.3117 -1.6621
  178SLPC  H16Y20309   2.590   7.018   4.163 -0.1419  0.1025 -0.1687
  178SLPC  C31720310   2.795   7.065   4.094  0.5098 -0.7899 -0.1929
  178SLPC  H17X20311   2.896   7.079   4.138  0.4189  1.8513 -0.7793
  178SLPC  H17Y20312   2.770   7.170   4.069 -0.5859 -0.7674  0.9895
  178SLPC  C31820313   2.804   6.977   3.964 -0.2769 -0.5294 -0.2924
  178SLPC  H18X20314   2.812   6.870   3.995 -1.6757 -0.2129  1.2383
  178SLPC  H18Y20315   2.876   7.018   3.890 -0.9340  0.9559 -0.1332
  178SLPC  H18Z20316   2.709   6.991   3.908  0.7900 -0.7874 -2.1979
  179SLPC     N20317   3.066   2.462   2.198  0.2936 -0.0015 -0.7635
  179SLPC   C1320318   3.108   2.334   2.141  0.3647 -0.0215 -0.7345
  179SLPC  H13A20319   3.151   2.273   2.220 -0.8052  0.0702 -0.0322
  179SLPC  H13B20320   3.022   2.283   2.101 -0.5783 -0.9371  2.3565
  179SLPC  H13C20321   3.188   2.340   2.068  0.6776 -0.2184 -0.4110
  179SLPC   C1420322   2.984   2.531   2.099  0.3102 -0.3293  0.3939
  179SLPC  H14A20323   3.021   2.541   1.998 -3.7382  0.1556 -1.1702
  179SLPC  H14B20324   2.890   2.479   2.085 -0.0246  0.0364  1.2407
  179SLPC  H14C20325   2.963   2.632   2.132 -0.1627 -0.9487  2.0106
  179SLPC   C1520326   3.178   2.545   2.239 -0.3427 -0.1004 -0.5909
  179SLPC  H15A20327   3.231   2.557   2.146  1.9698  0.2050  0.7335
  179SLPC  H15B20328   3.150   2.642   2.277  0.8227  0.4335 -1.0941
  179SLPC  H15C20329   3.252   2.505   2.306 -0.6668  0.4902  0.1242
  179SLPC   C1220330   2.971   2.435   2.318 -0.1870 -0.1422  0.2160
  179SLPC  H12A20331   2.899   2.365   2.279  0.3321  0.0271 -1.0722
  179SLPC  H12B20332   2.926   2.529   2.344  2.1468  1.0160  0.2302
  179SLPC   C1120333   3.039   2.387   2.446  0.5999  0.3160  0.6487
  179SLPC  H11A20334   3.125   2.451   2.477  0.4739  0.5309  0.5521
  179SLPC  H11B20335   3.089   2.287   2.447 -1.1134 -0.5537  0.5664
  179SLPC     P20336   2.827   2.310   2.578  0.2826  0.3371  0.1595
  179SLPC   O1320337   2.703   2.392   2.579 -0.0900 -0.5630 -0.2050
  179SLPC   O1420338   2.839   2.195   2.489 -0.2142 -0.3883 -0.2279
  179SLPC   O1220339   2.945   2.406   2.552 -0.1671 -0.6127  0.1594
  179SLPC   O1120340   2.851   2.263   2.732  0.0703 -0.3745 -0.1372
  179SLPC    C120341   2.953   2.311   2.821 -0.6802 -0.2822 -0.3158
  179SLPC    HA20342   3.001   2.221   2.865 -0.9243  0.1806  0.9160
  179SLPC    HB20343   3.038   2.366   2.777 -0.6231  0.8995  1.2008
  179SLPC    C220344   2.884   2.397   2.938 -0.5062 -0.7254  0.2126
  179SLPC    HS20345   2.888   2.505   2.915  0.8738 -0.7960  0.0692
  179SLPC   O2120346   2.963   2.374   3.056 -0.2066  0.2495 -0.0279
  179SLPC   C2120347   3.080   2.414   3.051  0.8587 -0.4140 -0.0120
  179SLPC   O2220348   3.127   2.488   2.960  0.2189 -0.0445  0.2003
  179SLPC   C2220349   3.148   2.366   3.183 -0.1009 -0.1650 -0.0103
  179SLPC   H2R20350   3.070   2.369   3.262  0.2363 -0.0070  0.3210
  179SLPC   H2S20351   3.189   2.265   3.165  0.9888  0.1934  0.3860
  179SLPC    C320352   2.738   2.356   2.963 -0.6755  0.6325  0.4926
  179SLPC    HX20353   2.740   2.247   2.986  1.9224  1.0451  2.4099
  179SLPC    HY20354   2.675   2.363   2.872  2.2685  0.3430 -1.6368
  179SLPC   O3120355   2.683   2.420   3.079 -0.2420 -0.2733 -0.2307
  179SLPC   C3120356   2.596   2.514   3.057  0.0160 -0.3731 -0.5127
  179SLPC   O3220357   2.540   2.543   2.952 -0.1810  0.0635 -0.2450
  179SLPC   C3220358   2.571   2.595   3.187 -0.5779 -0.7646 -0.2563
  179SLPC   H2X20359   2.659   2.582   3.254 -1.2436  1.1566  1.0442
  179SLPC   H2Y20360   2.483   2.545   3.234 -1.1312 -0.1630 -0.6463
  179SLPC   C2320361   3.267   2.452   3.203 -0.5089  0.6649 -0.1528
  179SLPC   H3R20362   3.243   2.560   3.209  0.2979  0.9286 -1.5392
  179SLPC   H3S20363   3.336   2.428   3.119 -1.7867 -1.2948 -0.6704
  179SLPC   C2420364   3.348   2.403   3.323  0.1218 -0.0951 -0.5618
  179SLPC   H4R20365   3.438   2.464   3.346 -1.2755  1.4794  0.9590
  179SLPC   H4S20366   3.380   2.297   3.312  1.2145  0.2556 -0.8333
  179SLPC   C2520367   3.271   2.420   3.456 -0.1391  0.3029  0.5271
  179SLPC   H5R20368   3.177   2.360   3.445 -0.3998  0.6907  0.6499
  179SLPC   H5S20369   3.247   2.527   3.470  0.8651  0.6722 -0.5012
  179SLPC   C2620370   3.351   2.378   3.583  0.1695  0.3511 -0.1441
  179SLPC   H6R20371   3.439   2.445   3.587  0.8917 -0.5538 -0.6502
  179SLPC   H6S20372   3.391   2.277   3.558 -1.2395 -0.4446  0.7412
  179SLPC   C2720373   3.272   2.391   3.714 -0.0639 -0.3282  0.2754
  179SLPC   H7R20374   3.210   2.300   3.726 -0.6526  0.0665  0.2189
  179SLPC   H7S20375   3.205   2.479   3.706  0.5177  0.0726 -0.2972
  179SLPC   C2820376   3.367   2.414   3.831  0.6430  0.8378  1.3619
  179SLPC   H8R20377   3.311   2.466   3.912 -0.3917  2.0716 -0.1167
  179SLPC   H8S20378   3.446   2.484   3.796  0.2573 -0.2558 -1.8841
  179SLPC   C2920379   3.431   2.288   3.879 -0.2531  0.0267 -0.4873
  179SLPC   H9R20380   3.500   2.245   3.805  1.6026 -0.7986  1.6944
  179SLPC  C21020381   3.424   2.234   4.002 -0.6355 -0.2132 -0.6910
  179SLPC  H10R20382   3.480   2.140   4.018  0.1147  0.0005 -2.0125
  179SLPC  C21120383   3.344   2.275   4.125 -0.2766 -0.1752 -0.1315
  179SLPC  H11R20384   3.311   2.381   4.132  1.7032  0.4028  0.5501
  179SLPC  H11S20385   3.412   2.255   4.210  1.0917  0.0975 -1.1590
  179SLPC  C21220386   3.219   2.193   4.139 -0.3447 -0.3432  0.0421
  179SLPC  H12R20387   3.156   2.192   4.049  0.5536  0.2782 -0.5997
  179SLPC  C21320388   3.178   2.111   4.235  0.0158  0.0284  0.4840
  179SLPC  H13R20389   3.081   2.061   4.219 -2.0663  3.6766  1.0018
  179SLPC  C21420390   3.249   2.078   4.363  0.1287 -0.3515 -0.6762
  179SLPC  H14R20391   3.175   2.066   4.444  0.9142 -1.5729 -0.1205
  179SLPC  H14S20392   3.325   2.155   4.387  1.1114 -2.1081  2.1143
  179SLPC  C21520393   3.317   1.945   4.367  0.2769 -0.5290  0.9593
  179SLPC  H15R20394   3.256   1.864   4.323 -0.3058 -1.4475  3.4094
  179SLPC  H15S20395   3.344   1.927   4.474  1.2040 -1.1935  0.6244
  179SLPC  C21620396   3.446   1.939   4.276 -0.2020  0.8798  0.3701
  179SLPC  H16R20397   3.531   1.998   4.318  1.2579 -2.4985  2.3537
  179SLPC  H16S20398   3.414   1.984   4.180  0.4941 -0.0623 -0.3037
  179SLPC  C21720399   3.511   1.802   4.248 -0.9224  0.1590 -0.3023
  179SLPC  H17R20400   3.432   1.749   4.192 -2.0093  0.3040  1.0496
  179SLPC  H17S20401   3.520   1.749   4.345  1.2045 -3.8687 -2.5533
  179SLPC  C21820402   3.636   1.811   4.162 -0.4896 -0.6291 -0.3366
  179SLPC  H18R20403   3.604   1.855   4.065  0.0361  0.8863  0.1621
  179SLPC  H18S20404   3.673   1.711   4.131 -0.6006 -0.3867 -1.2633
  179SLPC  H18T20405   3.708   1.886   4.200 -0.1376 -2.0994  1.9625
  179SLPC   C3320406   2.541   2.744   3.165  0.4755  0.2831 -0.3407
  179SLPC   H3X20407   2.455   2.752   3.095  1.5195 -1.6040 -1.8824
  179SLPC   H3Y20408   2.622   2.801   3.114  0.2421  0.5629 -0.3979
  179SLPC   C3420409   2.491   2.822   3.289  0.0006 -0.1728  0.3483
  179SLPC   H4X20410   2.551   2.807   3.382  2.5928  0.9109 -1.1191
  179SLPC   H4Y20411   2.390   2.781   3.311  0.1992 -0.9661 -0.1977
  179SLPC   C3520412   2.477   2.971   3.261  0.9424  0.2485 -0.2610
  179SLPC   H5X20413   2.574   3.004   3.217  0.9535 -0.3769 -0.7045
  179SLPC   H5Y20414   2.393   2.988   3.190 -0.3032 -2.5992  0.4610
  179SLPC   C3620415   2.426   3.070   3.371 -0.0369  0.3612  0.4101
  179SLPC   H6X20416   2.320   3.041   3.391  0.9544 -2.8190  1.3167
  179SLPC   H6Y20417   2.429   3.174   3.332 -1.3187  0.2412 -0.0405
  179SLPC   C3720418   2.502   3.060   3.502  0.7645  0.6697  0.3142
  179SLPC   H7X20419   2.609   3.059   3.474  0.0888 -0.9215 -2.3862
  179SLPC   H7Y20420   2.484   2.960   3.547 -3.3387  2.1207  2.1439
  179SLPC   C3820421   2.458   3.153   3.614 -0.1333 -0.1439  0.0209
  179SLPC   H8X20422   2.351   3.128   3.631 -0.2243  1.2933  1.7435
  179SLPC   H8Y20423   2.453   3.260   3.584 -1.0070  1.2561  4.7338
  179SLPC   C3920424   2.548   3.143   3.737  0.4696 -0.0366 -0.2137
  179SLPC   H9X20425   2.639   3.202   3.717  0.3205  0.0612 -0.6010
  179SLPC   H9Y20426   2.572   3.037   3.762 -0.5291  0.6865  4.1623
  179SLPC  C31020427   2.493   3.210   3.855  0.1614 -0.4773  0.5223
  179SLPC  H10X20428   2.392   3.177   3.887  0.4672 -0.5999  1.3526
  179SLPC  H10Y20429   2.471   3.316   3.828  0.2390 -0.5831  0.0252
  179SLPC  C31120430   2.597   3.232   3.967  0.1431 -0.1214  0.1849
  179SLPC  H11X20431   2.540   3.294   4.040  1.9631  1.2683  0.4597
  179SLPC  H11Y20432   2.686   3.294   3.942 -0.1255  1.0884  2.1407
  179SLPC  C31220433   2.639   3.100   4.035 -0.1894  0.3490  0.6477
  179SLPC  H12X20434   2.679   3.025   3.963 -0.5418  0.2941  0.5071
  179SLPC  H12Y20435   2.548   3.047   4.070  1.2743 -0.9786  2.5755
  179SLPC  C31320436   2.739   3.114   4.153 -0.1527  0.6693 -0.0542
  179SLPC  H13X20437   2.830   3.169   4.121  0.6570 -0.2108  0.6952
  179SLPC  H13Y20438   2.766   3.006   4.157 -0.4779  0.6260  1.2085
  179SLPC  C31420439   2.686   3.163   4.286  0.3178 -0.0982 -0.8051
  179SLPC  H14X20440   2.582   3.126   4.292 -0.0294  1.2811  2.9691
  179SLPC  H14Y20441   2.679   3.273   4.280 -3.5726 -0.1451  1.5202
  179SLPC  C31520442   2.758   3.111   4.408 -0.0618 -0.3789 -0.4045
  179SLPC  H15X20443   2.717   3.160   4.498 -0.7030 -2.3633  0.4172
  179SLPC  H15Y20444   2.868   3.127   4.399 -0.2215 -0.4793 -3.0279
  179SLPC  C31620445   2.764   2.961   4.435  0.3130 -0.4346  0.0736
  179SLPC  H16X20446   2.785   2.900   4.345 -1.3386 -1.0092  0.0671
  179SLPC  H16Y20447   2.675   2.909   4.478  0.4242  0.1544  1.0355
  179SLPC  C31720448   2.879   2.925   4.537 -0.5557  0.5908  0.0339
  179SLPC  H17X20449   2.866   2.977   4.634  1.7041  1.4665 -0.1201
  179SLPC  H17Y20450   2.974   2.959   4.490 -1.2241  2.1404 -0.2155
  179SLPC  C31820451   2.903   2.773   4.560 -0.1246  0.5048 -0.6992
  179SLPC  H18X20452   2.961   2.721   4.481 -0.1169  0.4685 -0.6692
  179SLPC  H18Y20453   2.806   2.721   4.577 -1.2806  2.1973 -1.9573
  179SLPC  H18Z20454   2.957   2.765   4.657  0.6145  3.3113 -0.8379
  180SLPC     N20455   2.795   3.558   2.088 -0.5055  0.6901  0.6423
  180SLPC   C1320456   2.776   3.542   2.234  0.1104  0.1149  0.2189
  180SLPC  H13A20457   2.829   3.460   2.278  2.0975  1.9093  1.2761
  180SLPC  H13B20458   2.795   3.632   2.291  0.8707 -0.1762  0.4290
  180SLPC  H13C20459   2.671   3.523   2.245  0.3032 -0.0332  1.9423
  180SLPC   C1420460   2.800   3.419   2.038  0.2176  0.4311  0.5192
  180SLPC  H14A20461   2.803   3.417   1.930  2.1488  0.7158  0.5541
  180SLPC  H14B20462   2.889   3.367   2.071  0.2037 -1.5989 -2.4777
  180SLPC  H14C20463   2.707   3.373   2.066 -0.4144  1.5155  0.2250
  180SLPC   C1520464   2.929   3.619   2.061  0.0324  0.0965 -0.0144
  180SLPC  H15A20465   3.007   3.556   2.101 -0.2526  0.7192  1.5246
  180SLPC  H15B20466   2.952   3.626   1.955  0.8443  1.5195  0.2439
  180SLPC  H15C20467   2.942   3.710   2.117  1.8804  0.4825 -1.0391
  180SLPC   C1220468   2.681   3.630   2.018  0.8032  0.3275  0.2140
  180SLPC  H12A20469   2.689   3.636   1.911  2.2540 -1.4760  0.2069
  180SLPC  H12B20470   2.673   3.734   2.046  0.7744 -0.0393  1.6248
  180SLPC   C1120471   2.537   3.584   2.046 -0.2149 -0.3419 -0.9420
  180SLPC  H11A20472   2.536   3.473   2.040 -0.6678 -0.3487 -0.7466
  180SLPC  H11B20473   2.473   3.625   1.964  0.5765 -1.1633 -1.9896
  180SLPC     P20474   2.342   3.655   2.202 -0.3476 -0.6374 -0.0523
  180SLPC   O1320475   2.287   3.742   2.097 -0.3010 -0.5135  0.0632
  180SLPC   O1420476   2.282   3.522   2.214  0.2895  0.1694 -0.7761
  180SLPC   O1220477   2.500   3.642   2.164  0.1479 -0.2984 -0.2573
  180SLPC   O1120478   2.348   3.743   2.330 -0.1112  0.1832  0.2306
  180SLPC    C120479   2.334   3.681   2.457 -0.2890 -0.6266  0.3244
  180SLPC    HA20480   2.403   3.594   2.468  1.8771  0.7371 -1.7919
  180SLPC    HB20481   2.374   3.749   2.535 -0.0143  0.1487 -0.4720
  180SLPC    C220482   2.186   3.658   2.502  0.0983 -0.1054  0.4321
  180SLPC    HS20483   2.147   3.577   2.437  1.0677 -2.1036  2.2902
  180SLPC   O2120484   2.114   3.785   2.508 -0.2553  0.6330 -0.5851
  180SLPC   C2120485   1.979   3.767   2.509 -0.3732  0.2285 -0.6763
  180SLPC   O2220486   1.930   3.659   2.498 -0.2379 -0.1879 -0.3998
  180SLPC   C2220487   1.915   3.899   2.545  0.3586  1.2452  0.0734
  180SLPC   H2R20488   1.986   3.947   2.616  0.0812  2.7535 -0.6396
  180SLPC   H2S20489   1.932   3.964   2.457 -0.1207 -1.2917 -1.9320
  180SLPC    C320490   2.183   3.586   2.643  0.4772  0.7450  0.9026
  180SLPC    HX20491   2.246   3.496   2.629  1.2239  1.3439  0.3152
  180SLPC    HY20492   2.087   3.540   2.672  0.6981 -1.0877 -1.1816
  180SLPC   O3120493   2.232   3.675   2.742  0.5253 -0.8385 -0.7255
  180SLPC   C3120494   2.144   3.733   2.827 -1.0358 -0.1925 -0.4363
  180SLPC   O3220495   2.025   3.724   2.810  0.3578  0.0250  0.2370
  180SLPC   C3220496   2.216   3.805   2.940  0.0008  0.1941 -0.2633
  180SLPC   H2X20497   2.316   3.829   2.898  0.1950  0.7966  0.5315
  180SLPC   H2Y20498   2.231   3.727   3.018  0.3218  0.0490 -0.4675
  180SLPC   C2320499   1.774   3.877   2.599  0.0466  0.7768  0.3107
  180SLPC   H3R20500   1.763   3.781   2.653 -3.1328  0.9722  0.0864
  180SLPC   H3S20501   1.699   3.891   2.518 -0.6782 -1.0359  0.6511
  180SLPC   C2420502   1.737   3.985   2.700 -0.7981 -0.0628  0.0830
  180SLPC   H4R20503   1.630   3.969   2.725 -0.5875  0.8321  1.6238
  180SLPC   H4S20504   1.748   4.084   2.649  1.5330  0.1080  0.8309
  180SLPC   C2520505   1.822   3.972   2.823 -0.0683 -0.2661  0.2463
  180SLPC   H5R20506   1.921   4.017   2.804 -0.2915  0.2688  0.3274
  180SLPC   H5S20507   1.846   3.867   2.851  0.1681  0.0890  1.4094
  180SLPC   C2620508   1.774   4.045   2.950  0.6927 -0.6497  0.0313
  180SLPC   H6R20509   1.838   4.023   3.039  1.0088  1.8625  0.4632
  180SLPC   H6S20510   1.679   3.997   2.982  0.1222  0.3650 -0.1347
  180SLPC   C2720511   1.744   4.196   2.937 -0.0876 -0.0149 -0.7992
  180SLPC   H7R20512   1.678   4.210   2.849  0.4827 -0.4299 -1.2972
  180SLPC   H7S20513   1.841   4.247   2.930 -0.3154  0.4375 -0.6588
  180SLPC   C2820514   1.678   4.261   3.059 -0.6818  0.5077  0.2691
  180SLPC   H8R20515   1.687   4.369   3.035  2.2953  0.4937  1.1856
  180SLPC   H8S20516   1.758   4.242   3.134  3.1806 -1.6878 -4.1368
  180SLPC   C2920517   1.538   4.215   3.096 -0.4086  0.4351 -0.6069
  180SLPC   H9R20518   1.470   4.223   3.010  0.3533 -0.2771 -1.2908
  180SLPC  C21020519   1.504   4.155   3.211 -0.2382  0.5231 -0.4286
  180SLPC  H10R20520   1.401   4.122   3.229 -0.0506  0.7179  1.0370
  180SLPC  C21120521   1.596   4.129   3.324  0.3785 -0.0791  0.5340
  180SLPC  H11R20522   1.540   4.138   3.419  0.4404  1.9749  0.4000
  180SLPC  H11S20523   1.667   4.213   3.338  1.5678 -1.0857  0.6880
  180SLPC  C21220524   1.678   3.997   3.339  0.1937 -0.5037 -0.5136
  180SLPC  H12R20525   1.652   3.910   3.275 -1.4368 -0.3961  0.0017
  180SLPC  C21320526   1.786   3.992   3.419 -0.0209  0.3964  0.1702
  180SLPC  H13R20527   1.845   3.900   3.433 -0.5266 -0.2272 -1.7331
  180SLPC  C21420528   1.832   4.106   3.500 -0.5796  0.4926  0.1016
  180SLPC  H14R20529   1.744   4.138   3.559 -0.9238 -0.6361  0.2151
  180SLPC  H14S20530   1.860   4.187   3.430  3.7926 -0.1469  0.9377
  180SLPC  C21520531   1.952   4.064   3.583  0.3227  0.1671 -0.3080
  180SLPC  H15R20532   2.032   4.041   3.509 -0.7216 -0.8390 -1.1510
  180SLPC  H15S20533   1.916   3.972   3.635 -1.4437  0.1221 -1.5529
  180SLPC  C21620534   1.994   4.161   3.692 -0.0005 -0.0999 -0.1737
  180SLPC  H16R20535   2.008   4.255   3.635  1.5902 -0.3066 -0.1591
  180SLPC  H16S20536   2.097   4.128   3.719 -0.4745  0.3414  2.2030
  180SLPC  C21720537   1.893   4.168   3.810  0.2685  0.3418  0.1409
  180SLPC  H17R20538   1.787   4.177   3.777  1.3403  2.1718 -3.0297
  180SLPC  H17S20539   1.921   4.259   3.867 -4.5914  1.2739  1.3100
  180SLPC  C21820540   1.888   4.053   3.903 -0.2731  0.4601 -0.2519
  180SLPC  H18R20541   1.970   4.038   3.977  0.8885 -1.0152 -1.8025
  180SLPC  H18S20542   1.887   3.953   3.856 -2.0442  0.7089 -0.7804
  180SLPC  H18T20543   1.802   4.060   3.973 -1.1220  0.6725 -1.3015
  180SLPC   C3320544   2.146   3.927   2.998  0.9515 -0.1319  0.1674
  180SLPC   H3X20545   2.046   3.895   3.035  0.2046  1.2126 -0.6680
  180SLPC   H3Y20546   2.122   4.005   2.923  0.3721 -2.5978 -2.2873
  180SLPC   C3420547   2.222   4.005   3.105 -0.2694 -0.4259  0.3299
  180SLPC   H4X20548   2.320   4.041   3.067 -1.8015  2.7873 -0.7339
  180SLPC   H4Y20549   2.243   3.926   3.181  1.1798  0.6161  1.0594
  180SLPC   C3520550   2.135   4.125   3.164  0.8178  0.1485 -0.4153
  180SLPC   H5X20551   2.045   4.088   3.219  3.0771 -2.8915  1.3985
  180SLPC   H5Y20552   2.105   4.189   3.079 -1.2046  0.1996  0.3075
  180SLPC   C3620553   2.218   4.210   3.253  0.4803  0.5430  0.2344
  180SLPC   H6X20554   2.308   4.250   3.200 -0.1895  2.7783  0.7539
  180SLPC   H6Y20555   2.252   4.141   3.333 -2.9400 -3.0715 -1.2937
  180SLPC   C3720556   2.135   4.314   3.316  0.3166 -0.4018 -0.7082
  180SLPC   H7X20557   2.051   4.285   3.383 -0.6302 -1.1174 -2.1661
  180SLPC   H7Y20558   2.083   4.367   3.233  0.0562  0.5618  0.0633
  180SLPC   C3820559   2.222   4.405   3.404 -0.1471  0.2402 -0.2930
  180SLPC   H8X20560   2.292   4.464   3.341  0.2868  1.0412  0.9181
  180SLPC   H8Y20561   2.271   4.346   3.484 -3.0200  2.2318  3.0949
  180SLPC   C3920562   2.147   4.515   3.467 -0.8311 -0.0702 -0.6598
  180SLPC   H9X20563   2.047   4.479   3.502 -1.1574  0.4820 -1.0225
  180SLPC   H9Y20564   2.126   4.596   3.394 -0.7584 -1.3575 -2.1493
  180SLPC  C31020565   2.223   4.574   3.584 -0.1099  0.7347 -0.1094
  180SLPC  H10X20566   2.186   4.673   3.619 -3.1885 -1.0621  2.0085
  180SLPC  H10Y20567   2.329   4.585   3.553  0.5013 -1.4880  1.0860
  180SLPC  C31120568   2.213   4.483   3.704  0.0817 -0.6700 -0.2277
  180SLPC  H11X20569   2.247   4.378   3.688  0.4843 -0.7435  1.0890
  180SLPC  H11Y20570   2.110   4.470   3.743  0.0955  0.5817  0.2382
  180SLPC  C31220571   2.311   4.535   3.814 -0.4389  0.0417  0.1954
  180SLPC  H12X20572   2.287   4.642   3.836 -2.5074 -0.0682 -1.3688
  180SLPC  H12Y20573   2.414   4.535   3.773 -0.3077  0.1094  0.5231
  180SLPC  C31320574   2.303   4.460   3.945 -0.3601 -0.2948  0.5920
  180SLPC  H13X20575   2.197   4.432   3.964 -0.4004  1.0602  2.6090
  180SLPC  H13Y20576   2.331   4.529   4.028  1.6412  0.6309 -0.8334
  180SLPC  C31420577   2.382   4.325   3.947 -0.5163  0.3431 -0.7198
  180SLPC  H14X20578   2.487   4.357   3.963  0.0065 -1.9841  0.6879
  180SLPC  H14Y20579   2.365   4.269   3.852  0.6596 -1.1250 -0.0921
  180SLPC  C31520580   2.347   4.237   4.059 -0.3053 -0.1856 -1.2470
  180SLPC  H15X20581   2.242   4.203   4.051  0.0581 -0.9415 -3.1534
  180SLPC  H15Y20582   2.343   4.293   4.155  1.6278 -0.6794 -0.8549
  180SLPC  C31620583   2.459   4.131   4.064 -0.2865  0.2441  0.3127
  180SLPC  H16X20584   2.561   4.174   4.054 -0.1620 -0.0747  0.1810
  180SLPC  H16Y20585   2.451   4.079   3.966  0.5676 -1.6453  1.2219
  180SLPC  C31720586   2.447   4.028   4.171  0.1676 -0.0065 -0.1328
  180SLPC  H17X20587   2.351   3.974   4.155  0.0930 -0.0738  0.5580
  180SLPC  H17Y20588   2.452   4.068   4.274  0.4813  1.1561 -0.5965
  180SLPC  C31820589   2.559   3.918   4.163  0.5346  0.1290  0.1383
  180SLPC  H18X20590   2.658   3.961   4.190  0.3382 -1.0564  2.8754
  180SLPC  H18Y20591   2.563   3.882   4.058  1.4034  1.8186 -0.4314
  180SLPC  H18Z20592   2.542   3.834   4.234 -1.6262 -1.3893 -2.1017
  181SLPC     N20593   1.497   1.854   2.412  0.2842 -0.3791 -0.3899
  181SLPC   C1320594   1.573   1.742   2.486  0.7574 -0.2972 -0.5067
  181SLPC  H13A20595   1.523   1.648   2.470 -0.8320  0.7543 -1.8012
  181SLPC  H13B20596   1.677   1.737   2.457  1.8943  3.9170  2.4183
  181SLPC  H13C20597   1.575   1.764   2.592 -0.1465  1.2637 -0.8028
  181SLPC   C1420598   1.472   1.826   2.273  0.0331  0.2414  0.3495
  181SLPC  H14A20599   1.566   1.809   2.223  0.0882 -1.2072  0.9411
  181SLPC  H14B20600   1.402   1.747   2.250  1.7366 -0.2902 -3.4429
  181SLPC  H14C20601   1.437   1.918   2.227  1.7781  0.1172 -1.2907
  181SLPC   C1520602   1.588   1.976   2.413 -0.6803  0.3309  0.2395
  181SLPC  H15A20603   1.530   2.058   2.373  0.2337  0.2893 -1.2299
  181SLPC  H15B20604   1.623   1.999   2.512 -2.5589 -2.9086  1.7156
  181SLPC  H15C20605   1.675   1.951   2.354 -0.5758  0.1822  0.4591
  181SLPC   C1220606   1.371   1.887   2.480  0.3925 -0.5679 -0.1476
  181SLPC  H12A20607   1.303   1.804   2.468  0.6779 -0.7676 -0.3731
  181SLPC  H12B20608   1.329   1.979   2.441  0.5175 -0.5414 -0.2186
  181SLPC   C1120609   1.374   1.929   2.634 -0.4604 -0.9148  0.2582
  181SLPC  H11A20610   1.425   1.848   2.689  2.1024 -0.6914 -1.6851
  181SLPC  H11B20611   1.269   1.934   2.670 -1.1272 -1.8599 -1.4893
  181SLPC     P20612   1.388   2.198   2.620 -0.5472 -0.2840 -0.6638
  181SLPC   O1320613   1.499   2.286   2.665  0.4085  0.0794  0.1416
  181SLPC   O1420614   1.344   2.209   2.481  0.1266 -0.0081  0.1324
  181SLPC   O1220615   1.445   2.052   2.652  0.3485 -0.0130 -0.1980
  181SLPC   O1120616   1.265   2.217   2.712 -0.1246 -0.1262 -0.4933
  181SLPC    C120617   1.258   2.146   2.837 -0.1757  0.9648 -0.4232
  181SLPC    HA20618   1.156   2.111   2.863  0.3527 -1.2040 -1.2189
  181SLPC    HB20619   1.312   2.049   2.841  0.0477  1.1180  0.3067
  181SLPC    C220620   1.306   2.232   2.962  0.3709  0.1091  0.3168
  181SLPC    HS20621   1.241   2.322   2.968  0.3413  0.0913  0.2645
  181SLPC   O2120622   1.449   2.253   2.944  0.2542  0.3866 -0.1648
  181SLPC   C2120623   1.486   2.378   2.944  0.7429 -0.5359  0.1744
  181SLPC   O2220624   1.412   2.477   2.955 -0.5258  0.1342 -0.5068
  181SLPC   C2220625   1.641   2.387   2.946 -0.7216 -0.8049 -0.4613
  181SLPC   H2R20626   1.670   2.333   2.854  0.7415 -1.8206  0.5705
  181SLPC   H2S20627   1.675   2.491   2.928  1.8326 -1.0539  2.5166
  181SLPC    C320628   1.287   2.168   3.102  0.2367  0.3962 -0.5902
  181SLPC    HX20629   1.180   2.153   3.128  0.8848  3.0435  4.0644
  181SLPC    HY20630   1.330   2.244   3.170  0.2647  0.1364 -0.3167
  181SLPC   O3120631   1.350   2.035   3.102  0.3660 -0.7070 -0.5311
  181SLPC   C3120632   1.458   2.025   3.177 -0.3512  0.0202  0.1302
  181SLPC   O3220633   1.521   2.107   3.239 -0.2468 -1.0985 -0.0181
  181SLPC   C3220634   1.504   1.879   3.170  0.3856 -0.8436  0.4736
  181SLPC   H2X20635   1.540   1.861   3.066  0.7410  0.3311  0.3938
  181SLPC   H2Y20636   1.418   1.812   3.190 -0.5765  0.0592 -0.5988
  181SLPC   C2320637   1.719   2.325   3.068  0.6119 -0.3290  0.0529
  181SLPC   H3R20638   1.824   2.309   3.037  2.0672  2.0587  3.4200
  181SLPC   H3S20639   1.670   2.228   3.091  0.1043  0.5862  3.0595
  181SLPC   C2420640   1.707   2.402   3.203 -0.0765 -0.4990  0.4871
  181SLPC   H4R20641   1.599   2.400   3.230  0.1174  1.4482  1.4700
  181SLPC   H4S20642   1.729   2.510   3.194  2.9931 -1.0507  0.6352
  181SLPC   C2520643   1.764   2.336   3.331 -0.8224  0.9575  0.0872
  181SLPC   H5R20644   1.869   2.316   3.300 -1.2830  0.0975 -0.9734
  181SLPC   H5S20645   1.717   2.239   3.358 -0.4196 -0.2494 -3.2547
  181SLPC   C2620646   1.758   2.429   3.449 -0.7487 -0.8172  0.0805
  181SLPC   H6R20647   1.651   2.456   3.461 -0.4941  0.8341 -1.1535
  181SLPC   H6S20648   1.809   2.523   3.420  0.2260 -1.4477 -0.2903
  181SLPC   C2720649   1.816   2.372   3.573  0.0009 -0.1168  0.3426
  181SLPC   H7R20650   1.926   2.379   3.579 -0.0049 -0.7654  1.4126
  181SLPC   H7S20651   1.801   2.262   3.588  2.4200 -0.3046  1.6797
  181SLPC   C2820652   1.774   2.447   3.701  0.0506  0.6421  0.5813
  181SLPC   H8R20653   1.781   2.369   3.780 -2.4691 -1.2692 -1.0266
  181SLPC   H8S20654   1.666   2.466   3.684  0.0709 -0.0937 -0.4168
  181SLPC   C2920655   1.844   2.570   3.741  0.2453 -1.1028  0.7623
  181SLPC   H9R20656   1.836   2.653   3.669  0.3141  0.9349  3.0175
  181SLPC  C21020657   1.924   2.590   3.849 -0.6345 -0.1621  0.2610
  181SLPC  H10R20658   1.953   2.693   3.873 -1.5834  0.4944 -1.2929
  181SLPC  C21120659   1.963   2.482   3.943  0.7045  0.0772 -0.4343
  181SLPC  H11R20660   2.070   2.490   3.972  0.5520  0.0630  0.1347
  181SLPC  H11S20661   1.953   2.378   3.903  2.0644  0.0624 -0.7641
  181SLPC  C21220662   1.882   2.499   4.075 -0.2158 -0.1568  0.7356
  181SLPC  H12R20663   1.816   2.586   4.080 -0.0509  0.0220 -0.2261
  181SLPC  C21320664   1.884   2.411   4.177 -0.1290  0.2889 -0.0816
  181SLPC  H13R20665   1.836   2.443   4.271 -0.8013  2.9049 -1.2534
  181SLPC  C21420666   1.966   2.286   4.177 -0.0897 -0.0284  0.9966
  181SLPC  H14R20667   2.012   2.266   4.077 -0.7495 -2.5352  1.1462
  181SLPC  H14S20668   1.905   2.194   4.192  0.8855 -1.1550 -1.5677
  181SLPC  C21520669   2.077   2.289   4.283 -0.2711  0.6216 -0.3192
  181SLPC  H15R20670   2.131   2.387   4.281  0.1952  0.3439 -2.3944
  181SLPC  H15S20671   2.155   2.212   4.265 -1.7748 -0.8192 -0.6824
  181SLPC  C21620672   2.031   2.273   4.429 -0.0740  0.0560 -0.2778
  181SLPC  H16R20673   2.002   2.166   4.443 -1.4789  0.1740 -2.1182
  181SLPC  H16S20674   1.942   2.333   4.457  0.5284  0.7003  0.2616
  181SLPC  C21720675   2.149   2.301   4.521 -0.1798 -0.0477 -0.3829
  181SLPC  H17R20676   2.179   2.408   4.516  1.2630 -0.4737 -1.0368
  181SLPC  H17S20677   2.241   2.245   4.494  0.7931  0.9737  0.7513
  181SLPC  C21820678   2.122   2.260   4.672 -0.6053 -0.0306  0.0866
  181SLPC  H18R20679   2.212   2.259   4.737 -0.1237  3.3041 -0.4328
  181SLPC  H18S20680   2.074   2.162   4.691 -0.9075 -0.3632 -2.2420
  181SLPC  H18T20681   2.050   2.331   4.717 -0.3717 -0.5870  1.3406
  181SLPC   C3320682   1.622   1.851   3.262  0.1272  0.2997 -0.9582
  181SLPC   H3X20683   1.701   1.929   3.252  1.8109 -1.4806 -2.0309
  181SLPC   H3Y20684   1.660   1.752   3.227  2.3061 -0.5447  3.3807
  181SLPC   C3420685   1.591   1.853   3.412  0.3842  0.3104  0.0427
  181SLPC   H4X20686   1.511   1.782   3.441  2.6473 -1.8451  1.2758
  181SLPC   H4Y20687   1.560   1.950   3.455  0.2301 -0.2055  1.1308
  181SLPC   C3520688   1.700   1.784   3.494  0.7415  0.4483 -0.3348
  181SLPC   H5X20689   1.742   1.697   3.438 -0.2732 -0.2007 -0.1039
  181SLPC   H5Y20690   1.667   1.751   3.595 -2.3854 -1.2592 -1.8381
  181SLPC   C3620691   1.815   1.869   3.524 -0.2898  0.2573 -0.0506
  181SLPC   H6X20692   1.795   1.962   3.581 -0.0324  0.3308 -0.0787
  181SLPC   H6Y20693   1.870   1.905   3.435 -1.7402 -0.9834 -1.4789
  181SLPC   C3720694   1.918   1.792   3.614  0.1321 -0.6883  0.0485
  181SLPC   H7X20695   1.944   1.693   3.571  0.8398 -0.1950 -0.6686
  181SLPC   H7Y20696   1.870   1.782   3.714 -1.2712  1.4193 -0.3696
  181SLPC   C3820697   2.056   1.859   3.614  0.2703 -0.0073 -0.0597
  181SLPC   H8X20698   2.070   1.875   3.505 -2.5598  0.3505 -0.3991
  181SLPC   H8Y20699   2.132   1.786   3.650  0.3658 -0.3616 -0.9543
  181SLPC   C3920700   2.063   1.992   3.687 -0.1663  0.9398  0.2140
  181SLPC   H9X20701   2.080   1.957   3.791 -1.0676  1.0907  0.4227
  181SLPC   H9Y20702   1.975   2.059   3.700  1.6400  3.7232 -1.3335
  181SLPC  C31020703   2.156   2.100   3.623 -0.0262  0.2522  0.1275
  181SLPC  H10X20704   2.115   2.141   3.528 -1.9017  0.2850  0.9222
  181SLPC  H10Y20705   2.257   2.059   3.600  1.0422  2.0010  1.6141
  181SLPC  C31120706   2.183   2.222   3.714  0.2167  0.3166  0.3872
  181SLPC  H11X20707   2.087   2.260   3.756  0.1294 -0.7311  1.1610
  181SLPC  H11Y20708   2.231   2.288   3.639 -0.9105 -2.0021 -2.4453
  181SLPC  C31220709   2.275   2.169   3.822 -0.5953 -0.8795 -0.3685
  181SLPC  H12X20710   2.368   2.119   3.785 -0.0452 -0.4722  0.4559
  181SLPC  H12Y20711   2.206   2.103   3.878 -0.4629 -0.0645  0.7623
  181SLPC  C31320712   2.317   2.286   3.914 -0.5973  1.2311  0.2303
  181SLPC  H13X20713   2.226   2.347   3.927 -3.4017 -3.2899  3.3109
  181SLPC  H13Y20714   2.398   2.354   3.880 -0.3606  1.5551  1.4319
  181SLPC  C31420715   2.371   2.235   4.045  0.7964  0.0224 -0.6381
  181SLPC  H14X20716   2.291   2.169   4.085 -0.2072  1.5682 -0.0558
  181SLPC  H14Y20717   2.381   2.320   4.116  4.3174  0.1806 -1.2474
  181SLPC  C31520718   2.509   2.169   4.033 -0.5247 -0.5111  0.4843
  181SLPC  H15X20719   2.582   2.245   3.997  0.0453 -1.5892 -0.6940
  181SLPC  H15Y20720   2.501   2.096   3.950 -0.3094  0.5649 -0.5039
  181SLPC  C31620721   2.564   2.110   4.157  0.5185  0.1837 -0.8222
  181SLPC  H16X20722   2.489   2.034   4.188 -0.2986  2.4615  3.1389
  181SLPC  H16Y20723   2.565   2.194   4.230  1.5420 -0.6622  0.1343
  181SLPC  C31720724   2.712   2.070   4.153 -0.3307  0.6188 -0.1864
  181SLPC  H17X20725   2.731   1.994   4.075  1.3871 -1.2029  1.9278
  181SLPC  H17Y20726   2.730   2.014   4.247  0.4050  1.7712  0.3742
  181SLPC  C31820727   2.820   2.184   4.140 -0.5591  0.4442  0.2786
  181SLPC  H18X20728   2.805   2.252   4.227 -0.6119 -0.7341  1.2131
  181SLPC  H18Y20729   2.796   2.248   4.053 -1.5420 -0.1792  0.0812
  181SLPC  H18Z20730   2.930   2.170   4.138 -0.5021  0.9955 -0.3053
  182SLPC     N20731   2.558   6.456   2.220 -0.1152  0.1109  0.0185
  182SLPC   C1320732   2.644   6.358   2.145  0.7518 -0.2744 -0.5794
  182SLPC  H13A20733   2.714   6.302   2.205  0.3659  0.5364  0.6408
  182SLPC  H13B20734   2.581   6.284   2.098 -1.4507  1.5911 -0.6405
  182SLPC  H13C20735   2.700   6.413   2.070  0.4393  1.3506  0.3600
  182SLPC   C1420736   2.453   6.497   2.126 -1.3593  0.1666 -0.1562
  182SLPC  H14A20737   2.495   6.516   2.029  0.3258  1.4789  0.8050
  182SLPC  H14B20738   2.374   6.424   2.116 -1.0171 -0.6671  2.6331
  182SLPC  H14C20739   2.398   6.586   2.153  1.4180  1.7553  0.5284
  182SLPC   C1520740   2.634   6.580   2.248 -0.3173  0.4839 -0.6338
  182SLPC  H15A20741   2.675   6.627   2.159  0.4657  1.6915  0.3561
  182SLPC  H15B20742   2.574   6.646   2.308  0.5160  1.9684 -1.3958
  182SLPC  H15C20743   2.717   6.554   2.311 -2.2567 -1.1972  1.2843
  182SLPC   C1220744   2.493   6.400   2.346  0.0995  0.2221 -0.1701
  182SLPC  H12A20745   2.449   6.303   2.332  1.6198 -0.3669 -1.0341
  182SLPC  H12B20746   2.413   6.467   2.374  0.3889  1.7513 -2.7914
  182SLPC   C1120747   2.591   6.357   2.461 -0.0754 -0.3877  0.1921
  182SLPC  H11A20748   2.525   6.321   2.542  0.4646 -1.9937 -0.0576
  182SLPC  H11B20749   2.632   6.456   2.489 -0.3268  0.0712 -0.9852
  182SLPC     P20750   2.841   6.256   2.452  0.1810 -0.1618  0.0234
  182SLPC   O1320751   2.875   6.114   2.475  0.2936  0.5383 -0.0662
  182SLPC   O1420752   2.921   6.334   2.355 -0.7935  0.1237 -0.4024
  182SLPC   O1220753   2.689   6.262   2.422  0.0238 -0.2404  0.2275
  182SLPC   O1120754   2.860   6.336   2.594 -0.6282  0.3254 -0.1767
  182SLPC    C120755   2.816   6.262   2.711  0.1492  0.3470  0.0861
  182SLPC    HA20756   2.716   6.214   2.708 -0.0670  0.8152 -0.3195
  182SLPC    HB20757   2.895   6.190   2.740 -2.0280 -1.8399  0.6600
  182SLPC    C220758   2.802   6.357   2.835 -0.4192 -0.0057  0.3449
  182SLPC    HS20759   2.893   6.421   2.834  0.4807 -1.2509  0.9413
  182SLPC   O2120760   2.795   6.273   2.952 -0.3845 -0.0127  0.3159
  182SLPC   C2120761   2.846   6.327   3.065  0.2980 -0.7809  0.2376
  182SLPC   O2220762   2.927   6.425   3.063 -0.3225 -0.0126 -0.1118
  182SLPC   C2220763   2.780   6.264   3.183  0.6569  0.7037  0.5493
  182SLPC   H2R20764   2.674   6.296   3.196  0.4362  0.0497  0.3841
  182SLPC   H2S20765   2.769   6.155   3.165  1.0607  0.7709 -0.1261
  182SLPC    C320766   2.679   6.445   2.829 -0.0697  0.6212 -0.4592
  182SLPC    HX20767   2.585   6.389   2.809  1.2302 -2.0920  0.7450
  182SLPC    HY20768   2.683   6.511   2.739 -0.4130  0.1041 -0.8546
  182SLPC   O3120769   2.651   6.527   2.950  0.2940  0.0741 -0.2808
  182SLPC   C3120770   2.698   6.660   2.932  0.0032  0.5258  0.4747
  182SLPC   O3220771   2.769   6.695   2.840 -0.0576 -0.6212  0.1745
  182SLPC   C3220772   2.645   6.743   3.038 -0.0344 -0.3856  0.1530
  182SLPC   H2X20773   2.535   6.755   3.023 -0.6924 -2.0348  3.2343
  182SLPC   H2Y20774   2.686   6.845   3.023  0.5197 -0.5647  0.4352
  182SLPC   C2320775   2.855   6.288   3.317 -0.8052  1.0380 -0.1598
  182SLPC   H3R20776   2.828   6.394   3.340  1.8005  1.2394  2.1363
  182SLPC   H3S20777   2.965   6.281   3.305 -1.0877 -3.1942 -0.7649
  182SLPC   C2420778   2.794   6.211   3.443 -0.6350 -0.5240 -0.7712
  182SLPC   H4R20779   2.785   6.106   3.406 -1.6190 -0.2683 -1.2920
  182SLPC   H4S20780   2.689   6.247   3.453 -0.7205 -1.0890  0.4749
  182SLPC   C2520781   2.885   6.235   3.565 -0.2475  0.4149  0.9664
  182SLPC   H5R20782   2.992   6.239   3.536 -0.5278 -3.0558 -0.7496
  182SLPC   H5S20783   2.881   6.152   3.638  1.1513  1.2600  2.0507
  182SLPC   C2620784   2.848   6.365   3.641 -0.4241 -0.5027 -0.2560
  182SLPC   H6R20785   2.842   6.455   3.576 -2.2567 -0.8474 -0.5963
  182SLPC   H6S20786   2.923   6.391   3.718 -0.0459 -0.5819 -0.5973
  182SLPC   C2720787   2.719   6.360   3.725 -0.0902  0.6021  0.8309
  182SLPC   H7R20788   2.725   6.279   3.802  0.1281  1.3256  1.5762
  182SLPC   H7S20789   2.640   6.328   3.654  0.4338  0.7979  0.1580
  182SLPC   C2820790   2.684   6.486   3.801  0.1858  1.0365  0.2856
  182SLPC   H8R20791   2.635   6.557   3.731 -1.6948  1.7408  2.2981
  182SLPC   H8S20792   2.773   6.540   3.841  1.2953  0.7443 -1.6950
  182SLPC   C2920793   2.571   6.472   3.901  0.0328 -0.4492 -0.0429
  182SLPC   H9R20794   2.471   6.448   3.862 -0.2276 -1.8685  1.4587
  182SLPC  C21020795   2.599   6.469   4.036  0.0583  0.3420  0.2309
  182SLPC  H10R20796   2.512   6.449   4.100 -0.1713 -4.1879 -1.3506
  182SLPC  C21120797   2.735   6.475   4.105 -0.6105 -0.4339  0.6422
  182SLPC  H11R20798   2.750   6.561   4.174 -0.1343 -1.3153  1.6294
  182SLPC  H11S20799   2.811   6.495   4.027 -0.8669 -1.3071  0.1687
  182SLPC  C21220800   2.766   6.347   4.182 -0.7078 -0.5766  0.1302
  182SLPC  H12R20801   2.674   6.293   4.207 -0.1340 -1.7125 -0.1488
  182SLPC  C21320802   2.889   6.310   4.227  0.1180  0.4088  0.1702
  182SLPC  H13R20803   2.895   6.205   4.259  0.6674  0.4096  0.0716
  182SLPC  C21420804   3.018   6.385   4.208 -0.2362  0.0921 -0.5641
  182SLPC  H14R20805   3.065   6.388   4.309 -0.9593  1.5161 -0.2589
  182SLPC  H14S20806   2.998   6.486   4.167 -0.0720 -0.3432 -1.7291
  182SLPC  C21520807   3.129   6.308   4.119 -0.3084  0.1173  0.7007
  182SLPC  H15R20808   3.115   6.201   4.143 -2.2400  0.3776  0.8248
  182SLPC  H15S20809   3.231   6.338   4.153 -0.8896  1.2560  1.4902
  182SLPC  C21620810   3.114   6.341   3.975 -0.3552  0.3136  0.9404
  182SLPC  H16R20811   3.090   6.449   3.964 -1.1342 -0.0574 -1.3283
  182SLPC  H16S20812   3.032   6.286   3.924 -0.4909  0.6493  0.7900
  182SLPC  C21720813   3.256   6.309   3.910  0.7912 -0.8581  0.0216
  182SLPC  H17R20814   3.344   6.323   3.977  1.0902 -0.3219 -0.4811
  182SLPC  H17S20815   3.274   6.383   3.829  1.5290 -0.4364  0.5662
  182SLPC  C21820816   3.246   6.164   3.860  0.2963  0.3699 -0.0453
  182SLPC  H18R20817   3.337   6.125   3.810 -0.2038 -0.2161 -0.5122
  182SLPC  H18S20818   3.160   6.153   3.791 -0.6138  3.2332  0.5880
  182SLPC  H18T20819   3.235   6.094   3.946  0.7596 -0.0956 -0.3586
  182SLPC   C3320820   2.701   6.703   3.179  0.2842 -0.0690  0.1634
  182SLPC   H3X20821   2.697   6.799   3.234 -0.1174 -0.7781  1.3861
  182SLPC   H3Y20822   2.809   6.677   3.174  0.7990  1.9932  0.0574
  182SLPC   C3420823   2.621   6.595   3.262 -0.4547  0.2570 -0.3045
  182SLPC   H4X20824   2.672   6.571   3.357  1.2110  0.2084 -1.1866
  182SLPC   H4Y20825   2.624   6.503   3.199  1.1282  0.1185 -0.0496
  182SLPC   C3520826   2.474   6.636   3.294  0.7781  0.3954 -0.5433
  182SLPC   H5X20827   2.426   6.678   3.204 -0.4426  1.4948  0.6002
  182SLPC   H5Y20828   2.474   6.722   3.365  1.6152 -0.9364  1.0999
  182SLPC   C3620829   2.380   6.529   3.341 -0.0752 -0.4590  0.5680
  182SLPC   H6X20830   2.409   6.435   3.289  1.9051 -0.7686  2.1290
  182SLPC   H6Y20831   2.289   6.576   3.300  1.3243  2.1343  0.3132
  182SLPC   C3720832   2.359   6.517   3.496 -0.5107  0.2783 -0.6236
  182SLPC   H7X20833   2.332   6.619   3.530 -0.4032  0.2429 -0.4300
  182SLPC   H7Y20834   2.452   6.483   3.548 -2.2341 -1.7625  1.2426
  182SLPC   C3820835   2.260   6.412   3.541 -0.0707 -0.0672  0.1384
  182SLPC   H8X20836   2.305   6.315   3.512  1.9282  0.7182  0.5184
  182SLPC   H8Y20837   2.176   6.421   3.469  0.2800  0.8979 -0.1589
  182SLPC   C3920838   2.212   6.425   3.684  0.3280 -0.2762  0.7283
  182SLPC   H9X20839   2.118   6.484   3.683 -0.2475 -1.1765  1.4391
  182SLPC   H9Y20840   2.284   6.482   3.746 -1.0268  1.8984  0.3655
  182SLPC  C31020841   2.175   6.289   3.752 -0.7176 -0.3904  0.7563
  182SLPC  H10X20842   2.133   6.222   3.674 -0.4439  2.6317 -2.1056
  182SLPC  H10Y20843   2.104   6.303   3.836 -0.4161  0.7312  0.8257
  182SLPC  C31120844   2.299   6.224   3.814  0.1468  0.3694  0.0680
  182SLPC  H11X20845   2.346   6.291   3.889  0.1441  0.3508  0.0860
  182SLPC  H11Y20846   2.372   6.185   3.741  0.0228 -0.9713  0.6488
  182SLPC  C31220847   2.255   6.099   3.897  0.0365  0.0241 -0.1600
  182SLPC  H12X20848   2.225   6.016   3.829 -0.0477 -0.5119  0.5328
  182SLPC  H12Y20849   2.165   6.125   3.958  0.9974  2.3051  0.3187
  182SLPC  C31320850   2.363   6.031   3.990  0.7375 -0.0590  0.6240
  182SLPC  H13X20851   2.398   6.106   4.063 -0.0904 -0.4318  1.4156
  182SLPC  H13Y20852   2.450   6.001   3.927 -0.1146 -0.0305 -0.5956
  182SLPC  C31420853   2.296   5.904   4.058 -0.3864  0.2214  0.2183
  182SLPC  H14X20854   2.242   5.858   3.972 -1.8155 -0.0215  1.2339
  182SLPC  H14Y20855   2.215   5.948   4.120  0.8432  1.8153  0.7108
  182SLPC  C31520856   2.382   5.808   4.134  0.5720 -0.0198 -0.3252
  182SLPC  H15X20857   2.440   5.869   4.206 -2.9196  1.1777  1.6273
  182SLPC  H15Y20858   2.442   5.745   4.065  1.3740 -0.8067  1.0662
  182SLPC  C31620859   2.293   5.732   4.228 -0.2366 -0.1294 -0.5741
  182SLPC  H16X20860   2.222   5.671   4.168 -2.5664  0.3540  1.5979
  182SLPC  H16Y20861   2.234   5.798   4.295  0.6673  0.6572 -0.5363
  182SLPC  C31720862   2.381   5.631   4.312 -1.7845  1.0908 -0.6633
  182SLPC  H17X20863   2.449   5.687   4.379  0.1053  0.1998 -1.7868
  182SLPC  H17Y20864   2.453   5.583   4.242  0.2755 -0.7412  2.6439
  182SLPC  C31820865   2.296   5.526   4.384  0.2937 -0.1879 -0.2684
  182SLPC  H18X20866   2.269   5.436   4.325  0.5473  1.3160 -2.7494
  182SLPC  H18Y20867   2.203   5.571   4.425 -0.1897 -3.0436  1.9596
  182SLPC  H18Z20868   2.354   5.490   4.472 -0.9696  1.5407  1.3230
  183SLPC     N20869   0.213   4.094   2.572  0.1405 -0.5074  0.2286
  183SLPC   C1320870   0.132   4.221   2.549  0.5834  0.6356 -0.7205
  183SLPC  H13A20871   0.032   4.196   2.519  0.8840 -1.4563 -0.0256
  183SLPC  H13B20872   0.136   4.276   2.642  1.1856  0.5817 -0.7094
  183SLPC  H13C20873   0.169   4.275   2.463 -2.5930  1.3196 -1.7025
  183SLPC   C1420874   0.353   4.119   2.615 -0.4671 -0.4811  0.2548
  183SLPC  H14A20875   0.406   4.025   2.621  0.4158 -0.1216 -1.6318
  183SLPC  H14B20876   0.400   4.194   2.552 -2.2382  0.1953 -0.2953
  183SLPC  H14C20877   0.345   4.167   2.711 -0.4293 -0.4647  0.2498
  183SLPC   C1520878   0.230   4.016   2.443  0.9097 -0.4166  0.3475
  183SLPC  H15A20879   0.299   3.934   2.449 -0.7574 -2.0480 -1.7248
  183SLPC  H15B20880   0.133   3.980   2.410  0.5168  0.3100  0.6944
  183SLPC  H15C20881   0.275   4.084   2.372  2.3946 -0.0119  1.6524
  183SLPC   C1220882   0.155   4.000   2.672  0.0131  0.4729 -1.0232
  183SLPC  H12A20883   0.129   4.048   2.765 -0.6924 -0.6630 -0.6320
  183SLPC  H12B20884   0.218   3.919   2.707 -0.3434  0.8377  0.5061
  183SLPC   C1120885   0.028   3.922   2.631 -0.3796 -0.8666 -0.0418
  183SLPC  H11A20886  -0.018   3.900   2.729 -0.0214  0.6260  0.4649
  183SLPC  H11B20887   0.062   3.836   2.569  3.2079  0.3708  0.1394
  183SLPC     P20888  -0.132   3.955   2.421  0.4029 -0.0887  0.3530
  183SLPC   O1320889  -0.035   3.958   2.307 -0.2977  0.7573 -0.5258
  183SLPC   O1420890  -0.202   3.829   2.444 -0.4894 -0.6530  0.4706
  183SLPC   O1220891  -0.062   4.001   2.552  0.4118 -0.2666  0.2622
  183SLPC   O1120892  -0.250   4.060   2.398  0.0834  0.0230  0.3680
  183SLPC    C120893  -0.214   4.196   2.407 -0.2637  0.4046  0.4326
  183SLPC    HA20894  -0.120   4.218   2.462 -2.5380  2.4353  3.6843
  183SLPC    HB20895  -0.191   4.224   2.302  2.0682  1.3297  1.1706
  183SLPC    C220896  -0.336   4.287   2.432 -0.6826 -0.4784  0.5309
  183SLPC    HS20897  -0.302   4.393   2.428 -0.4170 -0.5616  0.6073
  183SLPC   O2120898  -0.396   4.256   2.565  0.0364 -0.3164  0.2890
  183SLPC   C2120899  -0.312   4.266   2.664 -0.0666 -0.1417 -0.3007
  183SLPC   O2220900  -0.212   4.340   2.663  0.0142  0.4920  0.2354
  183SLPC   C2220901  -0.346   4.163   2.772 -0.5371 -0.6344  0.7996
  183SLPC   H2R20902  -0.451   4.171   2.808 -1.0394 -1.7972 -0.3775
  183SLPC   H2S20903  -0.333   4.062   2.729 -0.7307  0.2568 -1.4409
  183SLPC    C320904  -0.449   4.283   2.318  0.0375  0.5992 -0.5860
  183SLPC    HX20905  -0.397   4.321   2.227 -1.6143 -1.4337 -2.4242
  183SLPC    HY20906  -0.532   4.349   2.351  0.6497  0.9668  0.2420
  183SLPC   O3120907  -0.501   4.151   2.298  0.6692 -0.5304 -0.7833
  183SLPC   C3120908  -0.598   4.117   2.386 -0.7783 -0.1799  0.1371
  183SLPC   O3220909  -0.687   4.189   2.419  0.1086 -0.1200 -0.3036
  183SLPC   C3220910  -0.582   3.972   2.438  0.7763 -0.1739 -0.3251
  183SLPC   H2X20911  -0.482   3.957   2.483  1.1668 -0.7667 -1.3539
  183SLPC   H2Y20912  -0.576   3.902   2.352 -2.3788 -1.4588  0.4457
  183SLPC   C2320913  -0.262   4.179   2.895 -0.2677 -0.2669  0.2298
  183SLPC   H3R20914  -0.250   4.287   2.917 -1.2692 -0.0640 -0.1897
  183SLPC   H3S20915  -0.162   4.138   2.871 -0.3695  0.6631 -1.8262
  183SLPC   C2420916  -0.326   4.098   3.011 -0.2293 -0.3394  0.3064
  183SLPC   H4R20917  -0.344   3.997   2.971  0.0272 -0.0925 -0.4359
  183SLPC   H4S20918  -0.427   4.130   3.047  0.2905 -0.2515  1.7131
  183SLPC   C2520919  -0.234   4.079   3.130 -0.4332  0.2105  0.1163
  183SLPC   H5R20920  -0.248   4.166   3.197 -0.5987 -0.2376  0.6691
  183SLPC   H5S20921  -0.133   4.065   3.087 -0.3116 -0.0481  0.4902
  183SLPC   C2620922  -0.260   3.950   3.205  0.7765  0.9283 -0.6746
  183SLPC   H6R20923  -0.241   3.863   3.138 -1.7997 -0.4158  0.2906
  183SLPC   H6S20924  -0.363   3.945   3.244  1.0007  2.1914  0.1037
  183SLPC   C2720925  -0.158   3.932   3.320 -0.3940  0.2335 -0.1332
  183SLPC   H7R20926  -0.057   3.942   3.273 -0.1086  0.2448  0.4822
  183SLPC   H7S20927  -0.166   3.828   3.359  1.7027 -0.7994 -2.2382
  183SLPC   C2820928  -0.179   4.042   3.429  0.3680  0.0519  0.8504
  183SLPC   H8R20929  -0.143   4.139   3.387 -0.3005 -0.0810 -0.0402
  183SLPC   H8S20930  -0.111   4.031   3.516  0.7922  0.9846  0.6510
  183SLPC   C2920931  -0.317   4.055   3.487 -0.1346 -0.1373  0.4305
  183SLPC   H9R20932  -0.356   3.956   3.516 -0.0403 -0.4230 -0.4046
  183SLPC  C21020933  -0.397   4.159   3.484  0.1597  0.0353  0.2543
  183SLPC  H10R20934  -0.499   4.146   3.523  0.3399 -1.9028  0.1300
  183SLPC  C21120935  -0.372   4.290   3.420  0.2150  0.8599  0.5665
  183SLPC  H11R20936  -0.413   4.288   3.316 -0.7566  1.2345  0.9387
  183SLPC  H11S20937  -0.264   4.302   3.398  0.5319 -0.9606  1.0331
  183SLPC  C21220938  -0.423   4.402   3.503 -0.0515 -0.1179 -1.0420
  183SLPC  H12R20939  -0.520   4.439   3.465  1.1419  3.2734 -0.9356
  183SLPC  C21320940  -0.352   4.456   3.608  0.6859 -0.1815  0.2251
  183SLPC  H13R20941  -0.398   4.524   3.681  0.7298  1.2976 -1.0930
  183SLPC  C21420942  -0.210   4.417   3.651 -0.6831 -0.7828 -0.0836
  183SLPC  H14R20943  -0.170   4.507   3.702  0.8392 -1.5314  0.0682
  183SLPC  H14S20944  -0.148   4.394   3.562 -0.9266  0.2387 -0.5286
  183SLPC  C21520945  -0.187   4.309   3.756  0.2221  0.0330  0.0974
  183SLPC  H15R20946  -0.085   4.299   3.797  0.3811 -3.2364 -0.9492
  183SLPC  H15S20947  -0.213   4.213   3.708  1.5764 -1.6602  2.6543
  183SLPC  C21620948  -0.291   4.315   3.872  0.2485 -0.2552  0.2944
  183SLPC  H16R20949  -0.284   4.217   3.923  2.2441 -1.6283 -2.4714
  183SLPC  H16S20950  -0.392   4.333   3.829  0.1973  0.0192  0.5361
  183SLPC  C21720951  -0.256   4.423   3.973 -0.3936 -0.3697 -0.0298
  183SLPC  H17R20952  -0.257   4.525   3.928 -2.0612 -0.0018  0.8428
  183SLPC  H17S20953  -0.161   4.403   4.027  1.2527  0.3501 -2.5450
  183SLPC  C21820954  -0.359   4.427   4.086 -0.0467 -0.3687 -0.8376
  183SLPC  H18R20955  -0.464   4.419   4.053 -0.8178 -1.0171  1.6580
  183SLPC  H18S20956  -0.350   4.520   4.146  1.8598 -1.0470 -0.0119
  183SLPC  H18T20957  -0.340   4.343   4.156 -2.2341 -0.2474 -0.0719
  183SLPC   C3320958  -0.701   3.920   2.539  0.3746 -0.0422  0.4927
  183SLPC   H3X20959  -0.679   3.811   2.534  0.5253 -0.1221  2.5747
  183SLPC   H3Y20960  -0.802   3.936   2.496 -1.0997 -3.0012  2.6637
  183SLPC   C3420961  -0.670   3.973   2.685  0.0692  0.0571 -0.1956
  183SLPC   H4X20962  -0.699   4.079   2.697  0.3322  0.0256  0.7694
  183SLPC   H4Y20963  -0.560   3.971   2.693  0.0017 -2.0958  0.5640
  183SLPC   C3520964  -0.734   3.889   2.793  0.8844  0.1481 -0.6467
  183SLPC   H5X20965  -0.706   3.785   2.766 -2.2693 -0.6978 -0.8572
  183SLPC   H5Y20966  -0.842   3.898   2.768  0.8536 -0.7613 -0.8803
  183SLPC   C3620967  -0.689   3.925   2.929  0.0985 -0.3174 -0.2651
  183SLPC   H6X20968  -0.715   4.031   2.949  3.7561 -0.0079  3.5460
  183SLPC   H6Y20969  -0.578   3.919   2.940  0.3100  2.6120 -0.4748
  183SLPC   C3720970  -0.760   3.833   3.032 -0.8046  0.6665 -0.1635
  183SLPC   H7X20971  -0.730   3.730   3.005 -1.2669  0.2358  0.9508
  183SLPC   H7Y20972  -0.869   3.851   3.040 -0.4746  2.2229  1.0897
  183SLPC   C3820973  -0.710   3.853   3.174  0.4027  0.0978  0.1082
  183SLPC   H8X20974  -0.755   3.940   3.225  0.4659  0.8629 -1.1170
  183SLPC   H8Y20975  -0.602   3.878   3.184  0.6006 -0.9582  0.6871
  183SLPC   C3920976  -0.733   3.739   3.269 -0.2716  0.1436 -0.1801
  183SLPC   H9X20977  -0.678   3.644   3.248 -0.5993 -0.4983  1.7122
  183SLPC   H9Y20978  -0.844   3.726   3.272 -0.2701 -0.2315 -1.4379
  183SLPC  C31020979  -0.684   3.781   3.411 -0.0075 -0.2162  0.3112
  183SLPC  H10X20980  -0.736   3.874   3.443  0.6529  1.1615 -2.4676
  183SLPC  H10Y20981  -0.575   3.801   3.405  0.0019 -0.3201  0.1489
  183SLPC  C31120982  -0.707   3.662   3.503  0.7529  0.0299 -0.2559
  183SLPC  H11X20983  -0.634   3.584   3.473  0.8723  0.4147 -0.9682
  183SLPC  H11Y20984  -0.809   3.620   3.496  0.2668  0.9758  1.0755
  183SLPC  C31220985  -0.684   3.689   3.653 -0.0542  0.2273 -0.2734
  183SLPC  H12X20986  -0.712   3.598   3.710  1.3584  0.5273  0.9338
  183SLPC  H12Y20987  -0.762   3.764   3.676  0.5045  0.7359 -0.0095
  183SLPC  C31320988  -0.544   3.753   3.681 -0.6697 -0.1530  0.1682
  183SLPC  H13X20989  -0.539   3.849   3.625 -0.9683 -0.6261 -0.6688
  183SLPC  H13Y20990  -0.467   3.690   3.632 -0.5738  0.1585 -0.0847
  183SLPC  C31420991  -0.519   3.789   3.831  0.0720  0.4892  0.2490
  183SLPC  H14X20992  -0.516   3.700   3.896 -2.4494  0.4985  0.4106
  183SLPC  H14Y20993  -0.597   3.858   3.869  0.3599  0.4584  0.8971
  183SLPC  C31520994  -0.379   3.849   3.864  0.0325 -0.5414  0.2392
  183SLPC  H15X20995  -0.372   3.852   3.975  2.5915  0.9313  0.0650
  183SLPC  H15Y20996  -0.373   3.957   3.839  0.7526 -0.7627 -0.5374
  183SLPC  C31620997  -0.264   3.769   3.805  0.6654 -0.3278 -0.5783
  183SLPC  H16X20998  -0.265   3.776   3.694  0.1131 -1.4536 -0.6466
  183SLPC  H16Y20999  -0.276   3.663   3.837  3.1646 -0.6617 -0.6221
  183SLPC  C31721000  -0.131   3.810   3.872 -0.8491  0.3467 -0.3872
  183SLPC  H17X21001  -0.053   3.732   3.860 -0.5082  0.8976 -1.9869
  183SLPC  H17Y21002  -0.144   3.830   3.980  0.4725  1.0383 -0.3322
  183SLPC  C31821003  -0.072   3.952   3.823 -0.0118 -0.4615  0.5807
  183SLPC  H18X21004   0.023   3.959   3.882  0.0379  1.2465  0.3410
  183SLPC  H18Y21005  -0.141   4.036   3.844  0.4954  0.3095 -0.7604
  183SLPC  H18Z21006  -0.047   3.960   3.715 -0.4474 -0.2243  0.4980
  184SLPC     N21007   7.294   5.420   2.490  0.6030  0.4307 -1.2024
  184SLPC   C1321008   7.393   5.536   2.469  0.8950 -0.4158 -0.1633
  184SLPC  H13A21009   7.353   5.623   2.420  3.4831  1.5164  1.0421
  184SLPC  H13B21010   7.427   5.568   2.566 -0.9788 -0.0882  0.3932
  184SLPC  H13C21011   7.484   5.511   2.415 -1.1782 -0.1226 -3.9379
  184SLPC   C1421012   7.364   5.311   2.564 -0.3804 -0.1906  0.2632
  184SLPC  H14A21013   7.456   5.287   2.514 -0.8663  0.4583 -0.9529
  184SLPC  H14B21014   7.385   5.339   2.667  1.4920  2.7586 -0.8558
  184SLPC  H14C21015   7.310   5.218   2.550  0.8169 -0.8170 -0.2039
  184SLPC   C1521016   7.244   5.352   2.365 -0.1153 -0.0785 -0.2021
  184SLPC  H15A21017   7.330   5.327   2.306 -0.4293 -1.7911  0.0589
  184SLPC  H15B21018   7.186   5.265   2.392 -0.0890  0.4205  1.5734
  184SLPC  H15C21019   7.181   5.412   2.301 -1.3568 -0.9263  0.2128
  184SLPC   C1221020   7.180   5.466   2.572  0.0647 -0.0243  0.8224
  184SLPC  H12A21021   7.120   5.378   2.593  0.3385 -0.0699  1.4339
  184SLPC  H12B21022   7.115   5.532   2.516  0.8065  0.8362  0.9708
  184SLPC   C1121023   7.216   5.528   2.713 -0.0796  0.0356  0.0935
  184SLPC  H11A21024   7.302   5.476   2.760  2.0006  2.3752 -1.0396
  184SLPC  H11B21025   7.128   5.514   2.780  0.0968 -1.6062 -0.0001
  184SLPC     P21026   7.134   5.769   2.643 -0.2156 -0.2486 -0.2908
  184SLPC   O1321027   7.144   5.901   2.707  0.5121  0.8504 -0.2052
  184SLPC   O1421028   7.150   5.761   2.493  0.6310 -0.2803  0.3535
  184SLPC   O1221029   7.244   5.668   2.702 -0.1242  0.6234 -0.0899
  184SLPC   O1121030   6.996   5.707   2.691 -0.0461 -0.0657 -1.0366
  184SLPC    C121031   6.878   5.769   2.649 -0.2193 -0.4296  0.5148
  184SLPC    HA21032   6.889   5.879   2.660 -0.4535 -0.4989  1.5037
  184SLPC    HB21033   6.853   5.735   2.547 -0.8025  0.9477  0.1883
  184SLPC    C221034   6.753   5.730   2.730 -0.3271  0.9125  0.0503
  184SLPC    HS21035   6.678   5.806   2.700 -2.8054 -1.2186  0.5997
  184SLPC   O2121036   6.786   5.727   2.870 -0.0746  0.3885 -0.8808
  184SLPC   C2121037   6.836   5.846   2.923  0.8645  0.4389  0.2180
  184SLPC   O2221038   6.825   5.955   2.870  0.3794  0.2471  0.2099
  184SLPC   C2221039   6.916   5.818   3.057  0.8653  0.3988 -0.1913
  184SLPC   H2R21040   6.845   5.766   3.125 -1.9335  1.3093 -2.3028
  184SLPC   H2S21041   6.997   5.751   3.023  0.2923 -1.6085  2.2881
  184SLPC    C321042   6.693   5.593   2.700 -0.0796  0.1828 -0.3472
  184SLPC    HX21043   6.677   5.594   2.590  1.7093  0.4267 -0.6167
  184SLPC    HY21044   6.597   5.576   2.753  0.4464 -1.6915  0.0461
  184SLPC   O3121045   6.780   5.483   2.722  0.2926  0.4645  0.0860
  184SLPC   C3121046   6.769   5.418   2.836 -0.2554 -0.5628  1.1490
  184SLPC   O3221047   6.683   5.427   2.921 -0.3440  0.1384  0.1324
  184SLPC   C3221048   6.891   5.324   2.837 -0.1286  0.6428 -0.4636
  184SLPC   H2X21049   6.982   5.387   2.828 -0.0630  0.3415 -1.9354
  184SLPC   H2Y21050   6.872   5.263   2.746 -1.8074  0.6935 -0.1678
  184SLPC   C2321051   6.991   5.939   3.116 -0.5604 -0.5034  0.0712
  184SLPC   H3R21052   7.058   5.968   3.032 -1.0647  2.2904  0.5900
  184SLPC   H3S21053   7.068   5.910   3.190  0.0663 -0.8784 -0.7221
  184SLPC   C2421054   6.911   6.060   3.187 -0.1556  0.4701 -0.0041
  184SLPC   H4R21055   6.857   6.110   3.103  0.4168 -0.4548 -0.9278
  184SLPC   H4S21056   6.994   6.118   3.232 -0.0646 -0.2582  0.7772
  184SLPC   C2521057   6.811   6.007   3.294 -0.2062 -0.3615 -0.0641
  184SLPC   H5R21058   6.861   5.935   3.363 -1.3039 -0.2130  0.8926
  184SLPC   H5S21059   6.734   5.951   3.237 -0.3829  0.7253 -0.9194
  184SLPC   C2621060   6.744   6.119   3.376 -0.1248 -0.0177  0.2776
  184SLPC   H6R21061   6.645   6.089   3.415  0.1894  0.6011  1.5790
  184SLPC   H6S21062   6.727   6.208   3.311 -2.4105 -0.6648 -0.0415
  184SLPC   C2721063   6.830   6.179   3.495  0.0486 -0.4406  0.9112
  184SLPC   H7R21064   6.911   6.227   3.436  0.4940 -0.8561  1.1804
  184SLPC   H7S21065   6.861   6.100   3.567 -0.3537 -0.0384  1.5357
  184SLPC   C2821066   6.760   6.295   3.575  0.2447  0.3543 -0.9103
  184SLPC   H8R21067   6.709   6.361   3.501  0.6936  1.5547 -0.1590
  184SLPC   H8S21068   6.839   6.360   3.618 -0.7421  0.3670  0.8889
  184SLPC   C2921069   6.671   6.251   3.685  0.0776  0.7393 -0.3375
  184SLPC   H9R21070   6.567   6.226   3.659 -0.2188  0.0764  1.4235
  184SLPC  C21021071   6.699   6.248   3.821 -0.4138  0.3101 -0.1544
  184SLPC  H10R21072   6.616   6.217   3.885  0.0301 -2.8332 -1.0166
  184SLPC  C21121073   6.826   6.291   3.894 -0.1249  0.0006  0.4611
  184SLPC  H11R21074   6.915   6.261   3.834 -0.6810  0.7155 -0.7292
  184SLPC  H11S21075   6.824   6.220   3.979  0.0531 -0.6221 -0.0514
  184SLPC  C21221076   6.841   6.431   3.931  0.3465 -0.0563 -0.2767
  184SLPC  H12R21077   6.923   6.487   3.884 -0.9899  2.1290 -0.1021
  184SLPC  C21321078   6.771   6.505   4.011  1.0255 -0.3502  0.0521
  184SLPC  H13R21079   6.799   6.611   4.016  0.0370 -0.1969  3.0659
  184SLPC  C21421080   6.649   6.465   4.083 -0.7249 -0.2395 -0.7230
  184SLPC  H14R21081   6.652   6.359   4.117  1.6255  0.1019  0.2285
  184SLPC  H14S21082   6.559   6.476   4.018 -2.2240  0.2478  1.3853
  184SLPC  C21521083   6.631   6.566   4.203 -0.0001  0.7174 -0.0018
  184SLPC  H15R21084   6.676   6.665   4.181  1.0598 -0.2636 -2.4596
  184SLPC  H15S21085   6.680   6.519   4.291 -3.2092  2.1020  2.6066
  184SLPC  C21621086   6.481   6.596   4.233 -0.2010  0.0069  0.2466
  184SLPC  H16R21087   6.437   6.495   4.246 -0.1255 -0.3775 -2.3026
  184SLPC  H16S21088   6.432   6.653   4.151 -1.9549 -2.2734 -0.3558
  184SLPC  C21721089   6.471   6.674   4.359  0.7835 -0.3631 -0.7847
  184SLPC  H17R21090   6.554   6.744   4.381 -0.6042  0.7793  0.9101
  184SLPC  H17S21091   6.474   6.598   4.441 -1.8621 -0.6341 -0.9113
  184SLPC  C21821092   6.349   6.775   4.364  0.0878  0.3960 -0.1160
  184SLPC  H18R21093   6.254   6.721   4.346  0.2708  0.3921 -1.0804
  184SLPC  H18S21094   6.369   6.854   4.289  0.3393  2.0265  1.6094
  184SLPC  H18T21095   6.356   6.826   4.463  2.6022 -2.3483  1.1860
  184SLPC   C3321096   6.896   5.215   2.951 -0.0941  0.0080  0.5729
  184SLPC   H3X21097   6.958   5.127   2.920  1.2274  1.0980  0.0856
  184SLPC   H3Y21098   6.796   5.166   2.943 -0.3539  0.7845 -1.1413
  184SLPC   C3421099   6.947   5.256   3.089 -0.2533 -0.3943 -0.3891
  184SLPC   H4X21100   6.953   5.166   3.154  0.0168  0.6218  1.0027
  184SLPC   H4Y21101   6.868   5.326   3.122  1.3193  1.1110  0.2235
  184SLPC   C3521102   7.086   5.331   3.094  0.1087  0.3941 -0.1993
  184SLPC   H5X21103   7.083   5.427   3.037  0.0125 -0.4299 -1.6042
  184SLPC   H5Y21104   7.159   5.264   3.044 -0.8332 -0.7907 -0.0070
  184SLPC   C3621105   7.116   5.373   3.237 -0.0077 -0.2571 -0.5275
  184SLPC   H6X21106   7.181   5.295   3.282 -0.7090 -1.7241 -2.0172
  184SLPC   H6Y21107   7.027   5.391   3.301  0.0270 -2.5842  0.1965
  184SLPC   C3721108   7.191   5.506   3.221  0.0592 -1.2245  0.7969
  184SLPC   H7X21109   7.136   5.577   3.155 -1.0066 -1.5110  1.3560
  184SLPC   H7Y21110   7.288   5.474   3.179 -0.4400 -0.0924 -1.2934
  184SLPC   C3821111   7.217   5.565   3.363 -0.1076  0.9854 -0.2592
  184SLPC   H8X21112   7.280   5.656   3.362 -0.2760  1.2145  3.5135
  184SLPC   H8Y21113   7.263   5.492   3.433 -1.4566 -1.3546 -1.7373
  184SLPC   C3921114   7.082   5.607   3.431  0.3588  0.3227 -0.0518
  184SLPC   H9X21115   7.026   5.515   3.460  1.0980 -0.0232  0.2809
  184SLPC   H9Y21116   7.035   5.665   3.349  0.7804 -0.1233 -0.6088
  184SLPC  C31021117   7.103   5.704   3.549 -0.1583  0.6167  0.3429
  184SLPC  H10X21118   7.142   5.801   3.513  0.4117  1.1606  2.3420
  184SLPC  H10Y21119   7.184   5.658   3.610 -0.2235 -2.4803 -1.8014
  184SLPC  C31121120   6.966   5.721   3.627 -0.1828  0.5271 -0.2231
  184SLPC  H11X21121   6.905   5.628   3.632 -0.3713  0.5214 -2.2584
  184SLPC  H11Y21122   6.904   5.794   3.571  1.1882  1.3781 -0.6778
  184SLPC  C31221123   6.985   5.776   3.770  0.9137 -0.3955  0.4673
  184SLPC  H12X21124   7.057   5.859   3.776 -2.1646  2.3644  0.7988
  184SLPC  H12Y21125   7.041   5.702   3.831  1.0146 -1.3765 -0.7937
  184SLPC  C31321126   6.863   5.834   3.841 -0.2585 -0.2555  0.3334
  184SLPC  H13X21127   6.788   5.756   3.866 -0.8270 -0.1029 -0.8811
  184SLPC  H13Y21128   6.805   5.905   3.779 -0.8495 -1.1088 -0.1079
  184SLPC  C31421129   6.900   5.921   3.970  0.7452 -0.1648  0.3850
  184SLPC  H14X21130   6.801   5.959   4.003  2.7131  0.8034  5.4868
  184SLPC  H14Y21131   6.968   6.006   3.949 -3.3527  2.4980 -2.9523
  184SLPC  C31521132   6.970   5.834   4.077  0.3837 -0.4253 -0.6757
  184SLPC  H15X21133   7.079   5.831   4.056  0.3088  1.5190 -1.4471
  184SLPC  H15Y21134   6.926   5.732   4.073 -1.8247  0.5664 -3.4831
  184SLPC  C31621135   6.938   5.882   4.217  0.1796  0.1162 -0.3654
  184SLPC  H16X21136   6.980   5.811   4.291 -1.7104 -1.0730 -0.3978
  184SLPC  H16Y21137   6.828   5.875   4.234  0.5172 -1.3006  1.4572
  184SLPC  C31721138   6.991   6.028   4.245  0.5008  0.1496  0.3456
  184SLPC  H17X21139   6.933   6.101   4.185  0.4125  0.2842  0.5933
  184SLPC  H17Y21140   7.094   6.029   4.203 -0.9233  0.1547 -3.3309
  184SLPC  C31821141   6.984   6.057   4.390  0.1147 -0.2941 -0.3967
  184SLPC  H18X21142   6.892   6.014   4.434 -0.9551  1.0249 -1.2926
  184SLPC  H18Y21143   6.969   6.166   4.403 -0.3652 -0.7114  3.1186
  184SLPC  H18Z21144   7.072   6.024   4.451  0.7996 -0.3944 -1.4348
  185POPC     N21145   5.203   6.082   6.159  0.2123 -0.6409  0.1839
  185POPC   C1221146   5.209   6.023   6.022  0.1415 -0.0673  0.7265
  185POPC  H12A21147   5.278   5.940   6.016 -0.9081 -0.8815 -0.2501
  185POPC  H12B21148   5.253   6.104   5.965 -1.1417 -0.9495 -1.6008
  185POPC   C1321149   5.184   5.965   6.255  0.3151 -0.2906 -0.4937
  185POPC  H13A21150   5.181   6.006   6.355 -0.4402 -0.6901 -0.3525
  185POPC  H13B21151   5.099   5.907   6.224 -1.0084  1.7128 -0.6891
  185POPC  H13C21152   5.272   5.901   6.248  0.8062  0.3972 -0.6297
  185POPC   C1421153   5.330   6.150   6.200 -0.7676  0.1620  0.0221
  185POPC  H14A21154   5.337   6.244   6.147 -4.1023  0.0000 -0.8078
  185POPC  H14B21155   5.335   6.173   6.305  1.4947 -1.0327  0.2109
  185POPC  H14C21156   5.409   6.078   6.184 -0.6850  0.5455 -1.3793
  185POPC   C1521157   5.086   6.177   6.167 -0.2973 -0.4661  0.2911
  185POPC  H15A21158   4.990   6.127   6.163  0.0246 -0.9504 -1.6623
  185POPC  H15B21159   5.090   6.250   6.087 -1.0220 -1.4032 -0.6054
  185POPC  H15C21160   5.092   6.216   6.268 -0.9490 -4.3049  1.8946
  185POPC   C1121161   5.084   5.972   5.954 -0.7525  0.7329 -0.2408
  185POPC  H11A21162   5.128   5.934   5.859 -1.9949 -1.4760  0.0216
  185POPC  H11B21163   5.017   6.058   5.935 -0.0659  0.9066 -1.9949
  185POPC     P21164   4.878   5.820   5.988  0.1568 -0.1332  0.3647
  185POPC   O1321165   4.805   5.947   5.976  0.0174 -0.0670  0.6563
  185POPC   O1421166   4.831   5.728   6.093 -0.7842  0.0181 -0.0251
  185POPC   O1221167   5.031   5.860   6.023  0.1298 -1.2323 -0.0440
  185POPC   O1121168   4.880   5.742   5.845 -0.4852 -0.1192  0.4787
  185POPC    C121169   4.964   5.630   5.821  0.2031 -0.2156  0.3384
  185POPC    HA21170   4.986   5.573   5.914 -3.8134 -0.7330  1.0617
  185POPC    HB21171   5.062   5.670   5.787 -0.1057 -1.1774 -1.7314
  185POPC    C221172   4.920   5.523   5.711 -0.4380  0.1609  0.4960
  185POPC    HS21173   4.994   5.442   5.726  0.9833  1.6395  1.6727
  185POPC   O2121174   4.944   5.581   5.573  0.0165  0.5289 -0.1038
  185POPC   C2121175   4.916   5.506   5.464  0.3134 -0.4183  0.5271
  185POPC   O2221176   4.883   5.390   5.469 -0.2346 -0.4093 -0.4685
  185POPC   C2221177   4.936   5.595   5.338  0.6301  0.3150  0.0831
  185POPC   H2R21178   4.840   5.643   5.306 -0.9055 -1.4293  1.9399
  185POPC   H2S21179   4.957   5.521   5.258 -4.9348 -2.7886  1.2282
  185POPC    C321180   4.772   5.480   5.727 -0.0310 -0.0231 -0.2018
  185POPC    HX21181   4.757   5.468   5.837 -0.0937  1.9779  0.0271
  185POPC    HY21182   4.764   5.379   5.681 -2.9496  0.1788 -0.2661
  185POPC   O3121183   4.679   5.574   5.680 -0.3780  0.2777 -0.1168
  185POPC   C3121184   4.598   5.634   5.759  0.3136 -0.7656 -0.6179
  185POPC   O3221185   4.580   5.612   5.879 -0.6294  0.1915  0.8050
  185POPC   C3221186   4.522   5.747   5.692 -0.0417 -0.1423 -0.0461
  185POPC   H2X21187   4.492   5.819   5.772 -0.9688 -0.3978 -0.1684
  185POPC   H2Y21188   4.423   5.711   5.657  0.5698 -1.3308 -0.5927
  185POPC   C2321189   5.054   5.706   5.345  0.2194  0.5442 -0.5623
  185POPC   H3R21190   5.142   5.666   5.399 -1.1237  0.1526  1.3899
  185POPC   H3S21191   5.025   5.797   5.401 -0.0716 -1.1775  2.1784
  185POPC   C2421192   5.081   5.757   5.208 -0.1027 -0.2264  0.0167
  185POPC   H4R21193   4.985   5.804   5.176  0.3286 -0.1442 -1.2162
  185POPC   H4S21194   5.097   5.665   5.149  2.1352 -0.1440  0.4538
  185POPC   C2521195   5.195   5.857   5.185 -0.6564  0.0475  0.1577
  185POPC   H5R21196   5.220   5.922   5.271 -0.7696 -3.5693  3.0689
  185POPC   H5S21197   5.168   5.934   5.110 -1.1203 -1.2960 -1.0891
  185POPC   C2621198   5.322   5.797   5.134 -0.5593 -0.2245  0.0982
  185POPC   H6R21199   5.309   5.734   5.043  1.7887 -1.8399  0.8354
  185POPC   H6S21200   5.353   5.736   5.222  1.6023  1.1531  0.3066
  185POPC   C2721201   5.416   5.906   5.106 -0.5164  0.1519  0.1335
  185POPC   H7R21202   5.438   5.963   5.200  1.0221 -1.4594  0.7700
  185POPC   H7S21203   5.357   5.973   5.040  0.0957  0.4187 -0.1421
  185POPC   C2821204   5.542   5.846   5.039 -0.9030  0.2871 -0.6513
  185POPC   H8R21205   5.493   5.804   4.948  0.6025  0.9211 -1.7696
  185POPC   H8S21206   5.583   5.755   5.088  1.4686  1.4001 -0.5251
  185POPC   C2921207   5.653   5.947   5.018 -1.0477  0.1783 -0.2748
  185POPC   H9121208   5.702   5.983   5.109  0.3943 -1.2816 -0.4554
  185POPC  C21021209   5.705   5.975   4.896  0.2897  0.7985  0.5035
  185POPC  H10121210   5.793   6.040   4.898 -0.2680  1.5499  0.8956
  185POPC  C21121211   5.653   5.927   4.764  0.5570 -0.5223  1.0570
  185POPC  H11R21212   5.649   5.816   4.766 -0.6957 -0.5009  0.3409
  185POPC  H11S21213   5.727   5.954   4.686  0.4357 -0.2782  1.0232
  185POPC  C21221214   5.510   5.975   4.727 -0.7899  0.9946  0.6804
  185POPC  H12R21215   5.528   6.083   4.710  1.9797  0.3714 -0.6481
  185POPC  H12S21216   5.446   5.962   4.817  0.1015  0.2311  1.2150
  185POPC  C21321217   5.430   5.919   4.608  0.2366 -0.8737 -1.0982
  185POPC  H13R21218   5.405   5.811   4.617 -1.4121 -0.4716 -0.6022
  185POPC  H13S21219   5.500   5.922   4.522  0.0280 -1.9359 -1.3099
  185POPC  C21421220   5.309   6.002   4.599 -0.2051 -0.1818  0.1694
  185POPC  H14R21221   5.312   6.102   4.550 -3.3040 -0.1178 -0.0079
  185POPC  H14S21222   5.254   6.027   4.692 -0.2355  4.1986 -0.9241
  185POPC  C21521223   5.200   5.946   4.505 -0.6479  0.6762  0.2566
  185POPC  H15R21224   5.100   5.994   4.518 -1.7138 -1.1188 -1.0282
  185POPC  H15S21225   5.173   5.841   4.525  1.2676 -0.1473 -1.2931
  185POPC  C21621226   5.236   5.951   4.354  0.6656  0.0527  0.8175
  185POPC  H16R21227   5.306   5.867   4.334 -0.7188 -0.4282 -2.3797
  185POPC  H16S21228   5.294   6.044   4.334 -1.0916  0.8782 -0.5313
  185POPC  C21721229   5.116   5.922   4.271  0.2589 -0.3186 -0.2644
  185POPC  H17R21230   5.072   5.823   4.297 -2.6317  0.7071 -1.0244
  185POPC  H17S21231   5.154   5.925   4.167  1.5617 -0.2190  0.2110
  185POPC  C21821232   5.009   6.027   4.287 -0.3136  0.0005 -0.0224
  185POPC  H18R21233   4.946   6.013   4.378  0.1505 -0.1090  0.2851
  185POPC  H18S21234   4.937   6.017   4.204  0.7569  1.1479 -1.1129
  185POPC  H18T21235   5.046   6.132   4.295 -1.2160  0.2523  0.9466
  185POPC   C3321236   4.611   5.813   5.584 -0.3319 -0.2307 -0.0013
  185POPC   H3X21237   4.607   5.764   5.484 -0.3920  0.7535 -0.4838
  185POPC   H3Y21238   4.716   5.808   5.618  0.1621  1.1093 -1.2746
  185POPC   C3421239   4.592   5.967   5.576 -0.0545 -0.4136 -0.8057
  185POPC   H4X21240   4.600   6.006   5.680  1.0173 -0.3178 -0.9107
  185POPC   H4Y21241   4.490   5.984   5.535 -0.6442 -1.3979  0.2408
  185POPC   C3521242   4.703   6.024   5.486  0.4139 -0.4576 -0.2778
  185POPC   H5X21243   4.803   5.988   5.517  0.6912  1.6510  1.3723
  185POPC   H5Y21244   4.719   6.133   5.501  1.9198 -0.6962 -0.0648
  185POPC   C3621245   4.690   5.987   5.338 -0.0481 -0.1090  0.3038
  185POPC   H6X21246   4.599   6.036   5.299 -0.2991 -0.0070  1.0072
  185POPC   H6Y21247   4.681   5.876   5.330 -0.6183  0.0241 -0.9997
  185POPC   C3721248   4.806   6.032   5.258  0.2770  0.7144 -0.9274
  185POPC   H7X21249   4.896   5.974   5.287 -0.3771 -0.7288 -1.7637
  185POPC   H7Y21250   4.835   6.138   5.276  1.3427  0.2732 -0.0045
  185POPC   C3821251   4.793   6.006   5.104  0.1025  0.2212  0.0730
  185POPC   H8X21252   4.738   5.911   5.085  0.1753  0.3038 -0.5855
  185POPC   H8Y21253   4.899   5.993   5.072  0.4371  1.3088  0.7466
  185POPC   C3921254   4.734   6.124   5.027 -0.5000  0.1512 -0.2301
  185POPC   H9X21255   4.802   6.211   5.014  0.6158 -0.3803  1.9066
  185POPC   H9Y21256   4.646   6.149   5.090  0.7748  0.2334  1.5561
  185POPC  C31021257   4.681   6.092   4.884  0.1412  0.4097  0.7312
  185POPC  H10X21258   4.615   6.174   4.848  0.5026  0.1714 -0.4958
  185POPC  H10Y21259   4.617   6.002   4.890  0.2921  0.3562  1.6544
  185POPC  C31121260   4.791   6.054   4.783  0.4546 -0.1922  0.0767
  185POPC  H11X21261   4.742   6.048   4.683  1.0576 -0.1939 -0.2163
  185POPC  H11Y21262   4.833   5.954   4.807 -0.8376 -0.6198  0.6286
  185POPC  C31221263   4.907   6.154   4.764 -0.3928 -0.3002  0.6290
  185POPC  H12X21264   4.968   6.119   4.678  1.3944  2.6043  0.6473
  185POPC  H12Y21265   4.984   6.174   4.842  0.2508  1.5288 -0.4603
  185POPC  C31321266   4.839   6.293   4.724 -0.3212  0.5034 -0.5357
  185POPC  H13X21267   4.787   6.338   4.811  0.0083  0.0466 -0.1028
  185POPC  H13Y21268   4.762   6.284   4.644 -1.1760  2.0870  0.0928
  185POPC  C31421269   4.944   6.389   4.672 -0.5325 -0.1798  0.3990
  185POPC  H14X21270   4.980   6.345   4.577  1.0038  0.5717  0.6127
  185POPC  H14Y21271   5.033   6.386   4.739 -0.1000 -0.8591 -0.1989
  185POPC  C31521272   4.909   6.534   4.650  0.3738 -0.3076 -0.0294
  185POPC  H15X21273   4.899   6.582   4.750 -0.6059  0.9352 -0.7129
  185POPC  H15Y21274   4.819   6.548   4.588 -0.7284 -0.1315  1.5794
  185POPC  C31621275   5.018   6.609   4.568 -1.0420 -0.2156 -0.0859
  185POPC  H16X21276   5.113   6.610   4.626 -0.3860 -0.7643 -1.1424
  185POPC  H16Y21277   5.000   6.716   4.544  1.4322  0.4734  0.9923
  185POPC  H16Z21278   5.048   6.564   4.471 -1.0639  1.7288 -1.0107
  186POPC     N21279   2.070   1.010   6.226 -0.2405 -0.5108 -0.2436
  186POPC   C1221280   1.972   0.901   6.199 -0.1070  0.3627  0.6696
  186POPC  H12A21281   1.914   0.879   6.288 -0.4609 -2.8263 -0.2568
  186POPC  H12B21282   2.028   0.811   6.177  3.1838  2.2594  1.1430
  186POPC   C1321283   2.172   1.015   6.116  0.3562 -0.3663 -0.4875
  186POPC  H13A21284   2.237   0.929   6.114  1.1953  0.2489  0.1455
  186POPC  H13B21285   2.133   1.027   6.016 -1.6234  0.1774  0.3052
  186POPC  H13C21286   2.244   1.092   6.141  1.2614 -0.6116 -2.2306
  186POPC   C1421287   1.995   1.137   6.240  0.8322 -0.3180  0.5820
  186POPC  H14A21288   1.974   1.176   6.141  1.1076  1.0038  1.0434
  186POPC  H14B21289   1.906   1.130   6.301 -0.4519  0.8848 -1.1248
  186POPC  H14C21290   2.057   1.212   6.286  1.9853  0.0704 -1.5507
  186POPC   C1521291   2.137   0.975   6.360 -0.9440 -0.1912 -0.4616
  186POPC  H15A21292   2.199   1.058   6.392 -0.6091 -0.1940 -1.0984
  186POPC  H15B21293   2.188   0.880   6.352  0.1397  0.3120  0.2855
  186POPC  H15C21294   2.066   0.962   6.440 -0.4999 -0.1524 -0.0567
  186POPC   C1121295   1.872   0.923   6.081  0.5256 -0.3327  0.2257
  186POPC  H11A21296   1.832   0.825   6.046 -0.0647 -0.1242  0.3191
  186POPC  H11B21297   1.922   0.966   5.991  0.2563 -1.5086 -0.5042
  186POPC     P21298   1.638   0.976   6.188  0.1852 -0.1269 -0.3100
  186POPC   O1321299   1.541   1.083   6.175  0.0533 -0.4882  0.6521
  186POPC   O1421300   1.679   0.944   6.324 -0.1551 -0.1477  0.7265
  186POPC   O1221301   1.762   1.014   6.101 -0.2948 -0.1162 -0.2010
  186POPC   O1121302   1.572   0.842   6.114  0.0402  0.3619 -0.4100
  186POPC    C121303   1.528   0.858   5.980 -0.3400 -0.7682  0.4517
  186POPC    HA21304   1.612   0.858   5.907 -1.6841  0.0227 -1.1171
  186POPC    HB21305   1.475   0.953   5.960  0.4814 -0.5344 -0.6780
  186POPC    C221306   1.422   0.748   5.937 -0.5416 -0.2148  0.3968
  186POPC    HS21307   1.340   0.734   6.011 -0.8968 -0.8148 -0.1009
  186POPC   O2121308   1.495   0.627   5.925  0.6533  0.9755 -0.6292
  186POPC   C2121309   1.423   0.517   5.922  0.2082  0.2631 -0.0662
  186POPC   O2221310   1.303   0.504   5.951 -0.0780  0.5420  0.3012
  186POPC   C2221311   1.515   0.405   5.884  0.2216  0.4308  0.1494
  186POPC   H2R21312   1.533   0.326   5.960 -0.9106 -0.9039 -0.9183
  186POPC   H2S21313   1.611   0.446   5.847  0.9073 -0.2411  1.1678
  186POPC    C321314   1.345   0.785   5.805 -0.0764  0.3219  0.5900
  186POPC    HX21315   1.267   0.864   5.802  0.7785  1.2219  1.8026
  186POPC    HY21316   1.293   0.692   5.773  0.3251 -0.2738  1.6332
  186POPC   O3121317   1.440   0.814   5.700 -0.1297 -0.3143 -0.2144
  186POPC   C3121318   1.399   0.873   5.589 -0.0986 -0.8378 -0.2462
  186POPC   O3221319   1.288   0.924   5.570 -0.2411  0.1498  0.1569
  186POPC   C3221320   1.512   0.876   5.497 -0.6547  0.2756  0.4994
  186POPC   H2X21321   1.515   0.783   5.437 -0.8038  1.1823 -0.9280
  186POPC   H2Y21322   1.598   0.882   5.567 -0.4740  1.4671  0.1843
  186POPC   C2321323   1.450   0.329   5.756  0.4282  0.6016 -0.1540
  186POPC   H3R21324   1.342   0.305   5.770  0.7889 -0.7110  0.4848
  186POPC   H3S21325   1.490   0.225   5.759 -0.0871  0.4129  0.4279
  186POPC   C2421326   1.465   0.399   5.628 -0.3091  0.0547  0.1767
  186POPC   H4R21327   1.573   0.407   5.606 -0.1271 -3.6499 -0.5852
  186POPC   H4S21328   1.404   0.493   5.626 -2.9026 -1.5618 -2.6828
  186POPC   C2521329   1.409   0.317   5.512  0.1357  0.2350  0.0241
  186POPC   H5R21330   1.301   0.316   5.535  0.5171  2.6397  2.2688
  186POPC   H5S21331   1.440   0.210   5.513 -1.3283 -0.2099 -0.8367
  186POPC   C2621332   1.434   0.370   5.375  0.1649 -0.1111 -0.0440
  186POPC   H6R21333   1.545   0.367   5.371  0.1589 -1.0466  0.3071
  186POPC   H6S21334   1.405   0.475   5.354 -2.6605 -0.6314  1.0345
  186POPC   C2721335   1.373   0.271   5.278  0.1397 -0.4675 -0.5817
  186POPC   H7R21336   1.264   0.259   5.298 -0.0415  0.6643 -0.8530
  186POPC   H7S21337   1.424   0.173   5.286 -0.0684 -0.4944  0.4826
  186POPC   C2821338   1.399   0.332   5.137  0.1300  0.3700 -0.1338
  186POPC   H8R21339   1.405   0.247   5.065  1.4693 -0.0297  0.4437
  186POPC   H8S21340   1.496   0.384   5.124 -0.5280  1.3739 -1.0638
  186POPC   C2921341   1.280   0.413   5.091 -0.3481  0.1343  0.4994
  186POPC   H9121342   1.196   0.429   5.160  0.2447 -0.4626  1.3616
  186POPC  C21021343   1.271   0.472   4.968  0.7594  0.1284 -0.0449
  186POPC  H10121344   1.176   0.521   4.945  1.5055  2.1323  1.1051
  186POPC  C21121345   1.377   0.468   4.861  0.4072 -0.3741  0.1139
  186POPC  H11R21346   1.465   0.413   4.901  0.7712 -0.3404 -0.6359
  186POPC  H11S21347   1.403   0.575   4.845 -0.5695  0.0096  1.0255
  186POPC  C21221348   1.319   0.403   4.737  0.1256  0.3324  0.1963
  186POPC  H12R21349   1.224   0.455   4.708  0.1160 -0.1751 -0.7028
  186POPC  H12S21350   1.275   0.302   4.752  0.2445  0.1470 -0.6739
  186POPC  C21321351   1.404   0.403   4.609 -0.9999 -0.5568  0.3875
  186POPC  H13R21352   1.367   0.314   4.554 -0.5210 -1.9718  2.3001
  186POPC  H13S21353   1.508   0.370   4.631 -0.9371 -0.7677 -0.2258
  186POPC  C21421354   1.415   0.534   4.532  0.4437  0.0845  0.2629
  186POPC  H14R21355   1.480   0.612   4.578  1.6727 -0.7482 -0.0334
  186POPC  H14S21356   1.313   0.577   4.535  0.6363  0.5204  0.5203
  186POPC  C21521357   1.446   0.516   4.381 -0.3410 -0.8344 -0.0179
  186POPC  H15R21358   1.359   0.471   4.327 -0.0901 -1.3101 -0.0309
  186POPC  H15S21359   1.535   0.449   4.386  1.1862  1.2733  2.1362
  186POPC  C21621360   1.493   0.654   4.318 -0.3993  0.2286  0.6280
  186POPC  H16R21361   1.586   0.690   4.366  1.2304  0.3898 -2.5142
  186POPC  H16S21362   1.416   0.733   4.332  0.5099  1.1748  0.3968
  186POPC  C21721363   1.516   0.643   4.169 -0.4970  0.3079  0.6348
  186POPC  H17R21364   1.414   0.609   4.144 -0.1926 -0.7448  0.8125
  186POPC  H17S21365   1.599   0.571   4.152 -1.5048 -0.8683  0.7036
  186POPC  C21821366   1.548   0.779   4.103 -0.0420  0.6964  0.3353
  186POPC  H18R21367   1.554   0.768   3.992  2.7239 -0.6488  0.5692
  186POPC  H18S21368   1.650   0.818   4.127  0.1140 -0.6104  1.8855
  186POPC  H18T21369   1.478   0.864   4.117  0.2906  1.4656 -2.4032
  186POPC   C3321370   1.513   1.005   5.407  0.3269  0.2366 -0.7285
  186POPC   H3X21371   1.618   1.028   5.379  0.2449  0.0149 -1.2206
  186POPC   H3Y21372   1.485   1.092   5.470  0.8842 -0.7394  0.8861
  186POPC   C3421373   1.424   0.993   5.283 -0.0211 -0.2758 -0.4812
  186POPC   H4X21374   1.414   1.095   5.239  1.0420 -0.1307 -0.3959
  186POPC   H4Y21375   1.316   0.974   5.303  0.4453 -2.1241  0.4265
  186POPC   C3521376   1.477   0.874   5.196  0.0929 -0.3498 -0.3897
  186POPC   H5X21377   1.455   0.775   5.242  0.2474 -0.8782 -1.4245
  186POPC   H5Y21378   1.584   0.895   5.177  0.1321 -0.4057 -0.2249
  186POPC   C3621379   1.410   0.883   5.051 -0.4204 -0.4994 -0.5760
  186POPC   H6X21380   1.302   0.906   5.064 -0.4240  0.3829 -2.0613
  186POPC   H6Y21381   1.414   0.785   4.999 -2.0874 -0.8255 -0.1281
  186POPC   C3721382   1.461   1.001   4.967  0.1593  0.3114 -0.8317
  186POPC   H7X21383   1.571   0.996   4.951  0.4368  2.9656  0.0790
  186POPC   H7Y21384   1.446   1.099   5.017 -1.3104 -1.6863  2.8501
  186POPC   C3821385   1.388   1.015   4.829 -0.3426  0.2522 -0.1384
  186POPC   H8X21386   1.427   1.107   4.780 -1.3784  0.7788  0.0130
  186POPC   H8Y21387   1.281   1.034   4.851  0.4193  1.9248  2.3313
  186POPC   C3921388   1.402   0.892   4.741 -0.2757  0.8692 -0.2113
  186POPC   H9X21389   1.337   0.820   4.796  0.3275  0.5892  0.1379
  186POPC   H9Y21390   1.503   0.848   4.756  0.0089  0.7589 -2.3749
  186POPC  C31021391   1.353   0.885   4.595 -0.2549  0.3996 -0.2569
  186POPC  H10X21392   1.342   0.780   4.561 -1.6662  0.3862  0.2063
  186POPC  H10Y21393   1.432   0.938   4.537 -0.4062 -1.5421 -2.3072
  186POPC  C31121394   1.223   0.964   4.569 -0.2365  0.3696  0.4532
  186POPC  H11X21395   1.254   1.063   4.610  0.4594 -0.1078  1.1160
  186POPC  H11Y21396   1.143   0.922   4.634  0.0282 -3.3664 -1.5412
  186POPC  C31221397   1.162   0.966   4.427 -0.0979 -0.0121 -0.1569
  186POPC  H12X21398   1.151   0.863   4.388 -1.7180 -1.1515  3.0803
  186POPC  H12Y21399   1.244   1.016   4.372 -1.4569  1.6002 -0.8015
  186POPC  C31321400   1.030   1.032   4.408  0.2376  0.4821  0.5286
  186POPC  H13X21401   1.028   1.128   4.465 -3.7355  0.4517  0.5876
  186POPC  H13Y21402   0.948   0.972   4.455 -1.8102  1.4037 -1.7566
  186POPC  C31421403   0.983   1.070   4.265 -0.3810  0.6658 -0.0655
  186POPC  H14X21404   0.986   0.977   4.203  0.8341  1.7451 -1.6848
  186POPC  H14Y21405   1.058   1.137   4.218 -0.7758  2.4486  1.7782
  186POPC  C31521406   0.855   1.149   4.259  0.5150 -0.0565 -0.0930
  186POPC  H15X21407   0.863   1.258   4.281  0.0451  0.3186 -1.7756
  186POPC  H15Y21408   0.784   1.108   4.335  1.0299 -0.0844  0.3797
  186POPC  C31621409   0.776   1.138   4.136 -0.2066  0.0261 -0.7156
  186POPC  H16X21410   0.837   1.189   4.058 -1.0374  1.0443 -0.7085
  186POPC  H16Y21411   0.676   1.187   4.142 -1.3033 -2.2007  0.0088
  186POPC  H16Z21412   0.753   1.031   4.116 -1.0419 -0.0767  0.6993
  187POPC     N21413   5.677   6.173   1.954 -0.5745 -0.4879  0.0371
  187POPC   C1221414   5.768   6.048   1.957 -0.1455  0.1003 -0.2153
  187POPC  H12A21415   5.858   6.080   2.008 -0.6004  2.5235 -0.8437
  187POPC  H12B21416   5.800   6.027   1.855 -2.1919 -2.3932 -0.3782
  187POPC   C1321417   5.569   6.143   1.856 -0.6610 -0.2206  0.1742
  187POPC  H13A21418   5.486   6.210   1.873 -0.2388  0.1110  0.9730
  187POPC  H13B21419   5.610   6.151   1.756 -0.4867  0.3356  0.2839
  187POPC  H13C21420   5.533   6.042   1.869 -2.2301  0.4967  1.5488
  187POPC   C1421421   5.618   6.197   2.082 -0.0547  0.2129 -0.1960
  187POPC  H14A21422   5.566   6.113   2.126 -1.0555  1.7575  1.6416
  187POPC  H14B21423   5.694   6.232   2.151 -0.5454  2.6651 -0.8851
  187POPC  H14C21424   5.544   6.273   2.069 -0.6263  0.0670  2.0136
  187POPC   C1521425   5.754   6.301   1.930  0.3090  0.0080 -0.2814
  187POPC  H15A21426   5.782   6.318   1.827  1.3343  1.9960  0.3106
  187POPC  H15B21427   5.848   6.299   1.983  0.7349 -1.5292 -1.0579
  187POPC  H15C21428   5.706   6.387   1.973 -0.3495 -1.1691  1.3846
  187POPC   C1121429   5.718   5.925   2.022  0.5916  0.3262  0.2159
  187POPC  H11A21430   5.776   5.841   1.977  1.7043  1.0873  0.2215
  187POPC  H11B21431   5.614   5.905   1.988  0.1909 -0.0592  1.6461
  187POPC     P21432   5.851   5.890   2.242  0.2505 -0.3981 -0.1006
  187POPC   O1321433   5.963   5.970   2.188 -0.2636 -0.1992  0.5944
  187POPC   O1421434   5.869   5.746   2.255  0.2995 -0.2654 -0.1188
  187POPC   O1221435   5.717   5.922   2.166 -0.3314 -0.0047  0.5609
  187POPC   O1121436   5.815   5.948   2.383  0.0245  0.1305 -0.4238
  187POPC    C121437   5.689   5.922   2.453 -0.9079  0.0212  0.4460
  187POPC    HA21438   5.706   5.889   2.558  1.7544 -1.1331 -0.3244
  187POPC    HB21439   5.625   5.847   2.403 -1.1044  0.6544 -0.2678
  187POPC    C221440   5.601   6.053   2.459  0.3127  0.3091  0.4867
  187POPC    HS21441   5.594   6.085   2.354 -0.2462  2.5107  1.1803
  187POPC   O2121442   5.645   6.155   2.551 -0.0617  0.2177 -0.0301
  187POPC   C2121443   5.593   6.276   2.520  0.3378  0.0490  0.5656
  187POPC   O2221444   5.527   6.303   2.420 -0.2447  0.1834  0.1435
  187POPC   C2221445   5.649   6.369   2.626 -0.8295 -0.2132 -0.6112
  187POPC   H2R21446   5.646   6.474   2.592  0.5439 -0.6894 -2.2670
  187POPC   H2S21447   5.756   6.341   2.634 -0.8556  0.1466  1.1852
  187POPC    C321448   5.452   6.006   2.497 -0.1825  0.1731 -0.1402
  187POPC    HX21449   5.429   5.918   2.434  2.2383 -1.5914  1.3302
  187POPC    HY21450   5.376   6.083   2.474  0.3304  0.2587 -1.5567
  187POPC   O3121451   5.447   5.954   2.633 -0.6031  0.1309 -0.2521
  187POPC   C3121452   5.397   6.032   2.732 -0.1554 -0.4149  0.0562
  187POPC   O3221453   5.339   6.136   2.719  0.2982  0.2430  0.1558
  187POPC   C3221454   5.425   5.963   2.860 -0.3708  0.6457  0.2038
  187POPC   H2X21455   5.530   5.940   2.888 -0.8125 -1.6973  0.0219
  187POPC   H2Y21456   5.381   5.861   2.866  2.5475 -0.7158 -0.6862
  187POPC   C2321457   5.585   6.349   2.766 -0.7157 -0.1573 -0.0190
  187POPC   H3R21458   5.616   6.256   2.819 -0.5279 -1.4303 -2.3077
  187POPC   H3S21459   5.476   6.334   2.746 -0.5395 -0.6069 -0.6326
  187POPC   C2421460   5.604   6.462   2.857 -0.1988 -0.1886  0.7237
  187POPC   H4R21461   5.591   6.560   2.807 -1.1093  0.7231  2.7206
  187POPC   H4S21462   5.706   6.455   2.900  0.0625  0.3130  0.1922
  187POPC   C2521463   5.508   6.466   2.979  0.7166  0.8843 -0.0993
  187POPC   H5R21464   5.460   6.366   2.985  1.5612  0.4696 -0.1785
  187POPC   H5S21465   5.426   6.539   2.966  1.2019  1.0708 -2.1658
  187POPC   C2621466   5.567   6.505   3.118 -0.7353 -0.2432 -0.7427
  187POPC   H6R21467   5.590   6.613   3.105 -0.5364 -0.4506 -2.1637
  187POPC   H6S21468   5.661   6.457   3.154 -0.9111 -0.5313 -0.6679
  187POPC   C2721469   5.467   6.482   3.243 -0.8870 -0.1180  0.0040
  187POPC   H7R21470   5.475   6.378   3.281 -0.4174 -0.3693 -0.7656
  187POPC   H7S21471   5.364   6.491   3.202 -0.5981  2.6329 -0.2467
  187POPC   C2821472   5.484   6.591   3.347 -0.3209  0.1794 -0.5470
  187POPC   H8R21473   5.499   6.689   3.298  0.1109  0.0564 -0.6609
  187POPC   H8S21474   5.575   6.569   3.407 -1.1026 -1.6742 -0.0132
  187POPC   C2921475   5.363   6.583   3.442 -0.7653  0.0022 -0.0048
  187POPC   H9121476   5.353   6.494   3.506  0.5096 -0.0283  0.1625
  187POPC  C21021477   5.276   6.682   3.460  0.4202 -0.0020 -0.1020
  187POPC  H10121478   5.189   6.663   3.525  0.1142  0.6032 -0.3300
  187POPC  C21121479   5.267   6.809   3.400  0.0976 -0.5115 -0.3093
  187POPC  H11R21480   5.366   6.853   3.375  0.5035 -0.8139  0.7302
  187POPC  H11S21481   5.218   6.883   3.467 -0.0035 -1.4437  0.6559
  187POPC  C21221482   5.184   6.804   3.275 -0.5588  0.1715 -0.0585
  187POPC  H12R21483   5.082   6.763   3.289 -1.4007  0.9081 -3.5610
  187POPC  H12S21484   5.234   6.733   3.206 -1.9006  2.3790 -3.4459
  187POPC  C21321485   5.169   6.941   3.211  0.1671  0.0133  0.6426
  187POPC  H13R21486   5.271   6.980   3.190 -0.7834  0.9134 -2.5764
  187POPC  H13S21487   5.121   7.006   3.287  1.0515 -0.5858  1.7381
  187POPC  C21421488   5.099   6.932   3.076  0.1769  0.2655  0.2341
  187POPC  H14R21489   4.992   6.903   3.087  0.9616 -1.9601  2.5789
  187POPC  H14S21490   5.140   6.842   3.024  0.2571  0.0340  0.6949
  187POPC  C21521491   5.092   7.057   2.999  0.8326  0.1258 -0.0706
  187POPC  H15R21492   5.060   7.147   3.056  3.8651  1.7027 -0.7260
  187POPC  H15S21493   5.015   7.044   2.920  2.2832  0.9705 -1.6487
  187POPC  C21621494   5.226   7.093   2.935 -0.3462  0.5899 -1.1806
  187POPC  H16R21495   5.263   7.008   2.873  0.6580 -1.1123  1.6491
  187POPC  H16S21496   5.292   7.120   3.020 -3.0665  0.2161  1.1194
  187POPC  C21721497   5.237   7.214   2.842  0.2582 -0.4161  0.1507
  187POPC  H17R21498   5.343   7.239   2.820  0.4866 -1.0036  0.5760
  187POPC  H17S21499   5.187   7.304   2.884  3.5983  0.8838  1.5058
  187POPC  C21821500   5.158   7.191   2.714  0.4342  0.1102  0.8929
  187POPC  H18R21501   5.148   7.285   2.655  1.8721  0.1946  0.7701
  187POPC  H18S21502   5.058   7.160   2.752 -0.3555  1.0519 -0.3569
  187POPC  H18T21503   5.205   7.103   2.666  2.2747  0.7452  1.5114
  187POPC   C3321504   5.348   6.019   2.982  0.5614 -0.1429 -0.5697
  187POPC   H3X21505   5.242   6.028   2.952  0.7366 -1.0085 -1.4964
  187POPC   H3Y21506   5.393   6.120   2.994 -1.4244  0.7464 -0.4715
  187POPC   C3421507   5.361   5.956   3.121  0.1912 -0.0867 -0.2147
  187POPC   H4X21508   5.468   5.951   3.147  0.8393 -1.1739 -2.9224
  187POPC   H4Y21509   5.337   5.848   3.123  0.5879 -0.1642  0.5616
  187POPC   C3521510   5.284   6.036   3.217 -0.4738 -0.0484 -0.1116
  187POPC   H5X21511   5.176   6.054   3.198 -0.2495  2.8355  1.0504
  187POPC   H5Y21512   5.326   6.139   3.219 -2.3314  0.7195  0.7997
  187POPC   C3621513   5.298   5.976   3.351  0.4082  0.6166  0.5510
  187POPC   H6X21514   5.404   5.992   3.380  1.2563 -3.6480  0.0462
  187POPC   H6Y21515   5.273   5.868   3.362  0.4524  0.4944 -0.5195
  187POPC   C3721516   5.214   6.044   3.465 -0.0924  0.7925  0.4995
  187POPC   H7X21517   5.108   6.015   3.477 -0.2962  2.0196  1.8186
  187POPC   H7Y21518   5.204   6.149   3.430 -1.1082  0.0324 -1.5954
  187POPC   C3821519   5.285   6.041   3.596  0.2527  0.8602 -0.0175
  187POPC   H8X21520   5.395   6.023   3.587  0.5019  3.1016 -1.7240
  187POPC   H8Y21521   5.251   5.955   3.658  0.5845  2.1118  1.9620
  187POPC   C3921522   5.286   6.177   3.661  0.5670  0.0653  0.2587
  187POPC   H9X21523   5.341   6.246   3.593 -3.4611  1.5387 -1.7223
  187POPC   H9Y21524   5.338   6.174   3.759 -1.1487 -0.1890  1.1689
  187POPC  C31021525   5.145   6.237   3.692 -0.0718  0.1228 -0.2697
  187POPC  H10X21526   5.090   6.174   3.765 -0.2239  1.1567  0.5261
  187POPC  H10Y21527   5.090   6.251   3.596  0.4338  0.4256 -0.5221
  187POPC  C31121528   5.166   6.380   3.754  0.4695  0.4756  0.1276
  187POPC  H11X21529   5.071   6.436   3.739 -0.0437 -0.6008 -0.6269
  187POPC  H11Y21530   5.248   6.427   3.696 -0.0194  0.7414 -0.3498
  187POPC  C31221531   5.210   6.370   3.896 -0.2749  0.4627 -0.2009
  187POPC  H12X21532   5.313   6.332   3.912 -0.2846  1.1148  1.6034
  187POPC  H12Y21533   5.142   6.310   3.960 -1.7868  3.6202  1.3015
  187POPC  C31321534   5.208   6.505   3.971  0.2405  1.4006 -0.2566
  187POPC  H13X21535   5.118   6.566   3.948 -1.1187 -0.3478  0.3860
  187POPC  H13Y21536   5.296   6.571   3.951  0.4960  1.1528  0.0522
  187POPC  C31421537   5.187   6.482   4.122  0.1347  0.1695 -1.1519
  187POPC  H14X21538   5.110   6.402   4.135 -0.5440  0.8873 -0.7116
  187POPC  H14Y21539   5.156   6.574   4.176  0.8093 -0.2836  0.0312
  187POPC  C31521540   5.309   6.416   4.179  0.9001  0.5563 -0.4233
  187POPC  H15X21541   5.405   6.471   4.188  1.3191 -0.7934  5.1116
  187POPC  H15Y21542   5.334   6.319   4.132  1.2663  0.8360 -0.8050
  187POPC  C31621543   5.278   6.376   4.320  0.5500  0.0789 -0.3789
  187POPC  H16X21544   5.236   6.471   4.361 -0.6213 -1.4969  2.1417
  187POPC  H16Y21545   5.376   6.344   4.361  1.1339 -2.1153 -3.3341
  187POPC  H16Z21546   5.203   6.295   4.329 -0.1119  0.5065 -1.8475
  188POPC     N21547   6.584   5.893   2.034  0.2219  0.0714 -0.3870
  188POPC   C1221548   6.620   5.856   2.179 -0.3640  1.1855  0.3561
  188POPC  H12A21549   6.682   5.938   2.209  0.7133  0.6136 -0.2726
  188POPC  H12B21550   6.690   5.773   2.179 -1.0893  0.5664  0.0251
  188POPC   C1321551   6.519   6.034   2.031  0.0747 -0.1123  0.6002
  188POPC  H13A21552   6.474   6.070   1.939 -0.3663  0.0748  0.8872
  188POPC  H13B21553   6.437   6.026   2.101  0.9836 -0.2816  1.6635
  188POPC  H13C21554   6.586   6.110   2.068 -0.3184  1.0899 -1.0646
  188POPC   C1421555   6.701   5.893   1.946  0.2775 -0.5846 -0.4936
  188POPC  H14A21556   6.671   5.905   1.843  2.4787 -0.6312 -1.1683
  188POPC  H14B21557   6.759   5.977   1.980  0.9716 -2.1782  2.4218
  188POPC  H14C21558   6.750   5.797   1.958 -0.9076 -1.1244  0.1028
  188POPC   C1521559   6.478   5.797   1.984 -0.4949 -0.5721  0.4928
  188POPC  H15A21560   6.448   5.806   1.881  2.2894 -1.9991 -0.4853
  188POPC  H15B21561   6.388   5.815   2.041 -1.7653  1.1730 -1.9785
  188POPC  H15C21562   6.512   5.695   1.992  1.4636  0.0053 -0.1865
  188POPC   C1121563   6.501   5.824   2.266 -0.2124 -0.3128  0.0583
  188POPC  H11A21564   6.558   5.775   2.348  1.5685  1.8220  0.1439
  188POPC  H11B21565   6.424   5.754   2.227  0.7757  0.2556 -2.9965
  188POPC     P21566   6.498   6.027   2.417 -0.0827 -0.2615  0.0169
  188POPC   O1321567   6.452   6.172   2.416 -0.6187  0.3861 -0.3561
  188POPC   O1421568   6.648   6.001   2.426 -0.0527 -0.2858 -0.8305
  188POPC   O1221569   6.430   5.945   2.304 -0.0841  0.3427 -0.0093
  188POPC   O1121570   6.429   5.945   2.539  0.1588 -0.5623  0.1119
  188POPC    C121571   6.290   5.905   2.521 -0.1452 -0.3248 -0.0100
  188POPC    HA21572   6.294   5.798   2.494  0.1662 -0.5118  0.7539
  188POPC    HB21573   6.243   5.965   2.440 -1.5126 -0.2233  0.8455
  188POPC    C221574   6.211   5.923   2.652  0.3288  0.5343 -0.3499
  188POPC    HS21575   6.209   6.031   2.676  1.0342  0.9722 -2.1869
  188POPC   O2121576   6.275   5.848   2.753 -0.3159  0.2773  0.3503
  188POPC   C2121577   6.362   5.920   2.833 -0.2179  0.3721  0.0057
  188POPC   O2221578   6.387   6.038   2.829 -0.7452 -0.4897  0.2034
  188POPC   C2221579   6.431   5.816   2.927 -0.2547 -0.5906 -0.0859
  188POPC   H2R21580   6.508   5.766   2.865 -0.9005 -2.3467  0.5239
  188POPC   H2S21581   6.353   5.746   2.962  0.3799 -0.6002  1.3140
  188POPC    C321582   6.061   5.869   2.635 -0.4010  0.2962  0.2340
  188POPC    HX21583   6.056   5.758   2.629  1.0733  0.1316  1.7800
  188POPC    HY21584   6.014   5.903   2.541  0.7248 -1.9199 -1.1785
  188POPC   O3121585   5.977   5.884   2.751  0.7348 -0.4641 -0.5038
  188POPC   C3121586   5.926   6.012   2.777 -0.7090  1.0081  0.8551
  188POPC   O3221587   5.947   6.108   2.706  0.5784 -0.4526 -0.2633
  188POPC   C3221588   5.850   6.000   2.908 -0.3108 -0.0414  0.8255
  188POPC   H2X21589   5.892   5.921   2.975 -1.1977  0.6499  2.2226
  188POPC   H2Y21590   5.743   5.981   2.888 -0.5107  1.8994 -0.0874
  188POPC   C2321591   6.513   5.874   3.045  0.2063  0.2523  0.6475
  188POPC   H3R21592   6.591   5.932   2.992  1.0727 -1.1394  0.3579
  188POPC   H3S21593   6.559   5.794   3.107  0.1329 -0.8141 -0.6323
  188POPC   C2421594   6.432   5.974   3.142 -0.9502 -0.9314  0.4143
  188POPC   H4R21595   6.386   6.059   3.088  1.6266  0.2484 -0.0084
  188POPC   H4S21596   6.499   6.012   3.223 -1.6017  0.1598  0.4481
  188POPC   C2521597   6.319   5.901   3.212 -0.2153 -0.2209 -0.4037
  188POPC   H5R21598   6.357   5.827   3.285 -0.0222 -1.3069 -1.5904
  188POPC   H5S21599   6.258   5.845   3.139 -1.3323 -0.5215  0.7431
  188POPC   C2621600   6.227   6.002   3.287  0.1003  0.7961  0.4209
  188POPC   H6R21601   6.141   5.947   3.331 -0.5872  1.1030 -0.5254
  188POPC   H6S21602   6.188   6.067   3.206  3.2299 -0.7054 -2.3886
  188POPC   C2721603   6.292   6.094   3.386 -0.4403 -0.3627 -0.1392
  188POPC   H7R21604   6.348   6.178   3.339  2.8533 -1.5359  1.5482
  188POPC   H7S21605   6.367   6.036   3.444  0.7057  1.1512 -0.0949
  188POPC   C2821606   6.194   6.146   3.491  0.8068 -0.6751  0.5134
  188POPC   H8R21607   6.136   6.056   3.521  1.6989 -1.4808 -0.1468
  188POPC   H8S21608   6.137   6.229   3.445 -0.6397 -2.1609 -0.4806
  188POPC   C2921609   6.274   6.221   3.595  0.0416 -0.0092  0.0963
  188POPC   H9121610   6.345   6.293   3.550  1.7132 -0.7638  1.4536
  188POPC  C21021611   6.265   6.228   3.732  0.3299 -0.0682 -0.7211
  188POPC  H10121612   6.343   6.296   3.768  1.1047 -2.5429  2.4728
  188POPC  C21121613   6.169   6.152   3.823 -0.8040  0.1955 -0.7622
  188POPC  H11R21614   6.107   6.074   3.774  1.3252 -2.1488  0.0965
  188POPC  H11S21615   6.107   6.216   3.890 -0.8923  1.3512 -1.9388
  188POPC  C21221616   6.240   6.068   3.929  0.2021  0.5406  0.0403
  188POPC  H12R21617   6.319   6.010   3.877 -1.2006 -0.7795 -0.6375
  188POPC  H12S21618   6.161   6.005   3.975 -0.0825 -0.8161 -2.2469
  188POPC  C21321619   6.288   6.161   4.039  0.7949 -0.2915 -0.4480
  188POPC  H13R21620   6.213   6.233   4.079  1.4757  0.6623 -0.8861
  188POPC  H13S21621   6.374   6.223   4.006  0.2768  1.2283  1.0080
  188POPC  C21421622   6.342   6.078   4.159  0.3878 -0.0910  0.2926
  188POPC  H14R21623   6.413   6.009   4.108 -0.7695 -0.5838 -0.6828
  188POPC  H14S21624   6.258   6.024   4.207 -2.8189  2.8264 -1.7258
  188POPC  C21521625   6.410   6.180   4.251  0.6770 -0.0688 -0.0261
  188POPC  H15R21626   6.340   6.266   4.260  0.1142 -0.4882 -0.3525
  188POPC  H15S21627   6.497   6.226   4.201  1.2596  0.5611  1.5592
  188POPC  C21621628   6.454   6.128   4.386  0.1765  1.1216 -0.2295
  188POPC  H16R21629   6.353   6.118   4.431 -0.0299  1.5405 -0.5917
  188POPC  H16S21630   6.516   6.203   4.440  0.9523 -0.2714  0.8531
  188POPC  C21721631   6.524   5.993   4.382  0.5962 -0.1946 -0.2067
  188POPC  H17R21632   6.625   6.016   4.341  0.5436 -2.7627 -1.9304
  188POPC  H17S21633   6.472   5.917   4.319 -0.2476  1.1247 -1.1386
  188POPC  C21821634   6.532   5.940   4.529  0.1075  0.0008 -0.0119
  188POPC  H18R21635   6.428   5.931   4.568 -0.1598 -0.6598 -0.8738
  188POPC  H18S21636   6.595   6.006   4.592  0.8011 -1.0615  0.4229
  188POPC  H18T21637   6.577   5.839   4.524  0.0827 -0.0210  0.2063
  188POPC   C3321638   5.865   6.117   3.007 -0.1133  0.0756 -0.3310
  188POPC   H3X21639   5.870   6.210   2.947  1.0605 -1.1083 -2.1269
  188POPC   H3Y21640   5.968   6.109   3.050 -0.1916 -0.4303 -0.2336
  188POPC   C3421641   5.756   6.107   3.115 -0.0150  0.6233  0.9712
  188POPC   H4X21642   5.708   6.007   3.110 -1.0267  1.1575 -0.6194
  188POPC   H4Y21643   5.672   6.172   3.081 -1.1196 -2.2709 -2.0920
  188POPC   C3521644   5.800   6.140   3.253  0.6794 -0.1489  0.2802
  188POPC   H5X21645   5.840   6.244   3.261 -0.3157  0.4600 -2.3825
  188POPC   H5Y21646   5.892   6.080   3.269  0.0393 -1.4856 -0.9846
  188POPC   C3621647   5.712   6.124   3.377  0.6160 -0.0141 -0.0267
  188POPC   H6X21648   5.703   6.014   3.391  1.0039  0.0428  0.6480
  188POPC   H6Y21649   5.611   6.168   3.361  0.7556  0.2539 -0.1603
  188POPC   C3721650   5.776   6.184   3.502  0.1362  0.1107  0.3927
  188POPC   H7X21651   5.801   6.291   3.487  2.0407 -0.2985  0.4707
  188POPC   H7Y21652   5.866   6.124   3.527 -1.6490 -1.6202  2.9125
  188POPC   C3821653   5.676   6.185   3.616 -0.0307  0.0164  0.1756
  188POPC   H8X21654   5.641   6.084   3.646  0.1878  0.0170  0.4375
  188POPC   H8Y21655   5.580   6.235   3.593  1.0948  1.7352 -0.9646
  188POPC   C3921656   5.739   6.237   3.750  0.6823 -0.2202  0.4784
  188POPC   H9X21657   5.758   6.346   3.745 -1.0454  0.1488  1.3944
  188POPC   H9Y21658   5.829   6.180   3.783  1.5266  0.9945  0.2973
  188POPC  C31021659   5.636   6.216   3.863 -0.3261  0.1554 -0.3945
  188POPC  H10X21660   5.628   6.108   3.890 -0.4040 -0.3157 -2.1809
  188POPC  H10Y21661   5.538   6.256   3.828 -0.4379  0.4089  0.2069
  188POPC  C31121662   5.666   6.284   3.990  0.2949  0.1757  1.2749
  188POPC  H11X21663   5.573   6.296   4.050  0.2247  0.2662  1.1467
  188POPC  H11Y21664   5.686   6.390   3.962 -0.2114 -0.4356 -1.5053
  188POPC  C31221665   5.777   6.223   4.075  0.0686 -0.2677 -0.4021
  188POPC  H12X21666   5.872   6.241   4.020  0.2725  1.1233  0.3716
  188POPC  H12Y21667   5.760   6.113   4.080 -0.5201 -0.1892 -0.6305
  188POPC  C31321668   5.779   6.288   4.213  0.1604  0.3042  0.3680
  188POPC  H13X21669   5.678   6.325   4.243  0.2453 -0.0329  1.0834
  188POPC  H13Y21670   5.849   6.374   4.210 -0.8872  1.1899  0.8359
  188POPC  C31421671   5.825   6.200   4.335  0.6281 -0.9465 -0.3460
  188POPC  H14X21672   5.757   6.113   4.347  1.2484 -1.3553  0.2511
  188POPC  H14Y21673   5.830   6.263   4.426 -1.5510  0.1224 -0.9524
  188POPC  C31521674   5.965   6.148   4.314 -0.2086  0.9000 -0.2628
  188POPC  H15X21675   6.027   6.240   4.307  0.3931  0.4971 -0.2687
  188POPC  H15Y21676   5.982   6.099   4.215  1.6964  1.6602 -0.3412
  188POPC  C31621677   6.011   6.059   4.432  0.1878  0.9558  0.6373
  188POPC  H16X21678   5.944   5.971   4.430  0.2631  0.9363 -1.6759
  188POPC  H16Y21679   6.019   6.108   4.532  0.6439 -0.2419  1.1912
  188POPC  H16Z21680   6.108   6.013   4.406 -1.2133 -0.8029 -1.6377
  189SAPI   C1221681   5.628   6.276   6.480  0.5645  0.4879 -0.5170
  189SAPI    H221682   5.649   6.229   6.381 -2.3592  1.0587 -1.4612
  189SAPI    O221683   5.528   6.372   6.457 -0.8120  0.0667 -0.2811
  189SAPI   HO221684   5.513   6.385   6.363 -1.2650 -0.8287 -0.3342
  189SAPI   C1321685   5.580   6.166   6.573 -0.3028 -0.0869 -0.1882
  189SAPI    H321686   5.667   6.099   6.585 -0.1295  0.2071  0.2065
  189SAPI    O321687   5.477   6.092   6.519 -0.0732  0.0201 -0.3495
  189SAPI   HO321688   5.402   6.152   6.516  0.1028  0.3047  0.7480
  189SAPI   C1421689   5.551   6.216   6.711 -0.3040 -0.1345 -0.1238
  189SAPI    H421690   5.479   6.299   6.692 -1.5841 -1.0660  0.6080
  189SAPI    O421691   5.494   6.114   6.796  0.1923  0.1023 -0.1241
  189SAPI   HO421692   5.431   6.068   6.740  0.6061  0.5877 -1.0068
  189SAPI   C1521693   5.681   6.277   6.767 -0.1664 -0.4483 -0.0897
  189SAPI    H521694   5.753   6.192   6.765 -0.3176 -0.5805  0.0417
  189SAPI    O521695   5.679   6.320   6.908  0.9041  0.4027  0.8526
  189SAPI   HO521696   5.770   6.347   6.923  0.6877  0.4283  2.1632
  189SAPI   C1621697   5.732   6.393   6.677  0.2405  0.4179 -0.1793
  189SAPI    H621698   5.655   6.474   6.676 -1.3212 -1.0020 -4.0442
  189SAPI    O621699   5.858   6.454   6.725  0.2582  0.2175 -0.4090
  189SAPI   HO621700   5.910   6.469   6.645  0.2696  1.2244 -0.2204
  189SAPI   C1121701   5.757   6.331   6.541  0.1496 -0.5914 -0.0149
  189SAPI    H121702   5.830   6.251   6.565 -0.4757 -1.5252 -1.1371
  189SAPI     P21703   5.922   6.375   6.334  0.9257 -0.0402  0.1608
  189SAPI   O1321704   6.005   6.266   6.386 -0.8609  0.3945 -0.2327
  189SAPI   O1421705   5.998   6.482   6.263  0.2698  0.2531 -0.5170
  189SAPI   O1221706   5.814   6.425   6.445 -0.2494 -0.0473  0.2646
  189SAPI   O1121707   5.828   6.302   6.225  0.0974  0.4324  0.4622
  189SAPI    C121708   5.833   6.344   6.081 -0.6337 -0.0877  0.3279
  189SAPI    HA21709   5.839   6.454   6.066  0.1855 -0.4290 -2.0058
  189SAPI    HB21710   5.911   6.288   6.027  0.7284  1.0518  1.0783
  189SAPI    C221711   5.694   6.302   6.015 -0.3102  0.1768  0.0525
  189SAPI    HS21712   5.614   6.326   6.088 -0.3459 -0.6251  0.2852
  189SAPI   O2121713   5.718   6.166   5.993 -0.0255  0.2302  0.0450
  189SAPI   C2121714   5.609   6.104   5.955  0.3827  0.1383 -0.7300
  189SAPI   O2221715   5.495   6.145   5.954  0.0020 -0.2379 -0.0753
  189SAPI   C2221716   5.646   5.957   5.950  0.4549 -0.1493  0.0679
  189SAPI   H2R21717   5.748   5.945   5.908  0.6583  1.0284  0.2108
  189SAPI   H2S21718   5.641   5.926   6.057  0.2550  1.4789  0.5391
  189SAPI    C321719   5.671   6.384   5.881 -0.7907  0.6945 -0.5871
  189SAPI    HX21720   5.672   6.492   5.907  0.6953  0.8651 -1.2937
  189SAPI    HY21721   5.571   6.368   5.836 -0.8996 -0.1290 -0.0783
  189SAPI   O3121722   5.784   6.357   5.790 -0.7238  0.2895  0.0473
  189SAPI   C3121723   5.764   6.296   5.676 -0.0840 -0.8175 -0.1683
  189SAPI   O3221724   5.664   6.235   5.635 -0.0929  0.0252  0.1473
  189SAPI   C3221725   5.900   6.312   5.595  0.0189  0.3813 -0.5727
  189SAPI   H2X21726   5.981   6.329   5.669 -0.2847  0.8589 -0.3485
  189SAPI   H2Y21727   5.899   6.407   5.538 -2.2823  0.5515 -0.2762
  189SAPI   C2321728   5.535   5.870   5.877 -0.6316 -0.4082 -0.4828
  189SAPI   H3R21729   5.436   5.916   5.897 -0.0578  0.1106  1.1836
  189SAPI   H3S21730   5.532   5.767   5.919 -2.1769 -0.2424 -0.1556
  189SAPI   C2421731   5.549   5.860   5.727  0.0543 -0.4942 -0.2009
  189SAPI   H4R21732   5.648   5.831   5.686  0.1543 -1.6602  0.8279
  189SAPI   H4S21733   5.531   5.963   5.689  0.0682 -0.6742 -0.7033
  189SAPI   C2521734   5.444   5.761   5.671  0.5205 -0.1088  0.1372
  189SAPI   H5R21735   5.459   5.653   5.691 -0.8605 -0.4296 -0.5114
  189SAPI   C2621736   5.335   5.801   5.601 -0.4853 -0.4113  0.1806
  189SAPI   H6R21737   5.261   5.722   5.579  0.8727 -1.8402  0.6655
  189SAPI   C2721738   5.294   5.942   5.561  0.1292  0.0760 -0.5002
  189SAPI   H7R21739   5.310   5.946   5.451  1.3220 -0.2406 -0.3483
  189SAPI   H7S21740   5.357   6.019   5.610 -0.2825 -0.3357  0.7139
  189SAPI   C2821741   5.148   5.983   5.590 -0.1774 -0.5139  0.0792
  189SAPI   H8R21742   5.083   5.894   5.597 -0.3050 -0.2353  2.7975
  189SAPI   C2921743   5.114   6.109   5.615 -0.0380  0.2043 -0.0232
  189SAPI   H9R21744   5.008   6.127   5.637  0.3558  1.5041  0.8910
  189SAPI  C21021745   5.211   6.227   5.622 -0.4275 -0.6195  0.3751
  189SAPI  H10R21746   5.283   6.190   5.697 -0.2221  0.3843  0.6799
  189SAPI  H10S21747   5.153   6.307   5.673  1.7236  1.2689 -0.0359
  189SAPI  C21121748   5.305   6.276   5.501  0.0500  0.0959 -0.1277
  189SAPI  H11R21749   5.412   6.259   5.521 -0.3343  1.4037  3.5138
  189SAPI  C21221750   5.267   6.323   5.379 -0.3905  0.8084  0.1314
  189SAPI  H12R21751   5.347   6.358   5.312  1.6058  0.5980  2.3146
  189SAPI  C21321752   5.122   6.342   5.334 -0.1434  0.4803  0.0550
  189SAPI  H13R21753   5.098   6.450   5.339 -5.8699 -0.6686  0.0385
  189SAPI  H13S21754   5.046   6.298   5.402 -0.2591  0.4505 -0.0938
  189SAPI  C21421755   5.099   6.294   5.190 -0.5394  0.6386 -0.4102
  189SAPI  H14R21756   5.037   6.204   5.178 -1.4802  1.0739  1.0036
  189SAPI  C21521757   5.143   6.349   5.071  0.4453 -0.7786 -0.6388
  189SAPI  H15R21758   5.115   6.299   4.978  0.7119 -0.5368 -0.8488
  189SAPI  C21621759   5.218   6.476   5.057  0.2821 -0.1333  0.0032
  189SAPI  H16R21760   5.223   6.520   5.158 -0.6908 -0.0189  0.0108
  189SAPI  H16S21761   5.170   6.554   4.995  0.2440 -1.2749 -1.4522
  189SAPI  C21721762   5.360   6.449   4.998  0.0290 -0.1479 -0.2221
  189SAPI  H17R21763   5.412   6.366   5.051  0.1890 -0.6378 -1.1346
  189SAPI  H17S21764   5.429   6.532   5.025 -0.6243  1.2027 -2.5847
  189SAPI  C21821765   5.352   6.413   4.845 -0.3165 -0.2845 -0.2196
  189SAPI  H18R21766   5.278   6.480   4.798  0.2636  0.1212 -0.5545
  189SAPI  H18S21767   5.316   6.309   4.826  0.7986 -0.3206 -2.2351
  189SAPI  C21921768   5.481   6.423   4.767  0.3696 -0.0226 -0.1686
  189SAPI  H19R21769   5.555   6.354   4.812  2.1517  2.6341  1.0531
  189SAPI  H19S21770   5.522   6.524   4.784 -2.8627  1.6310 -1.7030
  189SAPI  C22021771   5.476   6.403   4.615  0.7910  0.6798 -0.0461
  189SAPI  H20R21772   5.472   6.294   4.593 -2.2381  0.5619  0.8670
  189SAPI  H20S21773   5.566   6.444   4.564  0.6980  0.1941 -0.6016
  189SAPI  H20T21774   5.387   6.448   4.567  0.8050  1.2305  0.4407
  189SAPI   C3321775   5.940   6.176   5.520  0.1803 -0.5893 -0.3634
  189SAPI   H3X21776   5.900   6.094   5.583  2.1954 -1.9576 -0.8502
  189SAPI   H3Y21777   6.050   6.166   5.511  0.7323  2.8365  1.6753
  189SAPI   C3421778   5.874   6.166   5.382  0.2323  0.3691  0.3989
  189SAPI   H4X21779   5.919   6.240   5.312 -1.5755  0.1669 -1.0190
  189SAPI   H4Y21780   5.767   6.193   5.393  0.9408  2.5498  2.0792
  189SAPI   C3521781   5.899   6.025   5.318  0.1813  0.0503 -0.5966
  189SAPI   H5X21782   6.002   5.993   5.342 -1.1926 -2.3219  2.5932
  189SAPI   H5Y21783   5.897   6.018   5.207  0.1351 -2.5098 -0.4796
  189SAPI   C3621784   5.798   5.920   5.371  0.2751 -0.0924  0.2486
  189SAPI   H6X21785   5.698   5.949   5.331 -0.0180 -0.2836  0.8338
  189SAPI   H6Y21786   5.785   5.930   5.480  1.0221  1.6064  0.2013
  189SAPI   C3721787   5.837   5.782   5.329  0.2922  0.0452 -0.2003
  189SAPI   H7X21788   5.935   5.754   5.374 -0.0380 -1.3572 -0.3290
  189SAPI   H7Y21789   5.845   5.778   5.218 -0.5933  0.2113 -0.2770
  189SAPI   C3821790   5.735   5.673   5.373 -0.8063 -0.1367 -0.2429
  189SAPI   H8X21791   5.630   5.701   5.350 -0.6967  0.3474 -0.1681
  189SAPI   H8Y21792   5.748   5.647   5.480  2.1893  0.6288 -0.3867
  189SAPI   C3921793   5.757   5.544   5.302 -0.1810  0.5351  0.7318
  189SAPI   H9X21794   5.743   5.564   5.193  3.1135  0.0689  0.1590
  189SAPI   H9Y21795   5.677   5.470   5.322 -0.0576 -0.2991 -1.6578
  189SAPI  C31021796   5.901   5.482   5.314  0.2147 -0.7794 -0.0933
  189SAPI  H10X21797   5.902   5.451   5.421 -0.8075  0.7834  0.4050
  189SAPI  H10Y21798   5.974   5.563   5.292 -0.2106 -0.8038 -1.6410
  189SAPI  C31121799   5.921   5.366   5.221 -0.2920 -0.3303 -0.7215
  189SAPI  H11X21800   5.867   5.274   5.253 -1.9442  1.2555  1.1843
  189SAPI  H11Y21801   6.028   5.336   5.221 -0.4384 -0.8770  0.3616
  189SAPI  C31221802   5.895   5.401   5.070 -0.1913 -0.5497 -0.2171
  189SAPI  H12X21803   5.787   5.400   5.044 -0.3569 -1.5874  0.4879
  189SAPI  H12Y21804   5.937   5.312   5.019  1.1599  0.4079 -0.8149
  189SAPI  C31321805   5.959   5.536   5.026 -0.3991  0.3855 -0.0342
  189SAPI  H13X21806   6.054   5.542   5.084  0.1272  3.2692 -1.1016
  189SAPI  H13Y21807   5.896   5.623   5.056 -1.4373 -0.5338  0.4424
  189SAPI  C31421808   5.986   5.543   4.876 -0.6957  0.1005 -0.5610
  189SAPI  H14X21809   5.895   5.500   4.828 -0.3081  1.2171 -2.3352
  189SAPI  H14Y21810   6.071   5.479   4.847 -0.4204  0.3600 -0.3268
  189SAPI  C31521811   5.989   5.685   4.816  0.4721 -0.2797 -0.5887
  189SAPI  H15X21812   6.080   5.736   4.855  0.2925  0.4408 -1.0936
  189SAPI  H15Y21813   5.901   5.743   4.852  0.4509 -0.9394  0.4289
  189SAPI  C31621814   6.008   5.676   4.660 -0.0896 -0.2717 -0.0701
  189SAPI  H16X21815   6.016   5.782   4.628 -3.9714  0.0083 -0.3748
  189SAPI  H16Y21816   5.914   5.642   4.611 -0.8586  0.7085  0.6914
  189SAPI  C31721817   6.122   5.583   4.619  0.1298  0.5838 -0.1375
  189SAPI  H17X21818   6.104   5.479   4.654  1.1262  0.3117 -0.4108
  189SAPI  H17Y21819   6.219   5.609   4.668  1.8215 -2.6701 -1.5762
  189SAPI  C31821820   6.133   5.566   4.463 -0.0543 -0.7658 -0.5819
  189SAPI  H18X21821   6.039   5.514   4.433 -0.8401 -1.7944  3.3894
  189SAPI  H18Y21822   6.219   5.497   4.446  0.0975 -0.0122 -2.9809
  189SAPI  H18Z21823   6.145   5.669   4.424 -1.4429  0.1096  1.2502
  190SAPI   C1221824   0.245   1.966   6.570  0.0281 -0.3647  0.1931
  190SAPI    H221825   0.330   2.012   6.515  3.1884 -2.5257  3.0778
  190SAPI    O221826   0.286   1.969   6.707 -0.7539 -0.8585  0.5490
  190SAPI   HO221827   0.353   1.900   6.707  1.9120  1.6153 -0.8173
  190SAPI   C1321828   0.132   2.066   6.546 -0.1713  0.1860  0.3332
  190SAPI    H321829   0.113   2.070   6.437 -1.1785 -1.7974  0.4093
  190SAPI    O321830   0.172   2.198   6.587 -0.9171  0.2617 -0.5001
  190SAPI   HO321831   0.100   2.221   6.647 -0.9874  0.3802 -0.6286
  190SAPI   C1421832  -0.001   2.011   6.616 -0.4492 -0.3846  0.2782
  190SAPI    H421833   0.018   2.006   6.725  2.9641 -2.5452 -0.3539
  190SAPI    O421834  -0.114   2.098   6.594 -0.1137  0.3897  0.0596
  190SAPI   HO421835  -0.133   2.112   6.501 -1.3883 -1.1474  0.0715
  190SAPI   C1521836  -0.035   1.871   6.573  0.4660  0.3097  0.0762
  190SAPI    H521837  -0.061   1.871   6.465 -1.6718 -2.4172  0.5520
  190SAPI    O521838  -0.133   1.806   6.649 -0.0344  0.4334  0.8977
  190SAPI   HO521839  -0.197   1.758   6.596  0.5950 -0.3852  0.8544
  190SAPI   C1621840   0.087   1.777   6.583 -0.3337 -0.0551  0.4523
  190SAPI    H621841   0.105   1.755   6.690 -2.7978 -1.6602  0.5814
  190SAPI    O621842   0.067   1.646   6.527 -0.4848 -0.2374 -0.8893
  190SAPI   HO621843   0.147   1.643   6.475  0.8984 -0.2244  1.1499
  190SAPI   C1121844   0.210   1.838   6.516 -0.2616 -0.2566  0.3644
  190SAPI    H121845   0.184   1.856   6.409  1.3942 -0.4372 -0.0756
  190SAPI     P21846   0.381   1.663   6.402  0.6287  0.1759  0.2933
  190SAPI   O1321847   0.260   1.603   6.348  0.5473 -0.3360 -0.0762
  190SAPI   O1421848   0.478   1.568   6.455 -0.3926 -0.2035  0.0891
  190SAPI   O1221849   0.331   1.756   6.531 -0.5920 -0.4054  0.1289
  190SAPI   O1121850   0.443   1.767   6.292  0.1909  0.6754 -0.0271
  190SAPI    C121851   0.538   1.863   6.345  0.3598  0.1902 -0.0271
  190SAPI    HA21852   0.487   1.959   6.366  2.4456  1.2424  0.3517
  190SAPI    HB21853   0.581   1.839   6.445  2.9141 -1.2914 -1.4145
  190SAPI    C221854   0.657   1.885   6.240 -0.5563 -1.1158  0.9199
  190SAPI    HS21855   0.667   1.995   6.229 -0.2214 -1.3575 -1.3458
  190SAPI   O2121856   0.621   1.830   6.113  0.3813 -0.7023 -0.2603
  190SAPI   C2121857   0.537   1.913   6.048 -1.0345  0.1665 -0.0178
  190SAPI   O2221858   0.502   2.022   6.083 -0.2847 -0.1240 -0.5634
  190SAPI   C2221859   0.488   1.841   5.921 -0.2962  0.2680 -0.1909
  190SAPI   H2R21860   0.500   1.915   5.839 -0.2300  0.9025  0.3804
  190SAPI   H2S21861   0.539   1.746   5.898  0.0291  0.4361 -0.1729
  190SAPI    C321862   0.797   1.831   6.288 -0.4535  0.4840 -0.2422
  190SAPI    HX21863   0.838   1.892   6.372  0.0797  1.2371 -1.0327
  190SAPI    HY21864   0.869   1.858   6.208  0.0091 -1.4674 -0.5021
  190SAPI   O3121865   0.792   1.699   6.325  0.4016 -0.1575  0.3171
  190SAPI   C3121866   0.846   1.620   6.226  0.3570  0.3607 -0.1384
  190SAPI   O3221867   0.913   1.654   6.130 -0.2394 -0.3158  0.3345
  190SAPI   C3221868   0.801   1.470   6.247  0.3070 -0.6761  0.1522
  190SAPI   H2X21869   0.744   1.461   6.342 -0.1905  1.4921  0.0812
  190SAPI   H2Y21870   0.897   1.414   6.255  0.8865  0.1223 -1.0635
  190SAPI   C2321871   0.338   1.814   5.923 -0.9984 -0.0525 -0.0708
  190SAPI   H3R21872   0.285   1.909   5.947  3.0324  2.5885 -0.9699
  190SAPI   H3S21873   0.330   1.750   6.013  1.7623 -0.9322 -0.4045
  190SAPI   C2421874   0.281   1.738   5.805  0.3322 -0.3187 -0.6902
  190SAPI   H4R21875   0.177   1.705   5.827  0.0401  1.9903  1.7856
  190SAPI   H4S21876   0.338   1.645   5.784  1.2998  0.6178 -2.2971
  190SAPI   C2521877   0.283   1.830   5.687  0.0301 -0.4625  0.4657
  190SAPI   H5R21878   0.219   1.918   5.703 -0.7002 -1.2966  2.2855
  190SAPI   C2621879   0.375   1.820   5.584 -0.0648 -0.5215 -0.1338
  190SAPI   H6R21880   0.374   1.896   5.504  1.1438 -0.5266 -0.1693
  190SAPI   C2721881   0.490   1.731   5.564  0.1973  0.4215 -0.1379
  190SAPI   H7R21882   0.510   1.676   5.659 -1.1888  0.3856  0.1389
  190SAPI   H7S21883   0.580   1.795   5.552  0.2069  0.0493 -2.1243
  190SAPI   C2821884   0.486   1.631   5.448  0.8728 -0.1956  0.2605
  190SAPI   H8R21885   0.415   1.547   5.456  0.8451 -0.1267  0.7461
  190SAPI   C2921886   0.558   1.636   5.334 -0.5258  0.1741  0.6830
  190SAPI   H9R21887   0.538   1.566   5.252  0.0232  0.6809  0.1188
  190SAPI  C21021888   0.655   1.745   5.294 -0.0686 -0.3879 -1.1431
  190SAPI  H10R21889   0.689   1.813   5.375  1.1183  0.0841 -2.0319
  190SAPI  H10S21890   0.609   1.810   5.217 -1.6187  1.9805  1.6593
  190SAPI  C21121891   0.776   1.687   5.228  0.8595 -0.0892  0.2044
  190SAPI  H11R21892   0.848   1.633   5.291  1.1877  0.8237  0.6268
  190SAPI  C21221893   0.816   1.705   5.097  0.0246 -0.1118  0.6732
  190SAPI  H12R21894   0.900   1.638   5.073 -0.8075 -0.8680 -0.1913
  190SAPI  C21321895   0.760   1.786   4.979  0.7113  0.3475  0.3090
  190SAPI  H13R21896   0.819   1.880   4.969 -0.0754  0.6453 -1.9501
  190SAPI  H13S21897   0.655   1.815   5.000 -0.5044 -3.8488  0.3892
  190SAPI  C21421898   0.759   1.710   4.852  0.4211  0.4702 -0.9543
  190SAPI  H14R21899   0.782   1.605   4.879 -1.0215  0.7692  1.6217
  190SAPI  C21521900   0.753   1.748   4.723  0.1504  0.3840  0.5162
  190SAPI  H15R21901   0.728   1.666   4.654  4.3281 -0.1540 -0.4632
  190SAPI  C21621902   0.736   1.887   4.662 -0.2239  0.8595 -0.5338
  190SAPI  H16R21903   0.754   1.968   4.736  1.7198 -0.0553  0.0021
  190SAPI  H16S21904   0.640   1.904   4.607  0.1644 -1.0168 -1.8144
  190SAPI  C21721905   0.843   1.884   4.557 -0.3783 -0.3254 -0.1653
  190SAPI  H17R21906   0.941   1.846   4.594 -0.7691 -2.4800 -1.2837
  190SAPI  H17S21907   0.871   1.983   4.513 -0.2707 -1.1345 -1.9469
  190SAPI  C21821908   0.799   1.797   4.436 -0.0235  0.0508  0.5755
  190SAPI  H18R21909   0.709   1.848   4.392 -0.7012 -0.6830  1.1035
  190SAPI  H18S21910   0.758   1.701   4.474 -0.0218 -0.4113 -0.5730
  190SAPI  C21921911   0.905   1.787   4.328 -0.0982 -0.4685  0.1359
  190SAPI  H19R21912   0.999   1.752   4.376 -0.7869  0.1609  1.9908
  190SAPI  H19S21913   0.927   1.889   4.290 -0.8224 -1.0087 -1.7990
  190SAPI  C22021914   0.864   1.696   4.215  0.0534 -0.3652 -0.3050
  190SAPI  H20R21915   0.880   1.590   4.243 -0.8622 -0.1238  1.2018
  190SAPI  H20S21916   0.927   1.707   4.124  0.7195 -2.1565 -0.0787
  190SAPI  H20T21917   0.757   1.707   4.188 -0.5091 -2.1547  1.0825
  190SAPI   C3321918   0.726   1.406   6.131 -0.6623  0.2054 -0.4106
  190SAPI   H3X21919   0.702   1.300   6.150  0.9268 -0.0436  0.2394
  190SAPI   H3Y21920   0.804   1.397   6.052  0.1144 -2.7740  0.6423
  190SAPI   C3421921   0.598   1.488   6.095  0.2325  0.0265  0.3317
  190SAPI   H4X21922   0.623   1.586   6.049 -2.0454  0.6672  0.3996
  190SAPI   H4Y21923   0.549   1.508   6.193  1.0364  0.1331  0.7130
  190SAPI   C3521924   0.499   1.408   6.010 -0.2029 -0.9633 -0.3413
  190SAPI   H5X21925   0.404   1.463   6.021  0.9208  1.1969 -1.0281
  190SAPI   H5Y21926   0.487   1.306   6.053  0.8127 -1.6748 -1.6833
  190SAPI   C3621927   0.542   1.383   5.864 -0.1425  0.1609 -0.4145
  190SAPI   H6X21928   0.651   1.363   5.857 -0.1781 -1.0248  2.0640
  190SAPI   H6Y21929   0.524   1.473   5.801 -1.8401  1.2342  1.5584
  190SAPI   C3721930   0.469   1.270   5.789  0.4048  0.6144  0.8444
  190SAPI   H7X21931   0.371   1.259   5.839  1.4581 -0.2475  2.7701
  190SAPI   H7Y21932   0.503   1.165   5.800 -4.4362 -1.7095 -4.1234
  190SAPI   C3821933   0.445   1.294   5.632  0.3042 -0.6640 -0.2731
  190SAPI   H8X21934   0.388   1.387   5.612  0.4407 -0.6966 -0.8317
  190SAPI   H8Y21935   0.379   1.208   5.608  0.1044 -0.8977  1.0857
  190SAPI   C3921936   0.566   1.300   5.551 -0.1985  0.6894 -0.7065
  190SAPI   H9X21937   0.635   1.219   5.584  1.4491  1.6946 -1.6309
  190SAPI   H9Y21938   0.616   1.398   5.566 -2.3969  1.5834  0.9695
  190SAPI  C31021939   0.540   1.282   5.399 -0.2947  0.1447 -0.0327
  190SAPI  H10X21940   0.467   1.352   5.354  1.0845  1.4661 -0.2355
  190SAPI  H10Y21941   0.505   1.179   5.377  1.5136 -0.1953 -1.3831
  190SAPI  C31121942   0.670   1.301   5.314 -0.1389 -0.2743  0.8726
  190SAPI  H11X21943   0.750   1.242   5.362  0.7798  0.1245 -0.1368
  190SAPI  H11Y21944   0.703   1.407   5.307  0.2769 -0.4283  0.4514
  190SAPI  C31221945   0.653   1.251   5.170 -0.0477 -0.0717  0.5770
  190SAPI  H12X21946   0.628   1.146   5.192  1.1525 -0.1779  1.4815
  190SAPI  H12Y21947   0.748   1.253   5.112 -1.4506 -2.0195 -1.8916
  190SAPI  C31321948   0.549   1.321   5.084 -0.0030 -0.4086  0.1793
  190SAPI  H13X21949   0.579   1.426   5.066  0.1763 -0.3036  1.0681
  190SAPI  H13Y21950   0.452   1.317   5.139 -1.5733 -0.0976 -2.4743
  190SAPI  C31421951   0.525   1.252   4.945 -0.9263  0.1453 -0.5707
  190SAPI  H14X21952   0.437   1.305   4.902 -1.4671  0.3311  0.7473
  190SAPI  H14Y21953   0.496   1.147   4.969 -0.3106 -0.7186 -3.3638
  190SAPI  C31521954   0.637   1.246   4.840  0.1511 -0.2917 -0.7716
  190SAPI  H15X21955   0.596   1.180   4.760 -0.0227 -0.9220 -0.1600
  190SAPI  H15Y21956   0.727   1.210   4.893 -0.9978 -0.5360  1.0346
  190SAPI  C31621957   0.664   1.384   4.765 -0.2610 -0.0312 -0.1285
  190SAPI  H16X21958   0.771   1.378   4.739 -0.3091  0.2251 -0.3857
  190SAPI  H16Y21959   0.642   1.462   4.842 -0.1121  0.3957 -0.5150
  190SAPI  C31721960   0.568   1.415   4.644 -0.2515  0.1041  0.6055
  190SAPI  H17X21961   0.557   1.526   4.649  0.8198  0.1723  1.9207
  190SAPI  H17Y21962   0.469   1.372   4.668 -0.3676 -1.5470 -2.6006
  190SAPI  C31821963   0.627   1.378   4.511  0.5201  0.1144 -0.1394
  190SAPI  H18X21964   0.642   1.268   4.508  3.4785  0.5048 -1.6790
  190SAPI  H18Y21965   0.727   1.427   4.507 -0.4545  2.1988  0.4885
  190SAPI  H18Z21966   0.552   1.401   4.433 -0.3533  1.4962  1.0963
  191SAPI   C1221967   4.545   3.691   1.992 -0.3660 -0.0120  0.3613
  191SAPI    H221968   4.457   3.687   2.060 -1.6964  0.2280 -1.3366
  191SAPI    O221969   4.519   3.593   1.891  0.0397  0.6303  0.4389
  191SAPI   HO221970   4.566   3.517   1.926 -0.6566  0.4436  0.9671
  191SAPI   C1321971   4.540   3.840   1.944 -0.4606 -0.5179 -0.0828
  191SAPI    H321972   4.547   3.912   2.029  0.7695 -0.6558 -0.0571
  191SAPI    O321973   4.416   3.876   1.890 -0.5663 -0.2155  0.2221
  191SAPI   HO321974   4.404   3.971   1.893  0.9540  0.1239 -2.4680
  191SAPI   C1421975   4.657   3.870   1.858  0.3423 -0.3013 -0.0561
  191SAPI    H421976   4.646   3.799   1.773  0.4453 -1.8144  1.1664
  191SAPI    O421977   4.655   4.008   1.815  0.1777  0.5924  0.0733
  191SAPI   HO421978   4.678   4.009   1.722  2.1774 -2.7278  0.4527
  191SAPI   C1521979   4.791   3.833   1.932  0.2450 -0.2515  0.4539
  191SAPI    H521980   4.796   3.894   2.025  2.2669  1.5340 -0.7882
  191SAPI    O521981   4.900   3.873   1.849 -0.2849 -0.4947 -0.4426
  191SAPI   HO521982   4.939   3.952   1.887 -1.4601  0.0405 -0.3328
  191SAPI   C1621983   4.796   3.695   1.970 -0.8188 -0.3213  0.3424
  191SAPI    H621984   4.799   3.625   1.883  0.4376  0.1835 -0.0227
  191SAPI    O621985   4.912   3.679   2.049  0.4507 -0.2825 -0.2323
  191SAPI   HO621986   4.889   3.613   2.114  0.5833  0.8694  1.0138
  191SAPI   C1121987   4.681   3.672   2.067 -0.0778  0.7294 -0.3369
  191SAPI    H121988   4.699   3.749   2.146 -2.4259 -1.0882  2.0212
  191SAPI     P21989   4.613   3.498   2.258  0.1756 -0.2075 -0.5736
  191SAPI   O1321990   4.542   3.373   2.231 -0.0894 -0.6970 -0.6463
  191SAPI   O1421991   4.540   3.620   2.300 -0.3151  0.6586 -0.5788
  191SAPI   O1221992   4.689   3.543   2.118 -0.5038  0.9343  0.3134
  191SAPI   O1121993   4.742   3.475   2.354  0.1339  0.0204 -0.2993
  191SAPI    C121994   4.829   3.576   2.400 -0.2037 -0.1504 -0.2086
  191SAPI    HA21995   4.926   3.554   2.351 -0.9406 -1.0894 -1.2925
  191SAPI    HB21996   4.786   3.677   2.381 -0.3362  0.1976  1.8376
  191SAPI    C221997   4.843   3.575   2.557  0.0559  0.1001  0.2514
  191SAPI    HS21998   4.919   3.651   2.584  0.8848 -0.0076 -1.6615
  191SAPI   O2121999   4.868   3.447   2.622  0.4296 -0.0026  0.7838
  191SAPI   C2122000   4.984   3.398   2.594 -0.1023 -0.7180  0.2249
  191SAPI   O2222001   5.071   3.441   2.517 -0.1887  0.4257 -0.2385
  191SAPI   C2222002   5.001   3.273   2.677  0.3653  0.4429 -0.7647
  191SAPI   H2R22003   4.906   3.248   2.729  1.9864 -1.6449  1.2954
  191SAPI   H2S22004   5.027   3.193   2.605  3.1440  0.3119  0.3093
  191SAPI    C322005   4.704   3.629   2.609 -0.2766 -0.1745  0.7247
  191SAPI    HX22006   4.625   3.557   2.578 -1.3590  1.2761  0.0547
  191SAPI    HY22007   4.685   3.731   2.569  0.4897 -0.6185 -0.7671
  191SAPI   O3122008   4.710   3.653   2.756 -0.1810 -0.5726  0.2033
  191SAPI   C3122009   4.612   3.605   2.826  0.3056  0.0726 -0.0940
  191SAPI   O3222010   4.510   3.559   2.784 -0.1240  0.2282 -0.4326
  191SAPI   C3222011   4.653   3.616   2.977  0.5403  0.6610  0.2317
  191SAPI   H2X22012   4.630   3.720   3.009 -0.8071  0.4335  0.0109
  191SAPI   H2Y22013   4.763   3.603   2.985  0.6204  0.2496 -1.4392
  191SAPI   C2322014   5.118   3.279   2.782 -1.1983  0.5977  0.2430
  191SAPI   H3R22015   5.211   3.318   2.736 -1.1060 -2.3598 -2.3050
  191SAPI   H3S22016   5.149   3.177   2.813 -0.4663  0.0632 -2.1023
  191SAPI   C2422017   5.079   3.356   2.904  0.0061 -0.5347 -0.8910
  191SAPI   H4R22018   5.043   3.456   2.871 -1.9613 -2.1374 -3.7324
  191SAPI   H4S22019   5.172   3.376   2.962 -0.2007 -1.7843 -0.1140
  191SAPI   C2522020   4.985   3.283   2.998 -0.3404  0.8796  0.3317
  191SAPI   H5R22021   4.900   3.236   2.947  0.7170 -1.0983  0.3393
  191SAPI   C2622022   4.991   3.264   3.133 -0.1751  0.6557 -0.3935
  191SAPI   H6R22023   4.917   3.206   3.190  1.8813 -1.7661 -0.0873
  191SAPI   C2722024   5.101   3.317   3.224 -0.3004 -0.4760 -0.4757
  191SAPI   H7R22025   5.175   3.370   3.160 -2.8903  1.2690 -2.1280
  191SAPI   H7S22026   5.148   3.222   3.257  1.0731  0.6019  0.8084
  191SAPI   C2822027   5.060   3.406   3.343  0.4761 -0.0353 -0.4075
  191SAPI   H8R22028   4.981   3.482   3.335 -0.8832 -1.2287  1.2715
  191SAPI   C2922029   5.132   3.397   3.456  0.1546 -0.3681  0.8510
  191SAPI   H9R22030   5.096   3.446   3.548 -0.2187  0.2164  0.3896
  191SAPI  C21022031   5.252   3.318   3.479  0.3818 -0.8964 -1.0099
  191SAPI  H10R22032   5.280   3.252   3.394  1.4823 -1.2203 -0.4147
  191SAPI  H10S22033   5.214   3.243   3.552  0.1373 -0.9904 -1.2340
  191SAPI  C21122034   5.368   3.400   3.535 -0.4182  0.7762  0.2366
  191SAPI  H11R22035   5.446   3.422   3.461 -1.5016  2.3195 -0.4541
  191SAPI  C21222036   5.387   3.435   3.666 -0.5848  0.5241  0.8625
  191SAPI  H12R22037   5.481   3.490   3.682  0.5892 -0.5443 -2.0144
  191SAPI  C21322038   5.298   3.396   3.777 -0.5755 -0.7097 -0.3328
  191SAPI  H13R22039   5.291   3.285   3.775  3.0819 -1.0232 -0.5305
  191SAPI  H13S22040   5.195   3.433   3.761 -0.1449  0.5512 -0.2665
  191SAPI  C21422041   5.347   3.446   3.913 -0.8814 -0.0911  0.2030
  191SAPI  H14R22042   5.436   3.392   3.949  0.0910  1.6409  0.4523
  191SAPI  C21522043   5.305   3.552   3.972 -0.2468 -0.0649 -0.0865
  191SAPI  H15R22044   5.360   3.587   4.061 -0.2965  0.7022 -0.3599
  191SAPI  C21622045   5.204   3.646   3.915 -0.0801 -0.7406  0.6991
  191SAPI  H16R22046   5.182   3.634   3.807 -0.6638  0.9164  0.6258
  191SAPI  H16S22047   5.243   3.749   3.933 -0.0738 -0.3927 -1.2679
  191SAPI  C21722048   5.066   3.640   3.986 -0.7269 -0.0023  0.0905
  191SAPI  H17R22049   5.036   3.533   3.979  3.3689 -1.2819  0.9464
  191SAPI  H17S22050   4.985   3.691   3.930  1.0074 -0.3988 -2.8588
  191SAPI  C21822051   5.066   3.695   4.124 -0.0133 -0.6153 -0.9839
  191SAPI  H18R22052   5.097   3.801   4.108 -0.4599 -0.1491  1.1008
  191SAPI  H18S22053   5.147   3.638   4.174  0.3701  0.5295 -0.2800
  191SAPI  C21922054   4.931   3.680   4.191 -0.3117  0.2314 -0.7492
  191SAPI  H19R22055   4.905   3.572   4.186  0.9269 -0.1835  1.2316
  191SAPI  H19S22056   4.850   3.732   4.137 -0.0300  0.6005 -0.8138
  191SAPI  C22022057   4.928   3.723   4.337  0.6398 -0.3846  0.5488
  191SAPI  H20R22058   4.960   3.827   4.358 -3.7148  0.8816  1.5603
  191SAPI  H20S22059   5.008   3.660   4.380  2.0165  1.3219  0.5482
  191SAPI  H20T22060   4.829   3.714   4.387  0.3518 -0.4633 -0.0260
  191SAPI   C3322061   4.572   3.524   3.061  0.6831  0.8401 -0.3200
  191SAPI   H3X22062   4.586   3.422   3.019  1.3688  1.0388 -0.5725
  191SAPI   H3Y22063   4.462   3.530   3.043  0.8151  2.1731 -0.7352
  191SAPI   C3422064   4.602   3.536   3.213 -0.2893  0.2578  0.2879
  191SAPI   H4X22065   4.510   3.572   3.264 -0.8155 -0.8418  0.1235
  191SAPI   H4Y22066   4.680   3.614   3.229 -0.0176 -0.1118  0.8071
  191SAPI   C3522067   4.651   3.405   3.275  0.0631 -0.7924 -0.1752
  191SAPI   H5X22068   4.743   3.374   3.223  0.9572 -0.6113  1.2635
  191SAPI   H5Y22069   4.567   3.331   3.274 -0.4047 -0.2526 -2.4191
  191SAPI   C3622070   4.689   3.416   3.421 -0.0229  0.5436  0.1921
  191SAPI   H6X22071   4.594   3.442   3.473 -0.3282  1.5770 -0.8500
  191SAPI   H6Y22072   4.762   3.496   3.442  1.0192 -0.1259 -0.8088
  191SAPI   C3722073   4.743   3.279   3.481 -0.7572  1.3213 -0.0474
  191SAPI   H7X22074   4.829   3.246   3.419 -0.7065  0.4541  0.4813
  191SAPI   H7Y22075   4.672   3.194   3.473  0.4313  0.3497 -0.3946
  191SAPI   C3822076   4.793   3.285   3.626  0.3235 -0.3727 -0.2216
  191SAPI   H8X22077   4.709   3.311   3.693 -0.0028 -0.6490 -0.5225
  191SAPI   H8Y22078   4.873   3.362   3.632  1.1132 -1.1750 -0.2231
  191SAPI   C3922079   4.867   3.156   3.651 -0.6648  0.7261 -0.3542
  191SAPI   H9X22080   4.924   3.117   3.564 -0.5371  1.8461 -0.7674
  191SAPI   H9Y22081   4.794   3.073   3.667  1.8981 -1.7849 -1.2113
  191SAPI  C31022082   4.946   3.166   3.775 -0.5448 -0.5782 -0.2774
  191SAPI  H10X22083   4.885   3.222   3.850 -0.3477 -3.3636  2.0260
  191SAPI  H10Y22084   5.032   3.232   3.750 -1.4860  0.7555 -0.0509
  191SAPI  C31122085   4.986   3.032   3.832 -0.2108  0.8622  1.3806
  191SAPI  H11X22086   5.058   3.044   3.916  0.3195 -2.2339  1.4170
  191SAPI  H11Y22087   5.036   2.966   3.758  0.1386  0.5316  1.9105
  191SAPI  C31222088   4.885   2.937   3.890 -0.2825 -0.0846  0.7405
  191SAPI  H12X22089   4.815   2.916   3.806  0.2836  0.3136  0.1599
  191SAPI  H12Y22090   4.828   2.983   3.973  1.8132 -2.0743  3.3862
  191SAPI  C31322091   4.951   2.805   3.928 -0.8775 -0.3087 -1.2525
  191SAPI  H13X22092   5.024   2.819   4.010 -1.2859 -0.2232 -0.8988
  191SAPI  H13Y22093   5.005   2.763   3.840 -0.1113 -1.0443 -0.4323
  191SAPI  C31422094   4.845   2.704   3.972 -0.4790  0.0490 -0.0255
  191SAPI  H14X22095   4.783   2.706   3.880 -2.2356  0.0771  1.1495
  191SAPI  H14Y22096   4.801   2.739   4.067 -0.1215 -0.6614  0.4053
  191SAPI  C31522097   4.900   2.566   3.985  0.2847 -0.2635 -0.1849
  191SAPI  H15X22098   4.966   2.576   4.074  0.3042  2.5628 -0.4914
  191SAPI  H15Y22099   4.952   2.537   3.892 -0.6970  1.4639 -1.2810
  191SAPI  C31622100   4.799   2.459   4.031 -0.6171  0.2833 -0.0215
  191SAPI  H16X22101   4.844   2.362   4.003  1.8300  0.9006  1.6653
  191SAPI  H16Y22102   4.708   2.473   3.968 -1.0306 -0.7764  0.3462
  191SAPI  C31722103   4.758   2.455   4.180 -0.3453  0.1512  0.1969
  191SAPI  H17X22104   4.677   2.380   4.192  1.8670 -2.7486 -2.0957
  191SAPI  H17Y22105   4.718   2.554   4.209 -1.3938 -0.3641  0.5052
  191SAPI  C31822106   4.873   2.405   4.267 -0.5444 -0.2800 -0.8181
  191SAPI  H18X22107   4.844   2.411   4.374 -1.1135 -1.6143 -0.8858
  191SAPI  H18Y22108   4.960   2.470   4.242 -0.1294 -0.6905 -0.4345
  191SAPI  H18Z22109   4.913   2.306   4.235  0.7767 -0.4421  1.2585
  192SAPI   C1222110   0.999   2.494   1.829 -0.4404  0.3862 -0.2035
  192SAPI    H222111   1.072   2.540   1.899  0.0547  2.3534 -1.9793
  192SAPI    O222112   0.880   2.572   1.833  0.6933 -0.1234 -0.4599
  192SAPI   HO222113   0.882   2.614   1.919  1.4850 -2.1419  0.5346
  192SAPI   C1322114   1.056   2.499   1.688 -0.2240 -0.6278 -0.2024
  192SAPI    H322115   1.149   2.439   1.701 -0.1278 -0.2221  1.0730
  192SAPI    O322116   1.105   2.635   1.652  0.8766  0.0981 -0.1910
  192SAPI   HO322117   1.154   2.638   1.569 -0.4405 -0.4491 -1.0048
  192SAPI   C1422118   0.959   2.442   1.586 -0.2257 -0.3257 -0.1962
  192SAPI    H422119   0.868   2.506   1.589  0.1549  0.1769  0.8995
  192SAPI    O422120   1.002   2.452   1.448 -0.1343 -0.3579 -0.6639
  192SAPI   HO422121   1.078   2.394   1.438 -0.3052 -1.0866  1.7184
  192SAPI   C1522122   0.925   2.295   1.622 -0.0205  0.3634 -0.1753
  192SAPI    H522123   1.017   2.232   1.615 -0.2654  0.1689 -1.8521
  192SAPI    O522124   0.834   2.228   1.531  0.5449  0.1052 -0.0747
  192SAPI   HO522125   0.886   2.220   1.451 -0.4602 -0.5611 -0.6691
  192SAPI   C1622126   0.874   2.284   1.768 -0.7928  0.1599 -0.6242
  192SAPI    H622127   0.780   2.343   1.772 -1.7060 -1.4217  1.6049
  192SAPI    O622128   0.858   2.148   1.806  0.0701 -0.7575  0.0671
  192SAPI   HO622129   0.827   2.160   1.896  1.3985  0.2508  0.4197
  192SAPI   C1122130   0.965   2.350   1.873 -0.9450  0.7972 -0.0593
  192SAPI    H122131   1.056   2.288   1.885 -1.3213  0.9966  4.8452
  192SAPI     P22132   0.976   2.352   2.146 -0.2686  0.3332  0.0454
  192SAPI   O1322133   1.107   2.418   2.137  1.1064 -0.5390 -0.5951
  192SAPI   O1422134   0.981   2.215   2.208 -0.6943  0.6707 -0.2643
  192SAPI   O1222135   0.895   2.341   2.004 -0.8177 -0.0266  0.4014
  192SAPI   O1122136   0.883   2.445   2.242 -0.5254  0.1348 -0.5387
  192SAPI    C122137   0.742   2.432   2.248 -0.3808  0.5828 -0.3720
  192SAPI    HA22138   0.705   2.518   2.189  0.0952  0.9954 -0.0701
  192SAPI    HB22139   0.709   2.336   2.202 -0.2180  0.0015  0.7078
  192SAPI    C222140   0.676   2.440   2.384  0.3798  0.3093  0.2985
  192SAPI    HS22141   0.711   2.536   2.427 -0.1389  1.2913 -1.4504
  192SAPI   O2122142   0.704   2.320   2.455 -0.0975 -0.5280  0.0193
  192SAPI   C2122143   0.821   2.306   2.508  0.1231  0.1418  0.0662
  192SAPI   O2222144   0.893   2.402   2.540  0.0724  0.1144  0.0096
  192SAPI   C2222145   0.848   2.157   2.533  0.1623 -0.3280 -0.0330
  192SAPI   H2R22146   0.752   2.127   2.579  0.0240  1.0892  0.6239
  192SAPI   H2S22147   0.856   2.107   2.434  0.4955  1.0236 -0.7100
  192SAPI    C322148   0.525   2.457   2.362  1.0264  0.0565  0.5132
  192SAPI    HX22149   0.486   2.360   2.325  2.8781 -0.2412 -0.6936
  192SAPI    HY22150   0.487   2.537   2.294 -0.5799 -0.5994  0.6099
  192SAPI   O3122151   0.466   2.476   2.499  1.2328 -0.0399  0.3227
  192SAPI   C3122152   0.358   2.403   2.525 -0.6475  1.2599 -0.1027
  192SAPI   O3222153   0.315   2.309   2.457  0.7456  0.1958 -0.7250
  192SAPI   C3222154   0.314   2.436   2.668  0.4992 -0.2407 -0.8305
  192SAPI   H2X22155   0.230   2.368   2.696  1.8487 -1.4994  0.2549
  192SAPI   H2Y22156   0.277   2.540   2.658  0.6811  0.1407  2.1458
  192SAPI   C2322157   0.955   2.119   2.640  0.6463  0.9646 -0.5372
  192SAPI   H3R22158   0.968   2.203   2.712  0.9924  0.9203 -0.5438
  192SAPI   H3S22159   1.051   2.121   2.584  0.5207  1.8328 -0.7349
  192SAPI   C2422160   0.934   1.979   2.704 -0.2854 -0.2907  0.1579
  192SAPI   H4R22161   1.023   1.962   2.768 -0.8241 -0.3776  0.9030
  192SAPI   H4S22162   0.933   1.903   2.623  0.7688 -0.8220  0.6264
  192SAPI   C2522163   0.801   1.961   2.770  0.2906  0.2745  0.2144
  192SAPI   H5R22164   0.711   1.977   2.708 -0.0499 -1.7204  0.1368
  192SAPI   C2622165   0.784   1.938   2.904 -0.2377  0.3218 -0.7742
  192SAPI   H6R22166   0.681   1.936   2.943 -0.5162 -0.0409 -1.5203
  192SAPI   C2722167   0.892   1.936   3.005  0.1735  0.3814  0.1096
  192SAPI   H7R22168   0.847   1.980   3.096 -1.3939  0.0380 -0.4811
  192SAPI   H7S22169   0.980   1.999   2.977 -0.4399  1.7507  1.1898
  192SAPI   C2822170   0.925   1.787   3.037  0.7170 -0.3463 -0.5490
  192SAPI   H8R22171   0.917   1.719   2.951 -1.7782 -0.0211 -0.6081
  192SAPI   C2922172   0.950   1.729   3.159  0.2291 -0.2454 -0.1192
  192SAPI   H9R22173   0.936   1.622   3.176 -4.0046  0.3824  1.0127
  192SAPI  C21022174   0.946   1.800   3.285  0.4668  0.4469  0.0617
  192SAPI  H10R22175   0.954   1.909   3.271  0.5942  0.4244 -0.0361
  192SAPI  H10S22176   1.035   1.762   3.339  0.2784 -1.6109 -1.0266
  192SAPI  C21122177   0.828   1.769   3.369 -0.2317 -0.4785 -0.2874
  192SAPI  H11R22178   0.743   1.758   3.300 -0.8778  1.5140  0.1553
  192SAPI  C21222179   0.812   1.749   3.500  0.5171  0.2251  0.1053
  192SAPI  H12R22180   0.709   1.739   3.536  0.2665 -0.1433 -0.6990
  192SAPI  C21322181   0.920   1.750   3.607 -0.0884  0.4282 -0.3626
  192SAPI  H13R22182   0.878   1.735   3.709 -0.8291  2.6713 -0.3282
  192SAPI  H13S22183   0.977   1.845   3.602  2.2984 -0.9684 -0.5302
  192SAPI  C21422184   1.026   1.639   3.579  1.1892 -0.5202 -0.4496
  192SAPI  H14R22185   1.007   1.562   3.503 -0.8487  0.2464 -0.7457
  192SAPI  C21522186   1.144   1.643   3.646  0.2114  0.7551 -0.1718
  192SAPI  H15R22187   1.224   1.576   3.612  0.8678  1.4048  0.0799
  192SAPI  C21622188   1.182   1.741   3.748 -1.0569 -1.0026 -0.2245
  192SAPI  H16R22189   1.129   1.723   3.844  0.5347  1.7825  1.2295
  192SAPI  H16S22190   1.161   1.846   3.717 -0.6765 -0.6351  0.7505
  192SAPI  C21722191   1.327   1.736   3.787  0.9509 -0.4244  0.5707
  192SAPI  H17R22192   1.350   1.830   3.841 -1.2486 -0.3469  1.4065
  192SAPI  H17S22193   1.394   1.725   3.699  0.4754 -3.6878  0.5502
  192SAPI  C21822194   1.369   1.599   3.852  0.2333 -0.0735 -0.1424
  192SAPI  H18R22195   1.342   1.508   3.795 -1.1544 -0.8205  1.6695
  192SAPI  H18S22196   1.313   1.591   3.948  1.3422 -0.0258  0.5305
  192SAPI  C21922197   1.517   1.602   3.904 -0.1410 -0.4754 -0.6233
  192SAPI  H19R22198   1.523   1.684   3.978  1.0764  0.1581 -1.4069
  192SAPI  H19S22199   1.593   1.624   3.827 -0.8221 -3.7399 -2.3495
  192SAPI  C22022200   1.548   1.469   3.967 -0.2897  0.1375 -0.2479
  192SAPI  H20R22201   1.649   1.465   4.012 -0.7183  1.2023  0.8550
  192SAPI  H20S22202   1.540   1.384   3.896 -0.7196  0.2317 -0.3181
  192SAPI  H20T22203   1.477   1.446   4.050  1.2787 -4.6783 -0.1218
  192SAPI   C3322204   0.435   2.426   2.777 -0.2825  0.5042 -0.0241
  192SAPI   H3X22205   0.400   2.483   2.865 -2.5872  0.6116 -0.9723
  192SAPI   H3Y22206   0.537   2.456   2.746  0.8841 -2.5859  0.6336
  192SAPI   C3422207   0.461   2.280   2.812  0.4122 -0.5727 -0.8456
  192SAPI   H4X22208   0.524   2.247   2.726  1.7844  0.0874 -0.1039
  192SAPI   H4Y22209   0.363   2.227   2.811  1.0008 -1.7179  0.6615
  192SAPI   C3522210   0.526   2.267   2.951 -0.3670  0.2797  0.2821
  192SAPI   H5X22211   0.534   2.157   2.965  0.4335  0.4717  1.4115
  192SAPI   H5Y22212   0.445   2.302   3.019 -2.7327 -2.8913 -0.7726
  192SAPI   C3622213   0.664   2.331   2.976 -0.4132 -0.2114  0.6524
  192SAPI   H6X22214   0.666   2.441   2.963 -1.1389 -0.2708  0.0131
  192SAPI   H6Y22215   0.728   2.274   2.906 -0.5605 -1.1931  1.2943
  192SAPI   C3722216   0.705   2.297   3.121  0.2323 -0.4539 -0.3694
  192SAPI   H7X22217   0.693   2.188   3.139 -0.5389 -0.2867  0.1029
  192SAPI   H7Y22218   0.642   2.357   3.189  0.6183 -0.8670  0.3606
  192SAPI   C3822219   0.857   2.329   3.143  0.0852 -0.4020  0.6928
  192SAPI   H8X22220   0.873   2.439   3.152 -0.2585 -0.3887  1.1843
  192SAPI   H8Y22221   0.923   2.299   3.059 -3.0663 -2.1355 -1.2593
  192SAPI   C3922222   0.911   2.270   3.276  0.2193  0.5734  0.5440
  192SAPI   H9X22223   0.930   2.162   3.258 -2.6613  0.1370  0.0290
  192SAPI   H9Y22224   0.836   2.283   3.357 -0.3507 -0.3487  0.1593
  192SAPI  C31022225   1.045   2.352   3.321 -0.4026  0.2995 -0.2152
  192SAPI  H10X22226   1.013   2.446   3.372  0.3058  1.0429 -1.1184
  192SAPI  H10Y22227   1.108   2.377   3.232  0.3549 -1.9272 -0.3211
  192SAPI  C31122228   1.139   2.276   3.411 -0.7650  0.0914 -0.3288
  192SAPI  H11X22229   1.161   2.182   3.357  1.5380 -0.0529  0.7883
  192SAPI  H11Y22230   1.077   2.239   3.496 -2.3887  0.1690 -1.4768
  192SAPI  C31222231   1.269   2.340   3.466 -0.1499 -0.1206  0.8009
  192SAPI  H12X22232   1.254   2.447   3.492 -3.1299 -0.0823 -0.8262
  192SAPI  H12Y22233   1.346   2.336   3.386 -1.0390 -1.8025  0.0054
  192SAPI  C31322234   1.330   2.269   3.583  0.1477 -0.1111  0.0614
  192SAPI  H13X22235   1.272   2.297   3.673  0.2155  0.5158 -0.0854
  192SAPI  H13Y22236   1.426   2.325   3.590  0.0621  0.0727 -0.2144
  192SAPI  C31422237   1.354   2.120   3.577  0.1440 -0.4347  0.2627
  192SAPI  H14X22238   1.416   2.104   3.487 -0.7452 -0.5608 -0.3282
  192SAPI  H14Y22239   1.263   2.058   3.585  0.8141 -1.2365  2.1498
  192SAPI  C31522240   1.429   2.071   3.709  0.0204 -0.6159 -0.8442
  192SAPI  H15X22241   1.442   1.961   3.708  1.2383 -0.4755 -2.0529
  192SAPI  H15Y22242   1.375   2.104   3.800  1.8078 -0.8609  0.3234
  192SAPI  C31622243   1.576   2.123   3.722 -0.5332  0.4573 -0.4944
  192SAPI  H16X22244   1.604   2.230   3.716  1.7610 -0.0789 -0.2249
  192SAPI  H16Y22245   1.626   2.083   3.631 -2.6819 -0.9028 -1.1076
  192SAPI  C31722246   1.637   2.069   3.852 -0.3214  0.1952 -0.2916
  192SAPI  H17X22247   1.744   2.041   3.837 -0.9069 -2.3447 -0.0026
  192SAPI  H17Y22248   1.587   1.971   3.867  3.1544 -1.3728  1.7651
  192SAPI  C31822249   1.624   2.164   3.970 -0.0995 -0.4476 -0.1063
  192SAPI  H18X22250   1.593   2.265   3.935 -1.1403 -0.7369 -0.0232
  192SAPI  H18Y22251   1.720   2.167   4.026 -0.4019  1.7306  0.3356
  192SAPI  H18Z22252   1.545   2.127   4.039 -1.7995  3.7336  0.3505
  193SOD    SOD22253   2.667   0.210   1.701  0.0460  0.0594  0.1258
  194SOD    SOD22254   6.521   6.558   0.725  0.2799  0.2077  0.0644
  195SOD    SOD22255   0.494   5.360   7.905 -0.1579  0.5230  0.0218
  196SOD    SOD22256   0.382   0.217   6.283  0.4137  0.1938  0.2935
  197SOD    SOD22257   0.228   5.979   6.691 -0.4647  0.3371 -0.3327
  198SOD    SOD22258   4.618   0.136   6.866  0.2002 -0.6521 -0.0547
  199SOD    SOD22259   5.088   0.468   6.555 -0.3425 -0.4774  0.4289
  200SOD    SOD22260   4.884   0.331   0.601 -0.1336 -0.0418 -0.3836
  201SOD    SOD22261   2.631   1.491   1.582  0.1552 -0.0778 -0.0008
  202SOD    SOD22262   7.084   6.017   8.311 -0.2522 -0.0425 -0.3159
  203SOD    SOD22263   0.209   0.768   0.275  0.2798  0.1611  0.1265
  204SOD    SOD22264   2.703   0.845   7.594 -0.0850  0.3485 -0.0060
  205SOD    SOD22265   2.973   3.454   7.153 -0.0263 -0.2377 -0.3069
  206SOD    SOD22266   4.068   5.457   7.091  0.0137  0.3680  0.3985
  207SOD    SOD22267   0.536   2.510   0.074  0.1431 -0.2902 -0.0897
  208SOD    SOD22268   0.536   2.010   7.211  0.3906 -0.2996  0.3431
  209SOD    SOD22269   1.622   1.908   1.669 -0.1441 -0.0280 -0.3648
  210SOD    SOD22270   5.611   5.915   7.208  0.3073  0.2294  0.3499
  211SOD    SOD22271   1.100   6.235   0.537  0.0527  0.0572 -0.5573
  212SOD    SOD22272   2.116   5.403   1.632  0.3788 -0.3078  0.1039
  213SOD    SOD22273   3.830   0.982   6.939  0.7456  0.0931  0.0494
  214SOD    SOD22274   4.449   0.817   1.185  0.1298  0.8091 -0.2091
  215SOD    SOD22275   3.155   5.051   0.872  0.0393  0.4406 -0.2267
  216SOD    SOD22276   3.478   2.614   6.509  0.0477  0.0578 -0.3635
  217SOD    SOD22277   2.082   0.077   0.317 -0.1048  0.4191  0.1457
  218SOD    SOD22278   0.004   1.454   7.040  0.8113 -0.6035  0.7590
  219SOD    SOD22279   2.242   5.445   0.911  0.0081  0.1263 -0.0652
  220SOD    SOD22280   0.119   2.444   1.044 -0.0804 -0.0118 -0.6695
  221SOD    SOD22281   2.319   3.079   0.145  0.0301  0.5229  0.3481
  222SOD    SOD22282   2.215   6.810   6.741  0.2483  0.1329 -0.3158
  223SOD    SOD22283   6.815   6.554   7.681 -0.5446  0.1966 -0.1712
  224SOD    SOD22284   1.672   2.483   7.639 -0.2901  0.2680  0.4813
  225SOD    SOD22285   3.349   7.103   0.782 -0.0031 -0.5481 -0.2403
  226SOD    SOD22286   6.540   2.273   2.014 -0.0607 -0.4197 -0.2293
  227SOD    SOD22287   1.485   1.456   7.557 -0.4795 -0.3253  0.3275
  228SOD    SOD22288   2.665   4.733   6.817 -0.2387 -0.2205 -0.3485
  229SOD    SOD22289   5.099   6.892   2.251 -0.4518  0.2139  0.5924
  230SOD    SOD22290   1.642   0.467   7.565 -0.0549  0.4934  0.1849
  231SOD    SOD22291   2.803   2.251   0.054  0.2268 -0.1236 -0.6031
  232SOD    SOD22292   1.759   1.896   6.726  0.5454  0.1065 -0.2426
  233SOD    SOD22293   0.094   4.795   0.947 -0.1035  0.2348  0.1293
  234CLA    CLA22294   2.349   5.883   7.128 -0.5118 -0.0536 -0.1591
  235CLA    CLA22295   4.746   0.735   7.261 -0.1019  0.2351 -0.3134
  236CLA    CLA22296   0.837   7.209   0.640  0.1631  0.3630  0.1420
  237CLA    CLA22297   1.099   1.459   8.123 -0.4639  0.4748  0.1938
  238CLA    CLA22298   0.326   0.337   0.139 -0.1217 -0.2946  0.2676
  239CLA    CLA22299   1.126   5.076   0.111 -0.0904 -0.2146  0.3419
  240CLA    CLA22300   5.606   5.574   0.029  0.0100  0.1466  0.1138
  241CLA    CLA22301   0.410   0.829   8.327 -0.0408 -0.1293 -0.0464
  242CLA    CLA22302   1.046   3.957   8.462 -0.1302 -0.6771 -0.0650
  243CLA    CLA22303   2.876   5.417   8.027 -0.0795 -0.2093  0.0287
  244CLA    CLA22304   3.191   4.533   0.754  0.3196  0.3321 -0.1205
  245CLA    CLA22305   6.246   7.125   1.012 -0.1820 -0.1100  0.3473
  246CLA    CLA22306   6.465   6.439   8.310 -0.1243 -0.0136 -0.1010
  247CLA    CLA22307   1.990   0.336   8.073  0.2009 -0.1808 -0.1011
  248CLA    CLA22308   3.842   1.077   7.205  0.3146  0.3117 -0.0799
  249CLA    CLA22309   2.314   1.448   7.823  0.1574  0.5069  0.0517
  250CLA    CLA22310   1.719   1.870   7.201  0.1336 -0.2260 -0.4853
  251TIP3   OH222311   1.917   3.843   7.804  0.4176 -0.7171 -0.6927
  251TIP3    H122312   1.944   3.923   7.850 -0.3457  0.0160 -1.5080
  251TIP3    H222313   1.996   3.815   7.757  1.3144 -1.6696  1.2874
  252TIP3   OH222314   4.745   0.908   7.974 -0.2004  0.0592  0.1077
  252TIP3    H122315   4.663   0.893   8.022 -0.4989  0.2565 -0.3418
  252TIP3    H222316   4.722   0.895   7.882  0.6061 -1.3668  0.0870
  253TIP3   OH222317   4.498   2.523   6.966 -0.5037 -0.2091 -0.3115
  253TIP3    H122318   4.521   2.467   7.040 -2.1857 -0.7738 -0.2038
  253TIP3    H222319   4.502   2.612   7.001  1.3989 -0.2890 -0.2767
  254TIP3   OH222320   3.021   4.895   8.104 -0.1189  0.3950  0.0851
  254TIP3    H122321   3.019   4.842   8.024 -1.1095 -0.1617  0.4647
  254TIP3    H222322   3.001   4.984   8.074 -0.0250  0.2701 -0.3516
  255TIP3   OH222323   2.300   4.477   7.825  0.5667  0.4404 -0.4132
  255TIP3    H122324   2.258   4.556   7.790 -0.3689  0.4901  0.8227
  255TIP3    H222325   2.232   4.432   7.873  1.4872 -0.3752  0.1492
  256TIP3   OH222326   5.162   1.720   7.190  0.1402 -0.4049  0.0570
  256TIP3    H122327   5.183   1.666   7.267  0.0122 -0.1641  0.2608
  256TIP3    H222328   5.070   1.745   7.202 -0.2831 -1.4705 -0.8393
  257TIP3   OH222329   3.291   4.948   6.855 -0.1235  0.4532  0.1718
  257TIP3    H122330   3.309   4.956   6.762  2.1681 -0.2687  0.5303
  257TIP3    H222331   3.236   5.024   6.875 -0.7477  0.5456 -1.7769
  258TIP3   OH222332   3.287   2.723   6.441 -0.0524  0.2950 -0.4633
  258TIP3    H122333   3.206   2.724   6.492 -0.2053  0.1974 -0.7006
  258TIP3    H222334   3.275   2.791   6.375  1.0796  1.9997  1.0548
  259TIP3   OH222335   4.480   6.717   6.622 -0.1989 -0.5724 -0.4700
  259TIP3    H122336   4.399   6.666   6.616 -1.0354  0.7848 -0.9457
  259TIP3    H222337   4.451   6.808   6.622  1.2984 -0.0791  0.0283
  260TIP3   OH222338   3.731   1.639   8.368  0.5654  0.0408 -0.2924
  260TIP3    H122339   3.678   1.561   8.350 -0.7774  0.2868  2.4038
  260TIP3    H222340   3.795   1.610   8.433  3.0567  0.0603 -2.6336
  261TIP3   OH222341   5.453   0.781   6.690 -0.4272  0.4050  0.2334
  261TIP3    H122342   5.457   0.876   6.691  0.7288  0.3652  2.9340
  261TIP3    H222343   5.538   0.754   6.653 -1.1497  0.4023 -1.4803
  262TIP3   OH222344   6.129   0.861   1.506  0.3283 -0.8424  0.0653
  262TIP3    H122345   6.098   0.776   1.474 -0.2818  0.1848 -2.1413
  262TIP3    H222346   6.052   0.901   1.546 -0.7029  0.6679 -3.2263
  263TIP3   OH222347   5.387   1.824   7.029  0.0316  0.4875  0.1287
  263TIP3    H122348   5.308   1.805   7.080 -0.5797 -0.2760 -1.0973
  263TIP3    H222349   5.458   1.790   7.083 -0.4229  1.5551  1.4362
  264TIP3   OH222350   2.975   5.033   6.327  0.6700 -0.2337 -0.1947
  264TIP3    H122351   2.942   4.945   6.309  1.1298  0.0878 -2.7241
  264TIP3    H222352   3.067   5.018   6.350  0.6079 -0.4688 -0.0917
  265TIP3   OH222353   3.738   5.427   7.855 -0.4112  0.2082  0.1141
  265TIP3    H122354   3.671   5.410   7.789 -2.2425  0.8305  1.7608
  265TIP3    H222355   3.745   5.523   7.857 -2.5196  0.3800  2.8312
  266TIP3   OH222356   1.514   6.042   6.096  0.0584 -0.0977  0.1691
  266TIP3    H122357   1.600   6.020   6.131  1.3956  2.0845 -1.5925
  266TIP3    H222358   1.505   5.988   6.018  0.0040 -0.0369  0.1329
  267TIP3   OH222359   1.052   4.618   7.845 -0.0340 -0.1050 -0.1798
  267TIP3    H122360   0.967   4.578   7.863  1.2841 -3.2265 -0.6983
  267TIP3    H222361   1.110   4.584   7.913  1.4928 -0.3500 -1.5702
  268TIP3   OH222362   1.593   5.501   6.993  0.2230  0.4787  0.5154
  268TIP3    H122363   1.689   5.493   6.997  0.0134 -2.0708  1.3467
  268TIP3    H222364   1.561   5.417   7.026 -2.3219  1.6758  1.1892
  269TIP3   OH222365   3.958   2.728   5.959 -0.0665  0.3437  0.1489
  269TIP3    H122366   3.949   2.716   6.053  1.2732  1.3062  0.4242
  269TIP3    H222367   3.905   2.805   5.939  1.7703  1.7809  0.6006
  270TIP3   OH222368   4.948   1.361   6.351 -0.8237 -0.1204 -0.4076
  270TIP3    H122369   4.900   1.432   6.310 -0.7513 -0.4934 -1.1371
  270TIP3    H222370   4.979   1.307   6.279 -0.6461 -0.7492  0.1280
  271TIP3   OH222371   3.907   1.348   6.127  0.0862  0.3334 -0.2610
  271TIP3    H122372   3.947   1.262   6.141 -1.6987 -0.3177  1.0711
  271TIP3    H222373   3.967   1.409   6.170  0.4936 -0.4595  0.3151
  272TIP3   OH222374   2.409   5.968   1.436 -0.1474 -0.5613  0.1225
  272TIP3    H122375   2.469   5.897   1.458 -1.3076 -1.3705  0.7069
  272TIP3    H222376   2.334   5.955   1.494 -0.6763  0.7279 -0.2556
  273TIP3   OH222377   2.489   4.269   7.314  0.0312  0.4788 -0.8370
  273TIP3    H122378   2.454   4.347   7.357 -0.1982  0.3068 -0.7104
  273TIP3    H222379   2.544   4.227   7.381 -1.8682 -0.8272 -0.0657
  274TIP3   OH222380   3.918   5.334   1.021  0.5009 -0.0408  0.6705
  274TIP3    H122381   3.896   5.243   1.002 -1.7154  0.7216 -0.5777
  274TIP3    H222382   3.836   5.382   1.007  1.4703  2.0568  1.9515
  275TIP3   OH222383   2.224   5.095   7.294 -0.4474  0.8960 -0.2167
  275TIP3    H122384   2.282   5.035   7.246 -1.6881 -0.3707 -0.1858
  275TIP3    H222385   2.156   5.118   7.231 -1.9423 -0.5691  0.8136
  276TIP3   OH222386   3.149   4.206   6.977 -0.5669  0.6761  0.0246
  276TIP3    H122387   3.185   4.253   6.902 -2.5285  2.0585 -0.0642
  276TIP3    H222388   3.062   4.179   6.949 -0.5036 -0.6518  1.0632
  277TIP3   OH222389   6.450   6.292   6.680  0.0141 -0.7414 -0.3149
  277TIP3    H122390   6.506   6.363   6.649  0.0522 -0.8278 -0.4440
  277TIP3    H222391   6.511   6.220   6.699  0.0210 -0.6034  0.2118
  278TIP3   OH222392   3.970   0.507   5.851  0.2450  0.2876 -0.0977
  278TIP3    H122393   3.959   0.556   5.933  0.7239 -1.8934  1.3198
  278TIP3    H222394   4.003   0.571   5.789 -1.9318  2.4462  0.8785
  279TIP3   OH222395   3.467   0.976   7.439  0.3818  0.2314  0.0841
  279TIP3    H122396   3.530   1.026   7.492  0.2804 -0.6037  1.0054
  279TIP3    H222397   3.421   0.922   7.503  1.5396 -2.1939 -1.0861
  280TIP3   OH222398   2.937   7.291   6.646  0.2722 -0.2620 -0.3845
  280TIP3    H122399   2.883   7.248   6.580  0.4990  3.2558 -3.0125
  280TIP3    H222400   2.878   7.306   6.719 -0.4388 -2.6331 -0.4155
  281TIP3   OH222401   3.427   5.868   7.688  0.2141 -0.2655 -0.1424
  281TIP3    H122402   3.487   5.828   7.625  0.1026 -0.4581 -0.1258
  281TIP3    H222403   3.355   5.902   7.635  0.4026  0.0826 -0.1752
  282TIP3   OH222404   1.204   0.799   6.248  0.2115  0.1292 -0.0313
  282TIP3    H122405   1.142   0.870   6.240  0.3876  0.4112  1.0114
  282TIP3    H222406   1.180   0.737   6.179 -0.0767  1.0897 -0.7911
  283TIP3   OH222407   7.269   6.513   6.365 -0.8164 -0.6708 -0.2431
  283TIP3    H122408   7.348   6.565   6.381 -1.5278  0.5591 -0.7561
  283TIP3    H222409   7.216   6.525   6.444 -0.9149 -0.7578 -0.2949
  284TIP3   OH222410   3.252   5.861   8.319 -0.3049 -0.2863  0.4876
  284TIP3    H122411   3.204   5.863   8.236 -0.8682 -0.9524  0.7911
  284TIP3    H222412   3.184   5.873   8.386  0.0586 -0.4271  0.8802
  285TIP3   OH222413   1.217   6.654   6.481 -0.5263 -0.0645  0.2781
  285TIP3    H122414   1.157   6.648   6.555  0.7008 -0.4996  1.2472
  285TIP3    H222415   1.189   6.584   6.422 -1.1374 -0.0884  0.5912
  286TIP3   OH222416   1.905   5.296   6.148 -0.3003 -0.1416  0.5995
  286TIP3    H122417   1.943   5.226   6.095  0.6292  0.2371  0.7444
  286TIP3    H222418   1.832   5.329   6.096 -0.0476 -0.4800  0.0291
  287TIP3   OH222419   5.920   7.090   6.070  0.6638  0.5156 -0.0514
  287TIP3    H122420   5.967   7.034   6.008  0.1142  0.3332 -0.3072
  287TIP3    H222421   5.989   7.125   6.127  1.0623 -0.0711 -0.1615
  288TIP3   OH222422   1.178   3.135   8.491 -0.3088  0.0309 -0.2204
  288TIP3    H122423   1.171   3.106   8.581  0.2488  0.1343 -0.1397
  288TIP3    H222424   1.268   3.112   8.465 -0.0822  1.0545 -0.3722
  289TIP3   OH222425   5.300   6.592   1.367  0.2312 -0.4653  0.3945
  289TIP3    H122426   5.267   6.633   1.447  0.0182 -0.1402  0.1436
  289TIP3    H222427   5.369   6.651   1.337  0.3216 -0.5949  0.3499
  290TIP3   OH222428   0.970   2.952   7.001  0.6114 -0.5626  0.0227
  290TIP3    H122429   0.905   3.008   6.960  0.2245 -1.4873 -0.6490
  290TIP3    H222430   0.924   2.908   7.072  0.7463 -0.5033  0.1471
  291TIP3   OH222431   7.115   5.472   8.087 -0.6994 -0.6103  0.1403
  291TIP3    H122432   7.036   5.447   8.038 -1.1370 -0.9536  1.0142
  291TIP3    H222433   7.185   5.420   8.048 -1.3093 -1.9640  0.8265
  292TIP3   OH222434   0.023   5.181   6.384 -0.9996 -0.6003  0.3195
  292TIP3    H122435   0.096   5.232   6.347 -0.4682 -0.8467  1.0203
  292TIP3    H222436  -0.002   5.122   6.313 -0.2096 -0.8308  0.2235
  293TIP3   OH222437   6.818   6.697   6.534  0.3095 -0.0326 -0.3362
  293TIP3    H122438   6.839   6.611   6.500 -0.4502 -0.2581 -0.2378
  293TIP3    H222439   6.738   6.723   6.487  0.4024  0.5141 -0.1964
  294TIP3   OH222440   1.031   7.079   1.209  0.0292  0.3938 -0.3603
  294TIP3    H122441   1.061   6.990   1.189  1.1065  0.7089 -0.1751
  294TIP3    H222442   1.099   7.136   1.173 -0.4650  1.1298 -0.1363
  295TIP3   OH222443   3.501   6.404   6.548 -0.7603 -0.4296 -0.1192
  295TIP3    H122444   3.579   6.384   6.498 -0.1408  0.0280  0.6611
  295TIP3    H222445   3.505   6.344   6.623 -1.4028 -0.7412 -0.3283
  296TIP3   OH222446   1.286   5.322   6.177  0.4249  0.1677 -0.1918
  296TIP3    H122447   1.312   5.238   6.139 -0.1271 -0.8458  1.5675
  296TIP3    H222448   1.347   5.386   6.141  0.1497 -0.8073 -2.4201
  297TIP3   OH222449   6.409   7.023   0.021  0.1934 -0.4694  0.2302
  297TIP3    H122450   6.441   7.085   0.086  1.7432  1.0280 -1.8960
  297TIP3    H222451   6.430   6.937   0.058  1.9688  0.3828  1.2666
  298TIP3   OH222452   0.753   1.772   1.436  0.6253 -0.1827 -0.6206
  298TIP3    H122453   0.674   1.815   1.468  1.5865  0.9216  0.2801
  298TIP3    H222454   0.754   1.686   1.479 -0.2275 -0.3186 -0.8681
  299TIP3   OH222455   6.587   0.721   6.829  0.0689  0.8543 -0.2020
  299TIP3    H122456   6.517   0.786   6.838 -0.9504 -0.5527  2.2709
  299TIP3    H222457   6.553   0.658   6.766 -0.2648  0.9458 -0.1133
  300TIP3   OH222458   6.035   6.546   7.730 -0.3496  0.3951  0.1639
  300TIP3    H122459   6.129   6.528   7.725 -0.2479  1.3275 -1.5754
  300TIP3    H222460   6.028   6.641   7.723 -1.5051  0.2116 -1.4006
  301TIP3   OH222461   4.195   3.723   1.877 -0.2713 -0.6940 -0.2544
  301TIP3    H122462   4.272   3.773   1.904 -1.1053  0.3296  0.2475
  301TIP3    H222463   4.181   3.747   1.785 -1.4339  1.0052  0.3479
  302TIP3   OH222464   3.387   3.613   2.032  0.8218  0.6687  0.2054
  302TIP3    H122465   3.410   3.541   2.090 -0.7903 -1.0512 -1.2366
  302TIP3    H222466   3.371   3.687   2.090  1.4842 -0.3946  1.7755
  303TIP3   OH222467   4.012   3.409   1.704 -0.1231 -0.0527  0.5561
  303TIP3    H122468   3.990   3.316   1.707 -0.2868 -0.0223  0.3196
  303TIP3    H222469   4.101   3.414   1.739  0.1521 -0.3854 -0.0848
  304TIP3   OH222470   4.652   5.391   1.922 -0.2179  0.0351  0.7292
  304TIP3    H122471   4.741   5.413   1.948 -0.1746  0.9182 -0.1271
  304TIP3    H222472   4.646   5.296   1.935  1.2237 -0.2126 -0.2821
  305TIP3   OH222473   3.717   5.457   2.046  0.0306 -0.4884 -0.0676
  305TIP3    H122474   3.649   5.450   2.113 -0.9869  0.9196 -0.9242
  305TIP3    H222475   3.799   5.447   2.094 -0.7239 -0.4973  1.2386
  306TIP3   OH222476   6.272   5.536   0.659  0.5436  0.1382 -0.0750
  306TIP3    H122477   6.339   5.471   0.680  0.7983  0.7783  1.1014
  306TIP3    H222478   6.226   5.499   0.583  0.2416 -1.7317  0.9920
  307TIP3   OH222479   5.612   4.961   1.832 -0.3541 -0.8644 -0.1634
  307TIP3    H122480   5.527   4.992   1.861  0.3657 -1.1846  2.4044
  307TIP3    H222481   5.637   4.894   1.896  2.2909 -0.0294 -0.2463
  308TIP3   OH222482   4.089   2.354   7.308 -0.5645  0.0088  0.8056
  308TIP3    H122483   4.021   2.287   7.311  0.1037 -0.7219  0.0531
  308TIP3    H222484   4.054   2.428   7.358 -1.1773 -1.0160  1.8926
  309TIP3   OH222485   3.157   6.401   1.572  0.6886  0.3454 -0.0861
  309TIP3    H122486   3.063   6.394   1.587  1.1230 -1.4325  2.1328
  309TIP3    H222487   3.183   6.483   1.614  0.4532 -0.2011  1.1360
  310TIP3   OH222488   2.813   3.038   0.164  0.1179  0.1246  0.5076
  310TIP3    H122489   2.857   3.104   0.109  0.9044 -0.5594  0.2967
  310TIP3    H222490   2.796   3.083   0.246 -0.2165  0.8825  0.0247
  311TIP3   OH222491   3.745   5.864   2.571  0.3387 -0.0491  0.1381
  311TIP3    H122492   3.783   5.792   2.519  1.5095  0.3536  0.4138
  311TIP3    H222493   3.657   5.875   2.536 -0.1575 -2.1921  0.6562
  312TIP3   OH222494   1.082   6.399   7.822  0.2780 -0.4344 -0.1634
  312TIP3    H122495   1.127   6.426   7.901 -1.8970 -0.5996  1.1662
  312TIP3    H222496   1.082   6.477   7.766  1.5312 -0.2308  0.1224
  313TIP3   OH222497   3.299   5.386   1.990  0.4324  0.4808  0.8918
  313TIP3    H122498   3.232   5.406   2.055  0.8509  1.0394  1.1610
  313TIP3    H222499   3.287   5.452   1.922 -1.4790 -1.4863 -0.7360
  314TIP3   OH222500   5.845   1.145   1.098 -0.6758  0.3581 -0.2075
  314TIP3    H122501   5.899   1.196   1.038 -1.1093  1.1784  0.0974
  314TIP3    H222502   5.817   1.207   1.164 -0.8914 -0.3629  0.3875
  315TIP3   OH222503   4.876   7.253   2.322 -0.1344 -0.0022 -0.5157
  315TIP3    H122504   4.848   7.246   2.231 -1.0542 -3.3913 -0.0389
  315TIP3    H222505   4.797   7.281   2.370  0.3681  1.8550 -0.7199
  316TIP3   OH222506   4.955   1.844   2.005  0.0043  0.0550  0.3266
  316TIP3    H122507   4.870   1.871   2.042 -0.9951  0.0197 -1.8648
  316TIP3    H222508   5.012   1.919   2.020 -0.4986  0.1930  1.5818
  317TIP3   OH222509   0.647   6.076   7.752 -0.0631 -0.0379 -0.5666
  317TIP3    H122510   0.663   6.053   7.660  2.6367 -0.4594 -0.0511
  317TIP3    H222511   0.719   6.135   7.774  0.2832 -1.2656  1.7494
  318TIP3   OH222512   0.520   2.712   1.583  0.1687 -0.4440 -0.3741
  318TIP3    H122513   0.485   2.625   1.604 -1.7109  0.4816  0.4811
  318TIP3    H222514   0.562   2.740   1.665  0.2393 -0.2850 -0.4662
  319TIP3   OH222515   3.173   6.856   0.456  0.4126 -0.4989  0.1655
  319TIP3    H122516   3.108   6.789   0.476 -0.6734  1.3625  3.2068
  319TIP3    H222517   3.257   6.815   0.478 -0.1946 -1.0428  1.4730
  320TIP3   OH222518   5.131   1.251   2.332  0.2862  0.0748  0.1066
  320TIP3    H122519   5.057   1.312   2.323  1.1039  0.8415 -1.5432
  320TIP3    H222520   5.101   1.171   2.290  0.3103  0.3186 -0.3773
  321TIP3   OH222521   0.266   0.426   1.989 -0.4929 -0.6512 -0.0451
  321TIP3    H122522   0.260   0.479   2.068  0.8015  0.6910 -0.8087
  321TIP3    H222523   0.341   0.463   1.942 -1.3356 -1.3292 -1.9648
  322TIP3   OH222524   6.341   1.302   1.790 -0.2015  0.0112 -0.5228
  322TIP3    H122525   6.397   1.233   1.826 -0.3470 -0.2852 -0.8641
  322TIP3    H222526   6.266   1.256   1.754  0.1367  0.2615 -1.5726
  323TIP3   OH222527   3.412   5.288   7.892 -0.2814 -0.1058 -0.1193
  323TIP3    H122528   3.406   5.217   7.955  0.7970  0.6016  0.8103
  323TIP3    H222529   3.372   5.363   7.936  0.1808  0.3059 -0.3935
  324TIP3   OH222530   5.247   0.662   7.673 -0.6753  0.2829  0.3661
  324TIP3    H122531   5.266   0.721   7.746 -1.9888 -0.7155  1.5438
  324TIP3    H222532   5.164   0.693   7.637 -1.1897 -0.6260  0.7626
  325TIP3   OH222533   6.229   0.798   8.443 -0.2486  0.0867 -0.0344
  325TIP3    H122534   6.156   0.770   8.497  0.4630  0.1869  0.9851
  325TIP3    H222535   6.194   0.871   8.391 -0.5840  0.8133  1.2045
  326TIP3   OH222536   2.668   6.324   1.350  0.0427 -0.2200 -0.3926
  326TIP3    H122537   2.674   6.366   1.264  0.1004 -1.3050 -0.9295
  326TIP3    H222538   2.586   6.274   1.347 -0.1697  0.0785  0.3374
  327TIP3   OH222539   4.445   6.628   2.619 -0.4704 -0.7908 -1.0503
  327TIP3    H122540   4.513   6.605   2.556  0.7408 -1.4507  0.4578
  327TIP3    H222541   4.492   6.646   2.701 -1.9402  0.6721 -0.4656
  328TIP3   OH222542   6.727   2.406   1.949  0.3340  0.7058  0.0866
  328TIP3    H122543   6.782   2.484   1.937  0.6558  0.6502  1.1898
  328TIP3    H222544   6.785   2.340   1.987 -0.0290  0.0381 -0.5041
  329TIP3   OH222545   1.456   3.988   0.358  0.3998  0.0620  0.0459
  329TIP3    H122546   1.485   4.077   0.377 -1.4570  0.5618  0.6596
  329TIP3    H222547   1.423   3.992   0.268  0.3933 -0.0092  0.0452
  330TIP3   OH222548   7.008   2.309   2.008 -0.1626  0.7210  0.2672
  330TIP3    H122549   7.027   2.320   2.101  0.4992 -0.3838  0.2649
  330TIP3    H222550   7.029   2.218   1.989 -1.8478  0.4873 -0.6059
  331TIP3   OH222551   3.028   1.993   0.696 -0.0169 -0.1670 -0.3945
  331TIP3    H122552   3.105   1.960   0.741  0.9418  0.6283 -1.4002
  331TIP3    H222553   2.961   1.925   0.707  0.6252 -0.5777  1.0206
  332TIP3   OH222554   6.673   4.911   2.387 -0.9243 -0.0146 -0.8393
  332TIP3    H122555   6.709   4.849   2.324 -1.3959 -1.7645  0.5912
  332TIP3    H222556   6.594   4.869   2.421  1.2328 -0.8265  3.6294
  333TIP3   OH222557   0.581   4.755   0.873 -0.0368 -0.8776 -0.9250
  333TIP3    H122558   0.669   4.726   0.893  0.5644  1.3527 -0.2212
  333TIP3    H222559   0.584   4.778   0.780 -0.3772 -2.4780 -1.3515
  334TIP3   OH222560   0.041   0.211   2.287 -0.0482 -0.5716 -0.4327
  334TIP3    H122561   0.130   0.177   2.284 -0.3197 -1.2452 -1.1410
  334TIP3    H222562   0.052   0.305   2.303  0.8319 -0.4949 -1.3935
  335TIP3   OH222563   3.529   1.342   1.125  0.0260  0.0693 -0.6571
  335TIP3    H122564   3.476   1.269   1.156  0.7515 -0.2101 -0.0539
  335TIP3    H222565   3.539   1.326   1.031  0.1621 -0.5960 -0.5310
  336TIP3   OH222566   0.134   5.802   1.283 -0.6512  0.2252  0.4401
  336TIP3    H122567   0.100   5.714   1.298  0.5750 -0.0023  2.0073
  336TIP3    H222568   0.198   5.791   1.213 -0.9830 -0.0053  0.1673
  337TIP3   OH222569   6.721   1.967   2.478 -0.0003  0.0348  0.3412
  337TIP3    H122570   6.791   1.919   2.523  0.4811  0.9563  0.5939
  337TIP3    H222571   6.766   2.015   2.408 -0.6274 -0.7271 -0.5958
  338TIP3   OH222572   0.151   2.526   2.175  0.1037  0.8229  0.0285
  338TIP3    H122573   0.078   2.488   2.127 -0.8793  2.0724  0.4983
  338TIP3    H222574   0.120   2.533   2.265  1.0162  0.8202  0.3500
  339TIP3   OH222575   4.522   2.061   1.617 -0.2145  0.1681  0.7836
  339TIP3    H122576   4.479   2.092   1.537  0.7473  1.9480  0.9277
  339TIP3    H222577   4.539   2.141   1.667  2.8073 -0.5350  0.9592
  340TIP3   OH222578   3.090   2.596   1.644 -0.0318 -1.1655  0.0156
  340TIP3    H122579   3.071   2.690   1.652 -1.9113 -1.6189  1.1955
  340TIP3    H222580   3.124   2.571   1.730 -1.3397 -1.9351  0.3277
  341TIP3   OH222581   5.607   6.690   0.909  0.5357  0.1595 -0.2987
  341TIP3    H122582   5.633   6.686   1.001 -2.8721 -0.4033  0.7157
  341TIP3    H222583   5.592   6.599   0.884  2.8518  0.1838 -1.8811
  342TIP3   OH222584   1.987   6.458   1.468 -0.3179  0.2755  0.3446
  342TIP3    H122585   2.008   6.550   1.454 -0.4407  0.5505  1.8441
  342TIP3    H222586   1.926   6.436   1.398  1.4354  0.6951 -1.3697
  343TIP3   OH222587   1.187   1.339   1.884  0.2145  0.1000  0.2531
  343TIP3    H122588   1.265   1.313   1.835 -1.7334 -1.1488 -2.3021
  343TIP3    H222589   1.174   1.269   1.948  0.6213 -0.1803  0.0279
  344TIP3   OH222590   6.017   6.172   2.420 -0.2040 -0.6092  0.1048
  344TIP3    H122591   5.988   6.098   2.367  2.6919 -2.3935  0.8815
  344TIP3    H222592   5.981   6.156   2.507  0.1708 -0.9689  0.1965
  345TIP3   OH222593   3.284   7.079   7.195  0.5905 -0.1046  0.2308
  345TIP3    H122594   3.253   7.027   7.268 -0.3505 -0.9786 -0.7754
  345TIP3    H222595   3.302   7.016   7.125  1.6962  0.6882 -0.2267
  346TIP3   OH222596   4.762   6.851   8.304 -0.3421 -0.1170  0.0908
  346TIP3    H122597   4.786   6.924   8.361  0.6613 -0.3829  0.0170
  346TIP3    H222598   4.757   6.889   8.217 -0.3063 -0.0389  0.1229
  347TIP3   OH222599   0.491   1.913   2.515 -0.4568 -0.5100 -0.4216
  347TIP3    H122600   0.397   1.901   2.530 -0.5474 -0.8004 -1.2039
  347TIP3    H222601   0.533   1.867   2.588 -0.9499  1.2903  1.0359
  348TIP3   OH222602   0.182   5.645   2.142 -0.3224 -0.2477  0.4258
  348TIP3    H122603   0.227   5.682   2.217  2.3739 -0.0238 -1.2323
  348TIP3    H222604   0.199   5.551   2.148  0.1223 -0.1990 -0.0255
  349TIP3   OH222605   6.915   1.784   2.038  0.2518  0.3074 -0.0478
  349TIP3    H122606   6.825   1.808   2.062 -0.5233 -1.4532 -1.0667
  349TIP3    H222607   6.969   1.819   2.109 -1.2713  1.0372  0.7834
  350TIP3   OH222608   5.655   0.978   0.962  0.2412 -0.1182  0.2498
  350TIP3    H122609   5.674   1.043   1.030 -0.8849  1.2366 -0.6776
  350TIP3    H222610   5.711   1.004   0.889 -0.4966  0.0490 -0.2581
  351TIP3   OH222611   6.388   1.258   1.161 -0.7347  0.2227  0.2969
  351TIP3    H122612   6.483   1.256   1.153 -0.6664 -1.2092  1.2351
  351TIP3    H222613   6.367   1.351   1.172  0.5157  0.5825 -0.2321
  352TIP3   OH222614   2.318   3.706   0.640  0.0115  0.0154  0.6109
  352TIP3    H122615   2.269   3.744   0.713 -0.9352  2.9288 -1.4712
  352TIP3    H222616   2.410   3.714   0.666 -0.2914  1.5628  1.2515
  353TIP3   OH222617   1.421   6.841   2.665 -0.9501 -0.2099 -0.6723
  353TIP3    H122618   1.411   6.915   2.605  0.1142  0.1405 -0.4142
  353TIP3    H222619   1.500   6.861   2.715 -1.3945 -0.8865  0.3058
  354TIP3   OH222620   0.904   5.969   7.876  0.2284 -0.0164 -0.1920
  354TIP3    H122621   0.914   5.949   7.969 -0.7903 -0.5448 -0.1878
  354TIP3    H222622   0.962   6.044   7.862  2.0359 -1.2718  0.3723
  355TIP3   OH222623   1.288   3.385   0.779 -0.0089  0.1825 -0.0478
  355TIP3    H122624   1.247   3.435   0.709 -0.4114  0.8713  0.6757
  355TIP3    H222625   1.275   3.293   0.754  1.9047  0.4295 -2.0409
  356TIP3   OH222626   6.364   5.723   8.270  0.5922  0.1934  0.2852
  356TIP3    H122627   6.304   5.727   8.344  0.0948 -1.1380 -0.0223
  356TIP3    H222628   6.414   5.642   8.284  0.2199 -0.2739 -1.0260
  357TIP3   OH222629   6.652   3.546   7.046 -0.3295  0.3535  0.0887
  357TIP3    H122630   6.724   3.494   7.082 -0.9712 -1.2608 -0.9001
  357TIP3    H222631   6.695   3.624   7.011  1.0804 -1.0347 -1.3726
  358TIP3   OH222632   4.138   1.082   1.093 -0.1653 -0.0881  0.0002
  358TIP3    H122633   4.188   1.020   1.146 -1.0193 -1.2000 -0.4684
  358TIP3    H222634   4.046   1.061   1.111 -0.4879  2.1821  1.1470
  359TIP3   OH222635   1.115   0.079   7.104 -0.3677  0.0171 -0.2097
  359TIP3    H122636   1.130   0.078   7.199 -2.8867 -1.7744  0.2001
  359TIP3    H222637   1.070   0.162   7.088 -1.5352 -0.4778  0.4436
  360TIP3   OH222638   7.177   0.620   6.529  0.5689 -0.4210 -0.0358
  360TIP3    H122639   7.108   0.621   6.596  1.1367 -1.9802  0.5993
  360TIP3    H222640   7.138   0.665   6.454 -1.0786 -1.0883  0.3848
  361TIP3   OH222641   1.592   1.636   6.274 -0.1138  0.2928  0.4425
  361TIP3    H122642   1.673   1.587   6.258 -0.2889  0.1956 -0.1757
  361TIP3    H222643   1.543   1.582   6.336  0.2760  0.3317  0.7840
  362TIP3   OH222644   7.269   0.939   8.326 -0.4223  0.0705 -0.1538
  362TIP3    H122645   7.233   0.870   8.380 -0.9505  0.6032  0.1795
  362TIP3    H222646   7.217   1.017   8.348  1.2263  0.9589  0.6797
  363TIP3   OH222647   6.641   1.752   6.901  0.0418  0.7555  0.5997
  363TIP3    H122648   6.730   1.787   6.899 -0.5097  2.1589 -1.7144
  363TIP3    H222649   6.648   1.666   6.861  0.4379  0.6767  0.8393
  364TIP3   OH222650   1.522   0.930   6.960  0.1371  0.8175 -0.0920
  364TIP3    H122651   1.506   1.015   6.920  0.4646  0.7581 -0.3467
  364TIP3    H222652   1.563   0.878   6.891 -0.2435  0.3872 -0.0029
  365TIP3   OH222653   1.511   2.375   8.478 -0.2730  0.0230 -0.2719
  365TIP3    H122654   1.505   2.470   8.467  0.2345  0.3274  1.8839
  365TIP3    H222655   1.605   2.356   8.467 -0.2824 -0.1422 -0.0660
  366TIP3   OH222656   1.703   6.619   0.403  0.3378  0.0892 -0.1421
  366TIP3    H122657   1.650   6.698   0.390 -1.8338 -1.2224  0.3539
  366TIP3    H222658   1.666   6.555   0.341 -1.2890 -2.0681  2.9350
  367TIP3   OH222659   6.876   4.539   0.157 -0.6550  0.1316  0.2265
  367TIP3    H122660   6.921   4.624   0.159 -0.6624  0.1811 -1.0528
  367TIP3    H222661   6.793   4.554   0.202  1.4655 -0.5084  4.5811
  368TIP3   OH222662   0.572   3.650   6.305 -0.1956 -0.3037 -0.5449
  368TIP3    H122663   0.480   3.645   6.331  0.6811 -2.6354  2.5259
  368TIP3    H222664   0.582   3.583   6.238 -0.6050 -0.4497 -0.4597
  369TIP3   OH222665   1.497   5.578   6.591 -0.2199 -0.0486  0.4527
  369TIP3    H122666   1.494   5.486   6.564  0.6497 -0.5796  2.0683
  369TIP3    H222667   1.505   5.627   6.509 -1.5405 -1.3408 -0.4941
  370TIP3   OH222668   7.236   1.535   0.686  0.5730 -0.5033  0.2949
  370TIP3    H122669   7.311   1.578   0.726 -1.5546  2.4758  1.2278
  370TIP3    H222670   7.222   1.582   0.604  1.0838 -2.5155 -0.9708
  371TIP3   OH222671   4.056   1.195   6.486  0.5390  0.1841 -0.3529
  371TIP3    H122672   4.080   1.215   6.396 -1.4362  0.5717 -0.8006
  371TIP3    H222673   4.055   1.099   6.490 -1.5503  0.1455 -1.3491
  372TIP3   OH222674   1.768   6.476   8.499 -0.1422 -0.2049  0.1422
  372TIP3    H122675   1.838   6.541   8.489 -1.5007  1.0571 -1.2612
  372TIP3    H222676   1.687   6.527   8.499 -1.2775 -1.9612 -1.7634
  373TIP3   OH222677   6.311   1.925   7.059 -0.2443  0.3719 -0.0217
  373TIP3    H122678   6.381   1.940   7.122 -0.8773  1.3031  0.4648
  373TIP3    H222679   6.342   1.850   7.007  0.9059  0.4940  0.4648
  374TIP3   OH222680   0.274   0.819   5.860 -0.4803  0.2748  0.6080
  374TIP3    H122681   0.346   0.781   5.910  0.7538 -0.8037 -1.9075
  374TIP3    H222682   0.205   0.753   5.863 -0.8578  0.7035  1.8103
  375TIP3   OH222683   4.184   2.538   6.736 -0.4832  0.1553  0.2940
  375TIP3    H122684   4.142   2.552   6.820  1.7743 -1.2785  1.7115
  375TIP3    H222685   4.272   2.573   6.746  0.5623 -2.0556 -0.6728
  376TIP3   OH222686   3.873   6.053   7.777  0.1119  0.3793 -0.5000
  376TIP3    H122687   3.796   6.003   7.806  1.2936 -0.6421  1.0035
  376TIP3    H222688   3.901   6.101   7.856 -0.2762  2.4808 -1.6121
  377TIP3   OH222689   2.436   7.279   6.727  0.5811 -0.3146 -0.2476
  377TIP3    H122690   2.494   7.275   6.803  0.0613  0.9002  0.2287
  377TIP3    H222691   2.403   7.369   6.727 -1.3175 -0.9969 -0.4911
  378TIP3   OH222692   6.772   0.659   1.593 -0.0720  0.4882  0.0351
  378TIP3    H122693   6.717   0.656   1.515 -1.5077 -1.0779  1.0809
  378TIP3    H222694   6.807   0.570   1.602  1.2133  1.0128  0.4032
  379TIP3   OH222695   7.185   0.486   7.330  0.1322  0.4120  0.1761
  379TIP3    H122696   7.279   0.471   7.333  0.0760 -0.0190 -0.1279
  379TIP3    H222697   7.157   0.490   7.421  0.4609  0.6316  0.2652
  380TIP3   OH222698   7.290   2.277   0.675 -0.7613 -0.2710  0.1998
  380TIP3    H122699   7.316   2.362   0.641 -0.1876  0.1989  1.7470
  380TIP3    H222700   7.195   2.275   0.665 -0.7213  0.3238 -0.3268
  381TIP3   OH222701   7.037   7.134   0.041  0.0093  0.1062  0.1943
  381TIP3    H122702   7.128   7.137   0.014  0.0973  0.1824  0.4979
  381TIP3    H222703   7.036   7.075   0.117 -0.3134 -0.5211 -0.2820
  382TIP3   OH222704   5.253   5.547   0.974  0.0953 -0.0483 -0.3785
  382TIP3    H122705   5.325   5.603   0.944 -1.0709  1.7553  0.1691
  382TIP3    H222706   5.175   5.585   0.935 -0.8315 -0.7251  0.8078
  383TIP3   OH222707   0.445   4.377   7.209 -0.7405  0.4678 -0.1249
  383TIP3    H122708   0.507   4.389   7.280 -0.3924  0.3757 -0.4099
  383TIP3    H222709   0.362   4.412   7.242 -0.5441  0.5589  0.2664
  384TIP3   OH222710   1.198   0.799   6.852  0.5597 -0.1201  0.3618
  384TIP3    H122711   1.282   0.769   6.887 -1.3360 -2.4462  3.2174
  384TIP3    H222712   1.181   0.881   6.899  0.5094 -0.4602  0.9426
  385TIP3   OH222713   0.888   6.817   0.824 -0.5099  0.3184  0.9575
  385TIP3    H122714   0.923   6.861   0.747 -1.5154 -0.0783  0.2699
  385TIP3    H222715   0.871   6.887   0.887 -0.6511  0.7466  0.4383
  386TIP3   OH222716   7.064   1.158   6.596 -0.2566 -0.2211  0.0326
  386TIP3    H122717   7.153   1.123   6.587 -0.1261 -0.0258  0.5704
  386TIP3    H222718   7.025   1.107   6.666  0.0955  1.0178  1.1604
  387TIP3   OH222719   1.158   1.660   6.857  0.3501 -0.3784  0.1041
  387TIP3    H122720   1.105   1.716   6.800  0.6383  1.6905  1.8107
  387TIP3    H222721   1.248   1.674   6.827  0.4413  0.2293  0.6592
  388TIP3   OH222722   7.237   0.098   8.299  0.3523  0.5391 -0.1965
  388TIP3    H122723   7.210   0.179   8.342  0.5576  0.4543  0.0904
  388TIP3    H222724   7.313   0.123   8.247  0.3707  0.5449 -0.1667
  389TIP3   OH222725   6.099   0.581   0.483  0.2408 -0.3228  0.2319
  389TIP3    H122726   6.149   0.537   0.414  0.8338 -0.7341  0.9182
  389TIP3    H222727   6.119   0.532   0.563  1.0608  1.2830  1.0557
  390TIP3   OH222728   7.136   2.149   6.320  0.1939  0.1042 -0.7660
  390TIP3    H122729   7.178   2.086   6.261  1.3688  0.4923 -0.3620
  390TIP3    H222730   7.133   2.230   6.269  1.6131  0.5551 -0.1429
  391TIP3   OH222731   5.565   6.431   7.881  0.3826  0.3651  0.0731
  391TIP3    H122732   5.654   6.407   7.908  1.2335  0.4459 -2.5657
  391TIP3    H222733   5.573   6.521   7.850 -0.1928 -0.3077 -2.0735
  392TIP3   OH222734   6.589   1.073   7.307  0.1825  0.2020  0.4126
  392TIP3    H122735   6.586   1.169   7.310 -2.3294  0.1326  0.7380
  392TIP3    H222736   6.573   1.051   7.216  1.1901  0.0894  0.2573
  393TIP3   OH222737   1.766   1.131   7.145 -0.2876  0.0068 -0.2237
  393TIP3    H122738   1.758   1.083   7.063 -0.5506  0.9912 -0.7864
  393TIP3    H222739   1.760   1.064   7.213 -3.0827 -0.4796 -0.9149
  394TIP3   OH222740   1.688   6.509   7.388  0.3614 -0.0659 -0.3806
  394TIP3    H122741   1.758   6.543   7.444 -0.4563  0.3058  0.4321
  394TIP3    H222742   1.724   6.429   7.351  0.4722 -0.9758  1.6399
  395TIP3   OH222743   6.666   6.726   8.331 -0.1223  0.1270  0.0675
  395TIP3    H122744   6.622   6.743   8.415 -2.6502  1.0225 -1.3546
  395TIP3    H222745   6.637   6.638   8.307  1.7791 -0.7138  0.8121
  396TIP3   OH222746   7.075   2.682   6.951 -0.0549 -0.1135 -0.3352
  396TIP3    H122747   7.128   2.743   7.002  0.3423 -0.3069 -0.5173
  396TIP3    H222748   7.054   2.729   6.871 -2.0570  0.8059  0.6955
  397TIP3   OH222749   0.836   2.732   8.425  0.1186 -0.2604  0.4246
  397TIP3    H122750   0.779   2.805   8.401 -0.4673 -0.0434  2.3310
  397TIP3    H222751   0.921   2.772   8.439  0.3813 -0.3369 -0.9016
  398TIP3   OH222752   0.827   1.503   7.115 -0.2178 -0.5898 -0.3724
  398TIP3    H122753   0.855   1.594   7.106 -1.0912 -0.1708  0.8606
  398TIP3    H222754   0.742   1.500   7.072  0.0087 -0.9248 -0.7914
  399TIP3   OH222755   3.137   4.891   8.375  0.0701 -0.2255 -0.6282
  399TIP3    H122756   3.125   4.880   8.281  0.7297 -0.5755 -0.6745
  399TIP3    H222757   3.148   4.801   8.408 -0.2783 -0.1126 -0.2018
  400TIP3   OH222758   1.143   2.498   6.613  0.1324 -0.3135  0.3125
  400TIP3    H122759   1.191   2.555   6.672 -1.1331 -1.4756  2.5466
  400TIP3    H222760   1.062   2.546   6.594  1.3216  0.8615 -2.0172
  401TIP3   OH222761   0.816   1.494   0.382  0.0931  0.2181 -0.6448
  401TIP3    H122762   0.909   1.480   0.363  0.4034  0.5214  0.6495
  401TIP3    H222763   0.814   1.526   0.472 -1.3130 -0.4158 -0.4328
  402TIP3   OH222764   1.178   1.426   6.149 -0.0608  0.1173 -0.3554
  402TIP3    H122765   1.125   1.351   6.174 -0.4604  1.0544  1.7291
  402TIP3    H222766   1.125   1.473   6.085 -0.2430 -0.8196 -0.8995
  403TIP3   OH222767   2.598   2.527   6.590  0.1585 -0.2915 -0.3844
  403TIP3    H122768   2.688   2.557   6.576 -0.6325  2.3333 -0.0088
  403TIP3    H222769   2.600   2.435   6.561  2.9747 -0.3473 -0.2292
  404TIP3   OH222770   6.856   0.810   0.824  0.4150  0.4417 -0.2240
  404TIP3    H122771   6.880   0.879   0.886 -1.2872 -0.6186  1.6650
  404TIP3    H222772   6.761   0.817   0.815  0.5935  0.3156 -2.4177
  405TIP3   OH222773   6.514   7.258   7.507 -0.0762 -0.4550 -0.5383
  405TIP3    H122774   6.578   7.325   7.531  0.1757 -1.2149  0.9736
  405TIP3    H222775   6.553   7.176   7.537  0.2027 -1.4660 -3.5135
  406TIP3   OH222776   2.046   3.063   8.250  0.4024 -0.0901 -0.0195
  406TIP3    H122777   2.063   3.158   8.254 -1.1498  0.1039  4.8831
  406TIP3    H222778   2.132   3.023   8.262  0.9721  0.6811 -1.4102
  407TIP3   OH222779   2.566   6.621   6.708  0.4221 -0.5829  0.8402
  407TIP3    H122780   2.590   6.697   6.760 -0.1599  0.6847 -0.7076
  407TIP3    H222781   2.612   6.548   6.749  0.1483  0.4182  2.9686
  408TIP3   OH222782   0.601   0.349   6.673 -0.1448  0.6154  0.1501
  408TIP3    H122783   0.664   0.334   6.602 -0.0724  1.6041 -0.0046
  408TIP3    H222784   0.536   0.408   6.635 -0.6979  0.2825  0.5751
  409TIP3   OH222785   6.002   0.483   7.348  0.3245 -0.0884 -0.6351
  409TIP3    H122786   5.979   0.514   7.261 -1.2483 -2.1829 -0.9973
  409TIP3    H222787   5.941   0.527   7.407  1.1506  1.0450 -0.6083
  410TIP3   OH222788   0.162   0.557   6.551  0.3930 -0.3542  0.7246
  410TIP3    H122789   0.187   0.585   6.463 -0.4595 -1.9159 -0.0364
  410TIP3    H222790   0.072   0.588   6.561  0.6923  0.3340  1.2726
  411TIP3   OH222791   3.339   6.185   7.144 -0.4078 -0.5329  0.6649
  411TIP3    H122792   3.404   6.191   7.074 -0.5651  1.5647  0.6484
  411TIP3    H222793   3.258   6.214   7.102 -1.5122 -3.7137  0.5235
  412TIP3   OH222794   1.193   3.633   6.773  0.1258 -0.8819  0.4890
  412TIP3    H122795   1.141   3.594   6.844 -1.6301 -0.3836 -0.5056
  412TIP3    H222796   1.137   3.628   6.696  0.5830  1.9433 -0.0750
  413TIP3   OH222797   3.752   2.558   6.875 -0.5820  0.2316  0.1394
  413TIP3    H122798   3.775   2.478   6.827  1.4175 -0.5871  2.3503
  413TIP3    H222799   3.683   2.530   6.935  1.2409 -0.2862  2.0571
  414TIP3   OH222800   0.365   0.530   8.320  0.4784 -0.2639 -0.5197
  414TIP3    H122801   0.453   0.494   8.329  1.0473  1.7150  2.5776
  414TIP3    H222802   0.379   0.620   8.291 -0.5535 -0.1500 -0.6699
  415TIP3   OH222803   6.379   0.346   8.049  0.3587 -0.2201 -0.4203
  415TIP3    H122804   6.327   0.265   8.043  1.0869 -0.6974 -0.3635
  415TIP3    H222805   6.392   0.373   7.958  0.5839 -0.4754 -0.4653
  416TIP3   OH222806   7.053   2.041   6.821 -0.5473 -0.3121  0.6188
  416TIP3    H122807   7.113   2.028   6.748  1.4047 -1.1305  2.3092
  416TIP3    H222808   7.028   2.133   6.816  1.2079  0.1623  0.1453
  417TIP3   OH222809   4.801   1.898   6.722  0.5269 -0.0143 -0.1878
  417TIP3    H122810   4.794   1.816   6.673  1.5586  0.8006 -1.7549
  417TIP3    H222811   4.894   1.906   6.741  0.4020  0.7135  0.1161
  418TIP3   OH222812   1.365   4.320   7.138 -0.0590 -0.5558  0.0837
  418TIP3    H122813   1.272   4.309   7.160 -0.3139 -0.3964 -0.8811
  418TIP3    H222814   1.372   4.291   7.047  0.4251  1.3991 -0.5273
  419TIP3   OH222815   0.452   2.848   1.268 -0.3524  0.2869  0.7916
  419TIP3    H122816   0.439   2.861   1.174 -3.9234 -1.8056  0.9079
  419TIP3    H222817   0.528   2.790   1.275  0.3616  1.0152 -0.7316
  420TIP3   OH222818   6.117   0.555   6.747  0.3273 -0.2920 -0.0932
  420TIP3    H122819   6.172   0.496   6.800 -0.5091 -2.8386 -1.9722
  420TIP3    H222820   6.028   0.539   6.779 -0.0304 -0.8928 -1.3597
  421TIP3   OH222821   1.066   2.057   6.760  0.3143  0.1516 -0.8563
  421TIP3    H122822   1.071   1.962   6.753 -2.2739 -0.1155  0.1616
  421TIP3    H222823   1.068   2.075   6.854  0.5955  1.0762 -1.0308
  422TIP3   OH222824   5.515   7.181   6.802  0.0596  0.6859  1.1758
  422TIP3    H122825   5.490   7.152   6.889  0.9801 -1.2032  0.8444
  422TIP3    H222826   5.609   7.163   6.797  0.1951  1.6466  0.1371
  423TIP3   OH222827   5.430   1.465   7.635 -0.1413 -0.4582 -0.2717
  423TIP3    H122828   5.463   1.512   7.558  0.8826  0.6350  0.8066
  423TIP3    H222829   5.504   1.413   7.665 -0.6051 -1.0512 -0.1573
  424TIP3   OH222830   1.847   1.660   6.994 -0.4777  0.1070 -0.3957
  424TIP3    H122831   1.839   1.753   7.014 -1.2421  0.0174 -0.2675
  424TIP3    H222832   1.877   1.621   7.076 -0.3257  0.2142 -0.3999
  425TIP3   OH222833   0.778   7.076   7.654 -0.0918  0.4364  0.6007
  425TIP3    H122834   0.791   6.985   7.681  0.1426  0.9516  2.2900
  425TIP3    H222835   0.836   7.127   7.711  1.5038  1.4625 -1.8835
  426TIP3   OH222836   4.453   6.338   7.331  0.7578 -0.3263  0.0956
  426TIP3    H122837   4.377   6.382   7.293  1.6095  2.4434  1.4691
  426TIP3    H222838   4.529   6.383   7.293  1.6596 -0.7311  1.3820
  427TIP3   OH222839   7.172   0.207   6.067 -0.1672 -0.2517 -0.0304
  427TIP3    H122840   7.245   0.147   6.055  0.5859  0.5714  0.3690
  427TIP3    H222841   7.164   0.252   5.983  0.2076  0.1163  0.1283
  428TIP3   OH222842   1.681   1.835   8.025  0.1672  0.8533 -0.8290
  428TIP3    H122843   1.646   1.827   8.114  1.8931 -0.7951 -0.2781
  428TIP3    H222844   1.756   1.894   8.033  1.9607 -1.3969 -0.6896
  429TIP3   OH222845   2.472   1.451   8.109 -0.1255 -0.3016 -0.5678
  429TIP3    H122846   2.540   1.385   8.092  0.9548  0.6605 -0.0167
  429TIP3    H222847   2.423   1.457   8.027  1.9467  0.7218 -1.7697
  430TIP3   OH222848   0.456   7.049   7.889  0.4789  0.1391 -0.4348
  430TIP3    H122849   0.478   7.124   7.834  0.9808  0.1472 -0.2284
  430TIP3    H222850   0.504   7.063   7.970 -2.1430  1.3353  0.9732
  431TIP3   OH222851   1.697   0.460   7.138 -0.0252  0.8543 -0.1370
  431TIP3    H122852   1.778   0.493   7.099  0.6605  0.0467  0.5963
  431TIP3    H222853   1.663   0.399   7.073  0.4443  0.4871 -0.0438
  432TIP3   OH222854   1.662   6.696   6.793  0.8043 -0.4944 -0.8542
  432TIP3    H122855   1.724   6.624   6.796  0.8741 -0.4687 -1.5617
  432TIP3    H222856   1.716   6.775   6.798  0.9201 -0.4514 -2.4956
  433TIP3   OH222857   1.532   5.065   0.839  0.3419  0.4790  0.1487
  433TIP3    H122858   1.498   5.090   0.925  0.4346  1.4878 -0.1060
  433TIP3    H222859   1.474   5.109   0.777  0.9690  0.6755 -0.2983
  434TIP3   OH222860   1.620   1.472   6.644 -0.5455 -0.0719 -0.2352
  434TIP3    H122861   1.549   1.425   6.688 -1.5906  0.8076 -0.9502
  434TIP3    H222862   1.591   1.481   6.554  0.7728 -0.2559 -0.6944
  435TIP3   OH222863   6.875   7.074   7.783 -0.3434 -0.2117  0.9220
  435TIP3    H122864   6.938   7.007   7.810  0.3023  0.7042  1.7120
  435TIP3    H222865   6.845   7.113   7.865 -0.2392  0.9047  0.4284
  436TIP3   OH222866   0.608   1.094   8.184  0.2537 -0.1598  0.3628
  436TIP3    H122867   0.691   1.106   8.229 -0.3333  2.9779  0.7083
  436TIP3    H222868   0.564   1.023   8.232  1.3621  0.3674  2.1948
  437TIP3   OH222869   0.807   6.815   7.730  0.2586 -0.0436 -0.2973
  437TIP3    H122870   0.770   6.801   7.817 -1.1150  0.9223 -0.7059
  437TIP3    H222871   0.839   6.729   7.703 -1.6353 -0.9021  0.1187
  438TIP3   OH222872   0.810   0.269   6.512  0.3736 -0.5613  0.4571
  438TIP3    H122873   0.848   0.187   6.481  0.5808 -1.1891  2.2996
  438TIP3    H222874   0.866   0.295   6.585 -0.7821  0.2445  1.0716
  439TIP3   OH222875   7.146   1.691   1.013  0.0680  0.1497  0.0763
  439TIP3    H122876   7.125   1.777   1.052  0.4102  0.1773  0.2020
  439TIP3    H222877   7.207   1.652   1.075 -1.2304 -0.8119  0.7785
  440TIP3   OH222878   1.200   6.750   1.422 -0.0726  0.2419 -0.5898
  440TIP3    H122879   1.129   6.687   1.410  0.8215 -1.1976  1.5530
  440TIP3    H222880   1.273   6.714   1.372 -0.0865  0.4635 -0.7707
  441TIP3   OH222881   7.254   3.373   7.224 -0.2181 -0.0575  0.5452
  441TIP3    H122882   7.188   3.420   7.276  0.0237  0.2037  0.6152
  441TIP3    H222883   7.303   3.322   7.289 -1.8858 -2.1221  0.2379
  442TIP3   OH222884   0.587   2.330   1.515 -0.2626 -0.6165  0.2921
  442TIP3    H122885   0.670   2.282   1.509  0.6433  0.8456  0.7755
  442TIP3    H222886   0.548   2.300   1.597  1.7842  1.7093  2.2018
  443TIP3   OH222887   0.493   2.176   8.056 -0.0212 -0.1582  0.6632
  443TIP3    H122888   0.530   2.125   8.129 -0.5334  0.4598  1.3592
  443TIP3    H222889   0.437   2.240   8.098 -0.3556  0.1773 -0.2925
  444TIP3   OH222890   1.647   0.020   6.839 -0.2989  0.4820 -0.7350
  444TIP3    H122891   1.705  -0.015   6.906  0.1186 -2.0166 -2.3312
  444TIP3    H222892   1.705   0.066   6.778 -0.1659 -0.6629 -1.4868
  445TIP3   OH222893   7.178   3.104   1.726 -1.2966 -0.1080  0.1133
  445TIP3    H122894   7.125   3.087   1.649 -0.6573  1.1762 -0.6275
  445TIP3    H222895   7.159   3.032   1.786 -4.8495  0.9931  0.3961
  446TIP3   OH222896   1.698   0.712   6.460  0.2928 -0.5750 -0.2315
  446TIP3    H122897   1.663   0.659   6.389 -1.0421  1.5251 -1.1904
  446TIP3    H222898   1.703   0.800   6.424  0.7237  0.3160  1.9055
  447TIP3   OH222899   3.323   5.345   8.194  0.0656 -0.4358  0.2278
  447TIP3    H122900   3.360   5.424   8.233 -2.7868  1.8634 -1.5109
  447TIP3    H222901   3.236   5.337   8.232  0.6170 -3.2821  1.0069
  448TIP3   OH222902   7.286   7.053   7.946 -0.4376  0.2305 -0.9237
  448TIP3    H122903   7.255   7.142   7.962 -1.0743 -0.0600 -0.5052
  448TIP3    H222904   7.227   7.018   7.879 -1.4621 -0.5615  0.3756
  449TIP3   OH222905   1.022   2.833   0.343 -1.0575  0.1437  0.0650
  449TIP3    H122906   0.942   2.795   0.305 -1.0620  1.6358 -1.4383
  449TIP3    H222907   1.084   2.760   0.345 -3.1105 -1.6597  3.3765
  450TIP3   OH222908   2.825   6.800   6.313 -0.0091  0.4807  0.3342
  450TIP3    H122909   2.904   6.768   6.268  0.1506 -0.9963  1.6259
  450TIP3    H222910   2.805   6.731   6.376 -2.1412  1.0164  0.2522
  451TIP3   OH222911   2.275   5.881   6.326 -0.3356  0.7950 -0.1206
  451TIP3    H122912   2.250   5.865   6.417  0.0659 -0.4101 -0.2127
  451TIP3    H222913   2.210   5.833   6.274  1.3735 -1.3462 -0.3796
  452TIP3   OH222914   6.067   5.335   0.872 -0.6085  0.0092 -0.1883
  452TIP3    H122915   6.109   5.327   0.786 -0.2636  0.2393 -0.0398
  452TIP3    H222916   6.071   5.247   0.909 -0.5497 -0.0398 -0.3124
  453TIP3   OH222917   5.782   0.552   0.487  0.4467  0.3746  0.2798
  453TIP3    H122918   5.750   0.497   0.559  2.3075  0.0979  0.9220
  453TIP3    H222919   5.877   0.540   0.488  0.4129 -0.8287 -3.1957
  454TIP3   OH222920   5.594   1.193   0.672 -0.2599 -0.8057  0.3757
  454TIP3    H122921   5.621   1.280   0.702 -1.4135 -0.8134  1.4943
  454TIP3    H222922   5.669   1.137   0.690  0.0665 -0.2659  0.7298
  455TIP3   OH222923   2.276   6.788   6.335  0.3664 -0.1878 -0.2870
  455TIP3    H122924   2.234   6.873   6.346  1.5086  0.4060 -0.4192
  455TIP3    H222925   2.342   6.803   6.267  0.8530 -1.0736 -0.0146
  456TIP3   OH222926   0.677   0.916   1.159 -0.7716  0.4189 -0.3856
  456TIP3    H122927   0.770   0.918   1.137 -0.6822 -1.9446 -0.3982
  456TIP3    H222928   0.673   0.939   1.251  0.0656 -1.5917  0.1782
  457TIP3   OH222929   1.381   2.122   7.468 -0.0478  0.1168 -0.5512
  457TIP3    H122930   1.322   2.192   7.441 -0.9270  0.0786  1.1667
  457TIP3    H222931   1.358   2.048   7.411 -1.8056  0.0476  0.2040
  458TIP3   OH222932   1.615   1.084   8.395 -0.3622 -0.3491 -0.0880
  458TIP3    H122933   1.556   1.138   8.448 -1.3878 -0.5067 -1.0812
  458TIP3    H222934   1.594   1.106   8.305  1.1070 -0.3997 -0.4535
  459TIP3   OH222935   4.426   5.929   7.794  0.0651  0.3577  0.3197
  459TIP3    H122936   4.507   5.882   7.778 -0.4739 -0.2287 -0.7332
  459TIP3    H222937   4.361   5.860   7.810 -0.2789  0.8110  0.9245
  460TIP3   OH222938   3.070   4.291   7.797 -0.3158 -0.2071 -0.1235
  460TIP3    H122939   3.000   4.336   7.845  0.4425  0.1347  0.6698
  460TIP3    H222940   3.110   4.233   7.862 -0.3167 -0.9222 -0.7562
  461TIP3   OH222941   0.263   1.314   6.339  0.2872  0.3343 -0.7106
  461TIP3    H122942   0.348   1.328   6.379  0.2633  0.2858 -0.6433
  461TIP3    H222943   0.223   1.401   6.336  0.2905  0.3386 -0.6334
  462TIP3   OH222944   2.020   1.328   8.308 -0.3531 -0.4756  0.5285
  462TIP3    H122945   2.103   1.375   8.301 -1.7471  1.7584 -2.1348
  462TIP3    H222946   2.039   1.255   8.366  3.7295 -0.6176 -0.8029
  463TIP3   OH222947   2.084   0.083   6.681  0.0256  0.1046 -0.7029
  463TIP3    H122948   2.094   0.037   6.598 -1.1007 -0.5748 -0.4699
  463TIP3    H222949   2.170   0.121   6.697  0.1687  0.4968 -2.3251
  464TIP3   OH222950   2.701   0.343   6.230  0.5572  0.6339  0.5807
  464TIP3    H122951   2.626   0.312   6.281  0.6264 -0.6430 -0.0788
  464TIP3    H222952   2.767   0.275   6.241  0.2808 -0.0572 -1.8704
  465TIP3   OH222953   1.298   0.933   0.076 -0.0962  0.0607  0.3541
  465TIP3    H122954   1.273   0.994   0.006 -1.2323 -0.2793  0.4501
  465TIP3    H222955   1.254   0.852   0.054 -0.3814 -0.0781  1.4140
  466TIP3   OH222956   2.096   0.440   6.575 -0.5056  0.0057 -0.1265
  466TIP3    H122957   2.183   0.418   6.543 -1.4091  0.5622 -3.1617
  466TIP3    H222958   2.046   0.359   6.568 -0.6080  0.0333  0.2642
  467TIP3   OH222959   1.438   0.143   7.268  0.8813 -0.4318 -0.0363
  467TIP3    H122960   1.445   0.162   7.174  0.3950 -1.5751 -0.3148
  467TIP3    H222961   1.352   0.175   7.293  0.5754 -1.1179 -0.2196
  468TIP3   OH222962   2.233   3.074   7.675 -0.0015 -0.0087 -0.3243
  468TIP3    H122963   2.202   3.046   7.761  1.2966  0.7208  0.4012
  468TIP3    H222964   2.163   3.129   7.641 -0.9474 -1.1058 -0.1637
  469TIP3   OH222965   2.502   7.132   1.114 -0.2679  0.4310  0.3397
  469TIP3    H122966   2.444   7.161   1.043  1.1223 -1.0363 -1.4272
  469TIP3    H222967   2.446   7.077   1.169 -1.1796  1.0313  0.0452
  470TIP3   OH222968   2.128   2.952   0.092  0.1506  0.4250 -0.1322
  470TIP3    H122969   2.147   2.902   0.013 -1.7915  0.3873 -0.5989
  470TIP3    H222970   2.034   2.944   0.104  0.5185 -0.2729  2.6868
  471TIP3   OH222971   1.742   6.579   1.503  0.2165  0.2854 -0.9748
  471TIP3    H122972   1.698   6.633   1.569  1.6288 -0.1260  0.3365
  471TIP3    H222973   1.833   6.608   1.506  0.2373  0.4681 -2.9761
  472TIP3   OH222974   6.519   1.061   7.038  0.6685 -0.3710  0.2859
  472TIP3    H122975   6.602   1.017   7.020  1.2819  1.2117 -0.8371
  472TIP3    H222976   6.453   1.005   6.996  0.9233 -2.6193  2.7476
  473TIP3   OH222977   1.148   6.755   0.519 -0.0708 -0.5905 -0.2993
  473TIP3    H122978   1.096   6.833   0.541  0.3833 -0.1741 -0.6783
  473TIP3    H222979   1.162   6.762   0.424 -0.5699 -1.4697 -0.4391
  474TIP3   OH222980   6.897   7.204   7.062  0.1568  0.2304 -0.2665
  474TIP3    H122981   6.959   7.139   7.028  1.5486  0.3889  1.8428
  474TIP3    H222982   6.937   7.233   7.145 -2.0654  1.3606  0.4335
  475TIP3   OH222983   1.918   0.595   7.039  0.4037 -0.6640  0.5557
  475TIP3    H122984   1.865   0.637   6.971  1.3618  0.1361  0.2864
  475TIP3    H222985   2.008   0.617   7.015  0.8099 -1.3752  1.4280
  476TIP3   OH222986   3.065   6.763   6.186  0.0849 -0.1784 -0.4367
  476TIP3    H122987   3.158   6.777   6.169 -0.0857 -0.9748 -2.1556
  476TIP3    H222988   3.039   6.697   6.122 -1.7260  0.2413 -0.1554
  477TIP3   OH222989   6.938   4.476   7.939 -0.2944 -0.0624 -0.5076
  477TIP3    H122990   6.918   4.386   7.966 -2.2559  0.2982 -0.6910
  477TIP3    H222991   7.022   4.495   7.980 -0.6796 -1.3888  0.9324
  478TIP3   OH222992   7.256   1.394   6.444 -0.2054  0.0394  0.0786
  478TIP3    H122993   7.298   1.476   6.471  4.1464 -1.6900 -0.9021
  478TIP3    H222994   7.277   1.332   6.514 -0.1881 -1.1482 -0.9452
  479TIP3   OH222995   6.605   0.986   8.389 -0.2280 -0.1421 -0.4420
  479TIP3    H122996   6.588   0.893   8.403 -0.4461  0.0143  0.3295
  479TIP3    H222997   6.669   1.009   8.456  1.2709 -0.1694 -1.8173
  480TIP3   OH222998   1.541   0.799   7.208 -0.0457 -0.1924 -0.3557
  480TIP3    H122999   1.472   0.736   7.189 -0.9555  0.8131 -0.4134
  480TIP3    H223000   1.528   0.869   7.144  0.2785  0.5804  0.4202
  481TIP3   OH223001   6.921   2.151   8.418  0.6168  0.0832 -0.5723
  481TIP3    H123002   6.998   2.176   8.469 -1.0732 -1.9836  3.1184
  481TIP3    H223003   6.858   2.221   8.434  0.7227  0.3612 -1.3486
  482TIP3   OH223004   0.935   6.974   8.044  0.2318  0.2058 -0.5313
  482TIP3    H123005   0.953   6.885   8.013  0.1940  0.1671 -0.4409
  482TIP3    H223006   0.912   6.963   8.136  0.0539  0.2902 -0.5659
  483TIP3   OH223007   1.442   2.391   1.592  0.0252 -0.4781  0.3101
  483TIP3    H123008   1.518   2.383   1.534 -0.8388 -1.3421 -0.7346
  483TIP3    H223009   1.479   2.396   1.680  1.3465  0.5721 -0.2878
  484TIP3   OH223010   1.451   2.307   0.290 -0.0409 -0.0965  0.1563
  484TIP3    H123011   1.476   2.326   0.199  0.3795 -2.4635 -0.2707
  484TIP3    H223012   1.463   2.390   0.336 -0.5085  1.2113 -1.9990
  485TIP3   OH223013   0.878   0.857   8.203  0.2268  0.2133  0.8076
  485TIP3    H123014   0.954   0.901   8.165  0.7874 -1.0120  0.4975
  485TIP3    H223015   0.846   0.799   8.134 -0.3601 -0.0531  1.2953
  486TIP3   OH223016   3.438   0.424   8.425  0.5457  0.1728  0.3652
  486TIP3    H123017   3.414   0.432   8.517  0.7487  2.4567  0.2274
  486TIP3    H223018   3.396   0.343   8.397  1.3493 -1.1142  2.7243
  487TIP3   OH223019   1.783   2.472   2.219 -0.1322 -0.5851 -0.0869
  487TIP3    H123020   1.731   2.493   2.142 -1.4510 -0.9990  0.6773
  487TIP3    H223021   1.871   2.504   2.198 -1.0451  1.5635 -0.7584
  488TIP3   OH223022   7.092   6.450   8.489  0.2363  0.1598 -0.6995
  488TIP3    H123023   7.177   6.414   8.461  0.1795 -0.3697 -0.2011
  488TIP3    H223024   7.095   6.445   8.585 -0.9697 -1.2634 -0.7305
  489TIP3   OH223025   1.134   1.248   7.292 -0.4096  0.2783  0.0440
  489TIP3    H123026   1.191   1.301   7.349  0.2355  1.0808 -1.3187
  489TIP3    H223027   1.190   1.178   7.260 -0.8923 -0.4315  0.7368
  490TIP3   OH223028   5.146   1.646   6.732 -0.2604  0.1786  0.9471
  490TIP3    H123029   5.091   1.671   6.805 -0.2845 -0.8224  1.2789
  490TIP3    H223030   5.178   1.558   6.754 -1.5798 -0.8470 -0.9683
  491TIP3   OH223031   1.214   6.824   7.040  0.4814 -0.5184 -0.2124
  491TIP3    H123032   1.270   6.902   7.036 -0.8550  0.6233  2.2075
  491TIP3    H223033   1.247   6.775   7.116  0.6157 -1.8028 -1.0732
  492TIP3   OH223034   1.415   1.893   7.309  0.5418 -0.5889  0.5994
  492TIP3    H123035   1.496   1.905   7.260 -0.1161 -0.0397 -0.3682
  492TIP3    H223036   1.349   1.873   7.243 -0.0161 -1.5681  1.4313
  493TIP3   OH223037   0.548   0.659   6.849 -0.4450 -0.4217 -0.2201
  493TIP3    H123038   0.531   0.651   6.756 -0.3130 -0.1851 -0.2656
  493TIP3    H223039   0.627   0.713   6.855  0.2344 -1.4274 -0.0102
  494TIP3   OH223040   5.823   6.889   6.639 -0.5315 -0.0939  0.2000
  494TIP3    H123041   5.783   6.805   6.618  0.1809 -0.3706 -0.0536
  494TIP3    H223042   5.914   6.881   6.610 -0.4339  0.7294  0.2592
  495TIP3   OH223043   0.032   0.533   6.154  0.1555  0.1018 -0.1979
  495TIP3    H123044   0.062   0.621   6.177  1.1388  0.3884 -2.4195
  495TIP3    H223045   0.089   0.507   6.081  1.3334 -3.2447  1.8244
  496TIP3   OH223046   2.986   0.357   1.942 -0.1970 -0.3073 -0.2333
  496TIP3    H123047   2.934   0.389   2.015 -1.8658 -3.4806  0.0630
  496TIP3    H223048   2.981   0.427   1.876  1.1663  2.5051  2.5214
  497TIP3   OH223049   1.524   0.494   2.307  0.6634 -0.9968  0.3597
  497TIP3    H123050   1.584   0.421   2.292 -0.9719 -2.2598 -0.2122
  497TIP3    H223051   1.463   0.489   2.233 -0.1231  0.2724  0.9222
  498TIP3   OH223052   6.326   0.614   7.081 -0.3018  0.4495  0.3758
  498TIP3    H123053   6.356   0.568   7.160 -2.1517  0.3659  1.0471
  498TIP3    H223054   6.294   0.698   7.114  0.1468  0.9522 -0.4659
  499TIP3   OH223055   6.466   1.523   6.665 -0.0917  0.4507 -0.4038
  499TIP3    H123056   6.483   1.584   6.594  1.6146 -3.2226 -3.3308
  499TIP3    H223057   6.552   1.497   6.696 -0.7748 -0.6751  0.5900
  500TIP3   OH223058   6.003   6.626   5.998 -0.0546  0.3097  0.1235
  500TIP3    H123059   5.948   6.590   6.067 -0.6711 -0.9111 -0.9621
  500TIP3    H223060   6.089   6.587   6.013 -0.4089 -0.6696 -0.3007
  501TIP3   OH223061   1.319   0.739   7.998 -0.0863  1.2421  0.3277
  501TIP3    H123062   1.396   0.784   8.032 -0.0904 -0.1426  2.2352
  501TIP3    H223063   1.354   0.677   7.934  0.0155  3.0855 -1.4859
  502TIP3   OH223064   1.830   0.328   7.505 -0.3199 -0.5924  0.3250
  502TIP3    H123065   1.856   0.245   7.544 -1.2055 -1.6453 -1.2271
  502TIP3    H223066   1.906   0.356   7.455 -0.8960 -1.8577 -1.3195
  503TIP3   OH223067   3.393   0.362   8.014 -0.4195 -0.7118 -0.4281
  503TIP3    H123068   3.396   0.451   8.051 -0.3036  0.0914 -2.3189
  503TIP3    H223069   3.465   0.316   8.056  0.5266  0.5694 -0.6132
  504TIP3   OH223070   7.190   1.716   8.226  0.2688  0.0655 -0.7607
  504TIP3    H123071   7.126   1.678   8.166  0.8671  0.3763 -1.6201
  504TIP3    H223072   7.258   1.649   8.235 -0.3834 -0.4327  0.4897
  505TIP3   OH223073   1.032   0.851   1.700 -0.3901 -1.1304  0.2052
  505TIP3    H123074   1.009   0.939   1.671  0.0914 -1.0555  0.0430
  505TIP3    H223075   1.040   0.858   1.795 -0.9289 -1.1341  0.2523
  506TIP3   OH223076   5.794   2.797   6.851  0.2641 -0.1680  0.9380
  506TIP3    H123077   5.804   2.750   6.934  1.2320 -0.4329  0.6875
  506TIP3    H223078   5.859   2.867   6.856  0.0982  0.0120  0.5495
  507TIP3   OH223079   2.841   2.029   7.759 -0.4264 -0.1740  0.0711
  507TIP3    H123080   2.769   2.081   7.726  0.2919 -0.3991 -1.9421
  507TIP3    H223081   2.817   1.938   7.739  0.7851 -0.1891 -1.3928
  508TIP3   OH223082   1.695   6.996   7.383  0.0190 -0.2041 -0.0919
  508TIP3    H123083   1.698   6.914   7.432 -2.7433 -0.5493 -0.4332
  508TIP3    H223084   1.602   7.017   7.377  0.6664  2.8012 -0.2784
  509TIP3   OH223085   1.263   1.317   6.691 -0.5609 -0.0708 -0.1655
  509TIP3    H123086   1.242   1.236   6.644 -2.2570 -0.2475  0.8523
  509TIP3    H223087   1.262   1.385   6.624 -3.4518 -0.2359 -0.3419
  510TIP3   OH223088   1.260   2.273   8.490  0.0964 -0.1658 -0.0519
  510TIP3    H123089   1.344   2.318   8.505 -0.3665  0.4942  0.5706
  510TIP3    H223090   1.206   2.338   8.445 -1.0389  0.3916  2.0461
  511TIP3   OH223091   0.318   4.080   1.829 -0.1986 -0.2218 -0.1440
  511TIP3    H123092   0.267   4.160   1.839  1.1811  0.6615  0.0152
  511TIP3    H223093   0.254   4.010   1.838 -1.3396  0.8467  0.3192
  512TIP3   OH223094   0.541   1.286   6.908 -0.1276 -0.0702 -0.1098
  512TIP3    H123095   0.601   1.261   6.978  0.8417 -1.2818 -1.3247
  512TIP3    H223096   0.540   1.381   6.910  2.5530  0.0089 -0.6135
  513TIP3   OH223097   1.019   0.132   1.519 -0.2386 -0.1038 -0.6806
  513TIP3    H123098   0.929   0.119   1.489 -0.8709 -0.6652  1.3653
  513TIP3    H223099   1.011   0.185   1.598  1.3743  1.2486 -1.3779
  514TIP3   OH223100   5.998   0.615   8.464  0.7761  0.7089  0.6453
  514TIP3    H123101   5.904   0.628   8.455  0.6568 -0.1424  0.6387
  514TIP3    H223102   6.007   0.524   8.491  1.7002  0.1250 -1.5294
  515TIP3   OH223103   1.331   1.748   6.290  0.4189 -0.3678  0.5137
  515TIP3    H123104   1.295   1.768   6.204 -1.4126 -1.9602  0.8772
  515TIP3    H223105   1.422   1.722   6.273 -0.3944 -2.2032 -1.1280
  516TIP3   OH223106   0.936   7.152   7.332 -0.1235 -0.1834  0.7918
  516TIP3    H123107   0.858   7.208   7.332  0.0139  0.0057  0.2112
  516TIP3    H223108   0.939   7.114   7.244 -0.1803 -1.0566  1.1614
  517TIP3   OH223109   0.724   2.339   6.298 -0.1226 -0.3552 -0.0319
  517TIP3    H123110   0.636   2.305   6.314 -0.0483 -0.0921  0.9436
  517TIP3    H223111   0.716   2.433   6.310  0.1940 -0.2763 -0.4099
  518TIP3   OH223112   0.740   0.753   0.876  0.7772 -0.5610  0.0415
  518TIP3    H123113   0.684   0.813   0.827  0.1054 -1.9986 -1.0069
  518TIP3    H223114   0.710   0.759   0.966 -0.6179 -0.8112 -0.4007
  519TIP3   OH223115   1.206   3.582   7.232 -0.4855  0.5608 -0.5325
  519TIP3    H123116   1.301   3.581   7.227 -0.3496 -3.1159  1.4224
  519TIP3    H223117   1.187   3.645   7.302  0.4098  1.9881 -1.5357
  520TIP3   OH223118   0.305   0.093   7.656 -0.7092 -0.1077  0.7424
  520TIP3    H123119   0.350   0.046   7.727 -1.1178 -0.5476  0.7136
  520TIP3    H223120   0.268   0.024   7.602  0.8992  0.1854 -0.7492
  521TIP3   OH223121   3.811   1.524   7.309  0.0236 -0.2358  0.5786
  521TIP3    H123122   3.886   1.551   7.257 -0.5115 -0.1926 -0.1691
  521TIP3    H223123   3.747   1.595   7.300 -1.2531 -1.5590 -1.1293
  522TIP3   OH223124   1.676   0.419   8.074 -0.0897 -0.2443 -0.1457
  522TIP3    H123125   1.762   0.393   8.041  0.3498 -1.0608  1.6009
  522TIP3    H223126   1.692   0.493   8.131 -0.4591 -0.8064  0.7019
  523TIP3   OH223127   1.554   0.296   7.706 -0.3238 -0.5115 -0.2887
  523TIP3    H123128   1.468   0.294   7.747 -1.4468  0.0505 -2.5552
  523TIP3    H223129   1.579   0.204   7.699 -0.6666 -0.6714  0.4776
  524TIP3   OH223130   1.575   0.024   5.948 -0.6539  0.4295 -0.1950
  524TIP3    H123131   1.599  -0.065   5.924 -1.2398  0.9728 -3.0732
  524TIP3    H223132   1.658   0.067   5.968 -0.1896 -0.2978 -0.5393
  525TIP3   OH223133   1.573   7.299   7.451  0.3177  0.3674  0.1664
  525TIP3    H123134   1.548   7.206   7.453 -1.2656  0.8047  1.3352
  525TIP3    H223135   1.501   7.342   7.406  1.1498  1.0168 -0.5560
  526TIP3   OH223136   0.083   5.844   7.204 -0.4257  0.3841  0.7981
  526TIP3    H123137   0.083   5.873   7.113  1.0839 -2.6414 -0.2335
  526TIP3    H223138  -0.009   5.849   7.230 -1.3103 -1.2536 -1.7740
  527TIP3   OH223139   4.051   3.497   7.132  0.2289  0.3933  0.2212
  527TIP3    H123140   4.042   3.445   7.212 -0.6375  2.2495  1.3604
  527TIP3    H223141   3.961   3.508   7.100  0.1677  2.8897  1.1366
  528TIP3   OH223142   1.391   5.800   6.012 -0.3102 -0.0303 -0.2828
  528TIP3    H123143   1.346   5.833   6.090  1.7100 -0.9857  1.3295
  528TIP3    H223144   1.325   5.749   5.966 -1.5621  0.6156  0.7577
  529TIP3   OH223145   2.167   2.025   7.727  0.8859  0.2863  0.5238
  529TIP3    H123146   2.180   1.948   7.782  2.0864  0.8167  0.9989
  529TIP3    H223147   2.213   2.006   7.646 -1.5247 -0.8134 -0.6405
  530TIP3   OH223148   6.401   3.945   6.531 -0.8044  0.1152  0.5257
  530TIP3    H123149   6.365   3.859   6.554 -1.3535  0.2265  0.1016
  530TIP3    H223150   6.495   3.929   6.520 -0.5032  0.0899  2.9313
  531TIP3   OH223151   1.064   7.105   6.803  0.1583  0.3142  0.4010
  531TIP3    H123152   1.010   7.065   6.735 -0.7976 -2.5599  2.7014
  531TIP3    H223153   1.096   7.186   6.765  1.4865 -2.2347 -4.2861
  532TIP3   OH223154   3.048   0.434   1.432 -0.1435 -0.6288 -0.2102
  532TIP3    H123155   3.065   0.491   1.507 -1.0955 -1.5744  0.7560
  532TIP3    H223156   2.993   0.486   1.373 -0.3861 -0.2885  0.3150
  533TIP3   OH223157   6.389   2.912   6.803 -0.2647  0.6490  0.1326
  533TIP3    H123158   6.456   2.869   6.856  0.5618 -0.1152 -1.5129
  533TIP3    H223159   6.421   2.905   6.713 -1.3807  2.4240 -0.4225
  534TIP3   OH223160   1.283   0.938   1.432 -0.0985 -0.7907 -0.0300
  534TIP3    H123161   1.360   0.918   1.379 -0.3197 -0.0375 -0.6335
  534TIP3    H223162   1.306   1.017   1.480  0.1680 -1.5666  1.1391
  535TIP3   OH223163   1.603   4.800   8.268 -0.2100 -0.3169  0.9536
  535TIP3    H123164   1.544   4.762   8.333 -0.4460 -2.2102 -0.3203
  535TIP3    H223165   1.554   4.873   8.230 -1.7358 -1.8181 -0.0282
  536TIP3   OH223166   1.202   0.002   6.384  0.0003  0.1191 -0.5133
  536TIP3    H123167   1.152   0.022   6.305 -0.2215 -1.6585 -0.8531
  536TIP3    H223168   1.136  -0.009   6.453  0.3125  3.8983  0.4851
  537TIP3   OH223169   3.647   2.532   7.417  0.0468 -0.0646  1.1053
  537TIP3    H123170   3.627   2.622   7.441  0.3041  0.1508  0.5350
  537TIP3    H223171   3.562   2.490   7.408 -0.2675  1.0951 -2.2463
  538TIP3   OH223172   1.141   0.752   1.118  0.0782  0.2214 -0.2417
  538TIP3    H123173   1.091   0.672   1.135 -0.4529  0.7106  0.5217
  538TIP3    H223174   1.208   0.725   1.055 -1.1622 -0.4332 -1.3041
  539TIP3   OH223175   5.237   0.725   0.606 -0.0677 -0.0313 -0.8684
  539TIP3    H123176   5.211   0.689   0.691 -0.5677  0.2907 -0.8825
  539TIP3    H223177   5.332   0.712   0.602  0.1027  0.8899  0.1693
  540TIP3   OH223178   1.748   1.345   6.380 -1.0131  0.4802  0.4080
  540TIP3    H123179   1.790   1.391   6.307  0.6015 -1.9264 -0.2486
  540TIP3    H223180   1.658   1.330   6.350 -0.4935 -0.0902 -0.9339
  541TIP3   OH223181   1.602   0.844   6.708 -0.6697  0.3611 -0.2148
  541TIP3    H123182   1.693   0.843   6.735 -0.5934  0.5689 -0.4584
  541TIP3    H223183   1.600   0.794   6.626 -0.6674  0.8843 -0.5364
  542TIP3   OH223184   2.505   2.148   7.284 -0.4623  0.4949  0.5350
  542TIP3    H123185   2.412   2.170   7.295 -1.1848 -1.5761 -1.0665
  542TIP3    H223186   2.531   2.194   7.204 -0.6814 -0.5574 -0.1527
  543TIP3   OH223187   2.230   0.572   1.459  0.0798 -0.0797  0.4503
  543TIP3    H123188   2.268   0.658   1.443 -0.7265 -0.0456 -1.4059
  543TIP3    H223189   2.251   0.552   1.550  2.8564  0.7653  0.0186
  544TIP3   OH223190   4.079   2.304   6.344 -0.0918  0.4018 -0.6052
  544TIP3    H123191   4.122   2.330   6.425 -2.0004 -0.4553  0.7237
  544TIP3    H223192   4.143   2.248   6.299  0.9724  0.8834  0.2913
  545TIP3   OH223193   4.239   5.963   7.130 -0.4507 -0.4769  0.2542
  545TIP3    H123194   4.197   5.930   7.051  1.8123 -0.9344 -0.8160
  545TIP3    H223195   4.286   6.041   7.101  0.7021 -0.8563  1.0467
  546TIP3   OH223196   2.858   3.205   0.372  0.2957 -0.4966 -0.6432
  546TIP3    H123197   2.953   3.215   0.381  0.2748  1.3721 -2.2915
  546TIP3    H223198   2.825   3.294   0.360 -2.0114 -0.7958  2.5810
  547TIP3   OH223199   0.608   1.504   6.694  0.6549  0.3590  0.1771
  547TIP3    H123200   0.578   1.553   6.618  0.4620  0.6501  0.4433
  547TIP3    H223201   0.544   1.433   6.704  0.8348  0.1556 -0.0979
  548TIP3   OH223202   4.403   7.270   6.572  0.1351  0.5533 -0.3011
  548TIP3    H123203   4.319   7.245   6.534  0.1062 -0.4402  0.3914
  548TIP3    H223204   4.384   7.347   6.626 -0.2613  0.5482 -0.4363
  549TIP3   OH223205   0.874   2.870   7.295 -0.3573 -0.1860 -0.2264
  549TIP3    H123206   0.934   2.798   7.309  1.0012  0.7746 -1.0388
  549TIP3    H223207   0.908   2.941   7.350 -0.3872  0.5517 -1.1406
  550TIP3   OH223208   3.180   1.471   6.529  0.2635 -0.2351 -0.1078
  550TIP3    H123209   3.094   1.439   6.557  0.1767 -0.0538 -0.1693
  550TIP3    H223210   3.229   1.483   6.610  0.1654 -0.1505 -0.0615
  551TIP3   OH223211   3.284   6.725   0.235 -0.3410  0.7688 -0.3001
  551TIP3    H123212   3.355   6.789   0.246 -2.1917  2.7660  0.3739
  551TIP3    H223213   3.215   6.755   0.294 -1.0785 -2.1849  0.4266
  552TIP3   OH223214   0.465   6.075   6.711 -0.7096 -0.1053  0.1985
  552TIP3    H123215   0.485   6.110   6.798 -1.8798  1.8466 -0.2767
  552TIP3    H223216   0.549   6.041   6.679  0.0520  0.5220  1.4898
  553TIP3   OH223217   4.508   1.235   7.839  0.5045 -0.2144 -0.1536
  553TIP3    H123218   4.597   1.238   7.872  1.3207  1.0106 -2.4140
  553TIP3    H223219   4.462   1.303   7.888  0.4531 -1.6495  1.8831
  554TIP3   OH223220   2.305   1.842   7.158 -0.4897 -0.1632  0.2124
  554TIP3    H123221   2.389   1.825   7.201 -0.2487  2.1300  0.7108
  554TIP3    H223222   2.243   1.856   7.230 -0.5764  1.4156 -0.1534
  555TIP3   OH223223   2.973   3.105   6.275 -0.1130 -0.0496 -0.0671
  555TIP3    H123224   2.984   3.191   6.236  0.2298  0.0958  0.3493
  555TIP3    H223225   2.919   3.120   6.353 -1.8943 -0.5243 -1.1842
  556TIP3   OH223226   0.639   1.806   7.256  0.3331  0.2210  0.3561
  556TIP3    H123227   0.726   1.781   7.289 -0.1323 -1.0099  0.7133
  556TIP3    H223228   0.623   1.746   7.183 -0.0214  0.7479  0.0027
  557TIP3   OH223229   2.610   0.317   7.579  0.6418 -0.5683 -0.3699
  557TIP3    H123230   2.659   0.261   7.519  1.9667 -1.4113  1.4658
  557TIP3    H223231   2.652   0.402   7.572 -0.3345 -0.1996 -1.9428
  558TIP3   OH223232   1.840   1.174   5.406  0.4837  0.5511 -0.2753
  558TIP3    H123233   1.785   1.248   5.432 -0.5043 -0.3466  0.2319
  558TIP3    H223234   1.863   1.131   5.488  0.2340 -0.2771 -0.6382
  559TIP3   OH223235   3.468   3.121   6.487 -0.1734 -0.1958  0.0070
  559TIP3    H123236   3.392   3.072   6.457 -2.6431  1.7781  2.7406
  559TIP3    H223237   3.491   3.177   6.412 -1.5108 -0.6866 -0.7957
  560TIP3   OH223238   2.676   0.712   8.236 -0.2597 -0.5588  0.3729
  560TIP3    H123239   2.691   0.735   8.328  2.3162  0.1219 -0.1760
  560TIP3    H223240   2.602   0.652   8.238 -1.0395  0.4263  2.7708
  561TIP3   OH223241   4.745   5.185   7.261 -0.2824  0.0630 -0.2520
  561TIP3    H123242   4.702   5.267   7.285 -1.5539 -0.2160 -1.5328
  561TIP3    H223243   4.807   5.210   7.193  0.1730  0.1315  0.1785
  562TIP3   OH223244   3.274   1.352   7.692 -0.1109  0.9517 -0.0365
  562TIP3    H123245   3.284   1.374   7.600 -0.1941 -0.3594 -0.3664
  562TIP3    H223246   3.307   1.429   7.739  1.1019  1.1205 -1.1432
  563TIP3   OH223247   4.037   1.548   6.273  0.6323 -0.1549  0.5587
  563TIP3    H123248   4.085   1.587   6.199 -0.2254  0.7376  0.4659
  563TIP3    H223249   4.103   1.537   6.341  0.9544  1.1714  0.4716
  564TIP3   OH223250   6.568   1.884   7.136  0.3112 -0.0755  0.1454
  564TIP3    H123251   6.656   1.894   7.172 -0.3197  0.5550  1.5692
  564TIP3    H223252   6.581   1.851   7.047  2.0948  2.2374 -0.4936
  565TIP3   OH223253   4.592   1.882   1.833 -0.0221  0.1251  0.0438
  565TIP3    H123254   4.592   1.951   1.767  0.6967  1.6252  1.5762
  565TIP3    H223255   4.509   1.836   1.820 -0.1368  0.7491 -1.5217
  566TIP3   OH223256   2.072   0.090   5.952 -0.1451 -0.4582 -0.3919
  566TIP3    H123257   2.103   0.132   5.872  1.1369 -1.7195 -0.5814
  566TIP3    H223258   1.983   0.123   5.963  1.1553  3.0405  0.0516
  567TIP3   OH223259   2.893   6.628   6.800 -0.0166 -0.1475 -0.2913
  567TIP3    H123260   2.827   6.682   6.843 -0.1337 -1.1799  0.8389
  567TIP3    H223261   2.858   6.539   6.804  0.4894 -0.4159 -1.5351
  568TIP3   OH223262   1.185   6.459   0.242  0.1277  0.0960 -0.1854
  568TIP3    H123263   1.105   6.478   0.192  0.2521 -1.5435 -1.0373
  568TIP3    H223264   1.154   6.435   0.329 -0.3161 -0.5097 -0.5058
  569TIP3   OH223265   3.144   0.996   7.182  0.6090 -0.0241 -0.1991
  569TIP3    H123266   3.148   1.001   7.087  0.3246 -0.2128 -0.2181
  569TIP3    H223267   3.210   1.060   7.212 -1.0484  1.8621 -0.4817
  570TIP3   OH223268   2.039   5.146   7.120 -0.0838 -0.3551  0.3549
  570TIP3    H123269   1.979   5.076   7.092 -0.4142 -0.7356  1.9714
  570TIP3    H223270   1.981   5.216   7.151  0.2876 -0.4175  1.1991
  571TIP3   OH223271   1.421   1.145   6.834  0.7193  0.4550 -0.0902
  571TIP3    H123272   1.441   1.118   6.745  1.4155  2.6495 -0.6439
  571TIP3    H223273   1.359   1.218   6.824 -0.8057 -0.6269  1.3034
  572TIP3   OH223274   3.491   1.713   0.035 -0.0117 -0.0860 -0.1960
  572TIP3    H123275   3.543   1.698  -0.044  1.3399  0.2009  0.6055
  572TIP3    H223276   3.535   1.661   0.102 -0.4311  0.6045  0.6251
  573TIP3   OH223277   4.082   1.486   8.007  0.5502  0.1141 -0.5587
  573TIP3    H123278   4.059   1.431   7.933  4.0300 -2.1851 -0.0467
  573TIP3    H223279   4.023   1.458   8.077 -0.9804  0.4982 -1.6584
  574TIP3   OH223280   0.347   4.563   6.328 -0.3984 -0.6274  0.1338
  574TIP3    H123281   0.439   4.552   6.351 -0.3309  0.1248  0.2209
  574TIP3    H223282   0.334   4.658   6.324 -1.5386 -0.7062  1.5991
  575TIP3   OH223283   2.243   3.712   8.485 -0.0586 -0.1604  0.1645
  575TIP3    H123284   2.335   3.721   8.461  0.0711  1.7085  1.2896
  575TIP3    H223285   2.244   3.663   8.567 -0.1980 -1.6837 -0.7112
  576TIP3   OH223286   3.445   6.581   7.329  0.5969 -0.0873  0.3432
  576TIP3    H123287   3.389   6.578   7.406  1.8339  0.1797  1.2625
  576TIP3    H223288   3.500   6.503   7.337 -0.6895 -1.2140 -1.3698
  577TIP3   OH223289   1.517   2.601   0.417 -0.1910  0.3123 -0.3039
  577TIP3    H123290   1.439   2.626   0.467 -0.8126  0.2636 -1.2285
  577TIP3    H223291   1.585   2.586   0.483 -1.5004 -1.5718  0.6369
  578TIP3   OH223292   3.089   1.425   1.743 -0.0092  0.0855 -0.4143
  578TIP3    H123293   3.119   1.362   1.809 -1.0956  0.5302  0.5238
  578TIP3    H223294   3.159   1.490   1.739  0.2496 -0.1597  0.0260
  579TIP3   OH223295   5.986   2.335   6.526  0.2734 -0.4461  0.1141
  579TIP3    H123296   5.940   2.276   6.585 -1.7172  0.2357 -0.7304
  579TIP3    H223297   6.033   2.277   6.466 -0.7744 -1.1775 -0.0135
  580TIP3   OH223298   3.049   5.717   0.841  0.0717  0.3614  0.1154
  580TIP3    H123299   3.066   5.791   0.783  0.2327  0.8006  0.7135
  580TIP3    H223300   2.953   5.711   0.846  0.0420 -0.7747 -1.5656
  581TIP3   OH223301   0.292   1.530   6.740 -0.1192  0.3472  0.0602
  581TIP3    H123302   0.325   1.604   6.790  0.4254 -0.4181  0.8472
  581TIP3    H223303   0.283   1.563   6.650  1.7122  0.9022  0.0614
  582TIP3   OH223304   1.872   0.410   0.047 -0.1385 -0.1039 -0.0916
  582TIP3    H123305   1.807   0.480   0.055 -0.6256 -0.5080 -0.5435
  582TIP3    H223306   1.864   0.379  -0.043  2.1593  1.2822 -0.8132
  583TIP3   OH223307   3.497   2.552   7.027  0.8505  0.5322  0.4947
  583TIP3    H123308   3.407   2.538   7.057  0.3685  0.0050 -1.1262
  583TIP3    H223309   3.525   2.466   6.994  1.0121  1.2925 -1.4082
  584TIP3   OH223310   3.407   2.529   8.099  0.3186  0.0848  0.9571
  584TIP3    H123311   3.347   2.593   8.135 -1.7015 -0.6927 -0.9164
  584TIP3    H223312   3.379   2.445   8.137  0.6892 -0.1852  0.6455
  585TIP3   OH223313   2.426   3.340   7.421 -0.5566  0.1435  0.0511
  585TIP3    H123314   2.436   3.434   7.406 -1.2409  0.5457  1.9848
  585TIP3    H223315   2.332   3.326   7.430 -0.6462 -1.0833 -2.2491
  586TIP3   OH223316   2.795   0.883   7.382  0.2047  0.6937 -0.2153
  586TIP3    H123317   2.826   0.973   7.377 -1.1551  1.1436 -0.7033
  586TIP3    H223318   2.870   0.830   7.355  1.7471  1.5279  2.2009
  587TIP3   OH223319   4.918   0.630   7.498  0.0918 -0.0300 -0.0852
  587TIP3    H123320   4.830   0.618   7.462  0.0716 -0.1903  0.0156
  587TIP3    H223321   4.976   0.587   7.435 -0.1251 -2.1554  1.0976
  588TIP3   OH223322   2.383   6.673   8.318  0.0740  0.0089  0.0516
  588TIP3    H123323   2.451   6.667   8.385  0.4939 -0.5387 -0.4197
  588TIP3    H223324   2.393   6.593   8.266 -0.1979  0.4658 -0.7119
  589TIP3   OH223325   2.409   6.652   7.666  0.2186 -0.4248  0.0114
  589TIP3    H123326   2.448   6.733   7.633 -0.3664 -0.9034 -1.8892
  589TIP3    H223327   2.442   6.645   7.756  3.6904 -0.2660 -1.1715
  590TIP3   OH223328   4.089   1.494   0.542 -0.0052 -0.1220 -0.4032
  590TIP3    H123329   4.131   1.436   0.605 -1.0614  0.4355  0.8399
  590TIP3    H223330   4.110   1.582   0.574  0.5111  0.1718 -1.5502
  591TIP3   OH223331   1.794   7.227   7.042  0.0638 -0.0684 -0.1721
  591TIP3    H123332   1.884   7.235   7.009  0.1598  0.2066  0.1530
  591TIP3    H223333   1.793   7.279   7.122 -0.0508 -1.1033  0.5086
  592TIP3   OH223334   3.188   5.341   0.674  0.0091 -0.0710 -0.1597
  592TIP3    H123335   3.204   5.386   0.591 -1.8752  0.4351 -0.2672
  592TIP3    H223336   3.276   5.323   0.709  0.8096  1.3857 -1.3506
  593TIP3   OH223337   3.861   1.482   6.935  0.8295 -0.3348  0.3001
  593TIP3    H123338   3.885   1.526   6.853  1.7250 -0.6307  0.3971
  593TIP3    H223339   3.905   1.532   7.003 -0.3327  0.2179  0.6588
  594TIP3   OH223340   2.725   1.873   8.238  0.3290 -0.0356  0.1167
  594TIP3    H123341   2.806   1.854   8.190 -0.1597  0.8081 -1.0975
  594TIP3    H223342   2.701   1.791   8.279 -0.5406 -1.5075 -3.1392
  595TIP3   OH223343   3.011   2.436   6.905  0.1207  0.6954 -0.1142
  595TIP3    H123344   3.085   2.389   6.866  0.1393 -2.0636  2.9319
  595TIP3    H223345   2.934   2.387   6.877 -0.0232  0.0266  1.3409
  596TIP3   OH223346   4.358   2.313   7.127  0.0605 -0.4418 -0.9090
  596TIP3    H123347   4.276   2.332   7.173 -0.2061 -0.5137 -1.3559
  596TIP3    H223348   4.331   2.281   7.041  0.5606 -0.3048 -1.1201
  597TIP3   OH223349   2.776   1.742   7.071 -0.5374  0.0345 -0.1332
  597TIP3    H123350   2.711   1.673   7.081 -1.5402  1.2760  2.2858
  597TIP3    H223351   2.843   1.722   7.136 -0.3101  0.7668 -0.1318
  598TIP3   OH223352   5.126   5.525   8.044  0.3911 -0.1750  0.3299
  598TIP3    H123353   5.098   5.601   8.096 -1.6734 -0.5993 -0.1151
  598TIP3    H223354   5.166   5.466   8.107  1.2754  0.9234  0.8187
  599TIP3   OH223355   3.263   2.889   7.667  1.0061  0.1409 -0.2347
  599TIP3    H123356   3.331   2.822   7.666  1.3181  0.4421  0.3776
  599TIP3    H223357   3.196   2.856   7.607  1.0514 -0.8326  0.2384
  600TIP3   OH223358   2.961   1.558   7.790 -0.2678  0.4888  0.1043
  600TIP3    H123359   3.039   1.588   7.836 -1.4973  1.5450  1.5659
  600TIP3    H223360   2.934   1.633   7.737 -0.3212  0.1575 -0.3356
  601TIP3   OH223361   4.124   6.498   6.352 -0.2314  0.2314  0.3579
  601TIP3    H123362   4.197   6.455   6.306 -0.2196  0.1443  0.4582
  601TIP3    H223363   4.063   6.427   6.370 -0.5611  0.3823 -0.1524
  602TIP3   OH223364   0.517   1.929   6.992 -0.1894  0.2973  0.5981
  602TIP3    H123365   0.575   1.918   6.917 -0.7461  1.3568  0.0086
  602TIP3    H223366   0.446   1.867   6.977 -1.4695  2.0825 -0.9089
  603TIP3   OH223367   4.200   5.976   1.708 -0.3259  0.4501 -0.3446
  603TIP3    H123368   4.184   6.067   1.683  2.2537  1.1483  0.3427
  603TIP3    H223369   4.287   5.957   1.674  0.0272 -1.0800  1.3225
  604TIP3   OH223370   1.936   1.209   5.860  0.4140  0.0665  0.1030
  604TIP3    H123371   2.026   1.234   5.839 -0.1305  2.4213  0.4587
  604TIP3    H223372   1.905   1.276   5.920 -2.0370  0.0492 -1.0640
  605TIP3   OH223373   5.122   6.494   0.264 -0.1532 -0.0324 -0.1848
  605TIP3    H123374   5.185   6.486   0.193  0.5140  1.8802  0.1638
  605TIP3    H223375   5.175   6.488   0.344 -0.6510 -0.2084  0.1334
  606TIP3   OH223376   0.188   5.393   0.426 -0.1571  0.5733  0.2146
  606TIP3    H123377   0.111   5.436   0.388 -1.7067  0.2501  2.8547
  606TIP3    H223378   0.261   5.451   0.405 -0.6195 -0.3117 -4.4642
  607TIP3   OH223379   1.633   3.579   8.111  0.2057  0.1903 -0.3194
  607TIP3    H123380   1.685   3.617   8.182 -0.5961  0.7216 -0.0086
  607TIP3    H223381   1.547   3.564   8.150 -1.1684  3.3006 -1.9727
  608TIP3   OH223382   1.843   1.406   7.182  0.3670  0.4628 -0.1240
  608TIP3    H123383   1.858   1.434   7.273 -0.5008  1.6383 -0.3262
  608TIP3    H223384   1.813   1.316   7.190  1.2943  0.2100  0.6864
  609TIP3   OH223385   1.900   6.705   6.141 -0.3336  0.0045  0.5118
  609TIP3    H123386   1.943   6.767   6.082  0.9997 -1.0615  0.3352
  609TIP3    H223387   1.808   6.729   6.138 -0.2902 -0.0096 -1.9959
  610TIP3   OH223388   5.179   1.695   6.455 -0.2062 -0.1227  0.2156
  610TIP3    H123389   5.146   1.685   6.544 -0.1967  0.0171  0.2347
  610TIP3    H223390   5.125   1.764   6.417  0.7428  0.8361  0.5844
  611TIP3   OH223391   2.827   0.445   0.928  0.1785  0.4651 -0.5604
  611TIP3    H123392   2.856   0.487   1.009 -0.9326  0.0348  0.0736
  611TIP3    H223393   2.893   0.377   0.912  1.5759  1.9299 -1.1883
  612TIP3   OH223394   1.909   6.104   7.055  0.1260 -0.0848 -0.0201
  612TIP3    H123395   1.892   6.014   7.083  0.0329  0.2183  0.9410
  612TIP3    H223396   2.004   6.111   7.051  0.1194 -0.4801 -0.9742
  613TIP3   OH223397   2.256   2.691   7.586 -0.7818 -0.4511 -0.5591
  613TIP3    H123398   2.302   2.608   7.582  0.1616  0.1020 -1.5463
  613TIP3    H223399   2.324   2.757   7.572 -1.7439  0.4036 -1.3092
  614TIP3   OH223400   5.189   6.586   7.779  0.3851 -0.4108 -0.1888
  614TIP3    H123401   5.112   6.628   7.740  0.8574  0.9887  0.3628
  614TIP3    H223402   5.166   6.573   7.871 -0.1861 -2.4133 -0.5934
  615TIP3   OH223403   2.578   1.682   7.571  0.0574 -0.4881  0.7040
  615TIP3    H123404   2.495   1.639   7.552 -1.1637  1.5580  1.3154
  615TIP3    H223405   2.594   1.663   7.664 -0.3265  0.1076  0.8935
  616TIP3   OH223406   2.228   7.069   6.722 -0.6118 -0.3310 -0.6367
  616TIP3    H123407   2.293   7.134   6.749 -0.9707 -0.7394  1.3324
  616TIP3    H223408   2.185   7.108   6.646 -0.8226  1.7486  0.5190
  617TIP3   OH223409   0.442   2.535   8.167  0.6619 -0.1990 -0.0656
  617TIP3    H123410   0.372   2.487   8.212  2.1591  0.4585  3.1350
  617TIP3    H223411   0.425   2.627   8.187  1.2410  0.1278 -1.0357
  618TIP3   OH223412   1.931   7.154   1.353  0.1977  0.0324  0.7538
  618TIP3    H123413   1.881   7.233   1.332  1.8979  0.9978  0.2847
  618TIP3    H223414   2.011   7.161   1.301  0.8597 -1.4696  1.5313
  619TIP3   OH223415   5.045   6.798   1.183  0.1079  0.1044 -0.3299
  619TIP3    H123416   5.082   6.880   1.151  2.0928 -0.9206 -0.7398
  619TIP3    H223417   5.088   6.730   1.131 -1.7103 -1.1973 -0.2025
  620TIP3   OH223418   2.842   6.345   7.087 -0.0249 -0.1250  0.0423
  620TIP3    H123419   2.919   6.393   7.056 -1.5431  1.7868 -0.8899
  620TIP3    H223420   2.832   6.373   7.178  0.5381 -0.6012  0.2557
  621TIP3   OH223421   0.580   0.028   0.503 -0.5895  0.3644  0.0235
  621TIP3    H123422   0.522  -0.020   0.563  0.3112 -0.1683  0.4673
  621TIP3    H223423   0.667   0.015   0.539 -0.1123  0.5653 -1.0589
  622TIP3   OH223424   5.365   1.283   7.022  0.7731 -0.3882  0.2811
  622TIP3    H123425   5.386   1.284   7.116 -0.2819 -0.0277  0.5149
  622TIP3    H223426   5.380   1.192   6.996  1.6173 -0.3717  0.6661
  623TIP3   OH223427   0.820   6.279   7.901 -0.1962  0.4752 -0.2738
  623TIP3    H123428   0.891   6.337   7.874 -1.3424  1.4370 -1.2670
  623TIP3    H223429   0.834   6.265   7.995  2.3883 -0.8933 -0.8338
  624TIP3   OH223430   2.404   3.182   7.014  0.1395 -0.0655  0.0893
  624TIP3    H123431   2.432   3.273   7.019  1.5710 -0.4730 -0.3956
  624TIP3    H223432   2.324   3.179   7.066  1.0216  1.1030  1.5551
  625TIP3   OH223433   5.880   1.432   6.720  0.4184 -0.2529 -0.0641
  625TIP3    H123434   5.790   1.430   6.753  0.9461  0.5098  1.4343
  625TIP3    H223435   5.916   1.346   6.742  0.3196 -0.2565  0.0852
  626TIP3   OH223436   3.576   1.372   6.811 -0.1253 -0.2821 -0.1709
  626TIP3    H123437   3.670   1.369   6.794  0.1316 -0.7118  1.2492
  626TIP3    H223438   3.551   1.461   6.787  0.3713 -0.5746 -1.8535
  627TIP3   OH223439   6.199   2.786   6.624  0.1232 -0.3145  0.1664
  627TIP3    H123440   6.265   2.804   6.690 -0.3559  0.7542  0.3641
  627TIP3    H223441   6.184   2.691   6.630 -1.4104  0.0590  2.9824
  628TIP3   OH223442   1.467   2.069   6.067 -0.6381 -1.2190 -0.0567
  628TIP3    H123443   1.430   2.104   6.148  0.6734  0.1909 -0.0652
  628TIP3    H223444   1.518   1.993   6.095 -0.5040 -0.9638  0.3944
  629TIP3   OH223445   5.599   2.411   6.763  0.3700 -0.1489 -0.6634
  629TIP3    H123446   5.618   2.492   6.809  0.4141 -0.5531  0.0257
  629TIP3    H223447   5.547   2.439   6.687 -1.3674  0.3173  0.6679
  630TIP3   OH223448   0.895   2.646   1.061  0.1559 -0.0571 -0.0605
  630TIP3    H123449   0.951   2.671   1.134  0.9472  1.4138 -1.1596
  630TIP3    H223450   0.831   2.586   1.099  1.2398 -0.1562  1.6075
  631TIP3   OH223451   3.770   5.071   7.693 -0.0284 -0.2733  0.2032
  631TIP3    H123452   3.698   5.131   7.675  0.2564  0.3878  1.2699
  631TIP3    H223453   3.838   5.095   7.630 -0.3452 -0.2334 -0.1247
  632TIP3   OH223454   7.128   0.426   6.279  0.0574 -0.3478  0.1840
  632TIP3    H123455   7.181   0.493   6.236  2.0256 -0.3085  2.5348
  632TIP3    H223456   7.148   0.345   6.231 -0.1113  0.2399 -0.8738
  633TIP3   OH223457   3.273   0.732   6.877  0.1835  0.8090  0.1434
  633TIP3    H123458   3.347   0.788   6.900  1.5884 -0.9366 -0.0228
  633TIP3    H223459   3.235   0.708   6.962  0.6725  0.5669  0.2957
  634TIP3   OH223460   1.339   6.196   7.403 -0.0884  0.1363  0.1848
  634TIP3    H123461   1.406   6.203   7.335 -0.8972 -0.5487 -0.7000
  634TIP3    H223462   1.280   6.127   7.371 -1.1925  0.7122  0.9592
  635TIP3   OH223463   2.197   6.756   1.866 -0.4581 -0.2527 -0.5323
  635TIP3    H123464   2.206   6.662   1.881 -1.3974 -0.2001  0.4583
  635TIP3    H223465   2.112   6.765   1.822 -0.3332  0.1256 -0.6970
  636TIP3   OH223466   3.145   1.073   0.188 -0.0785 -0.1304  0.1167
  636TIP3    H123467   3.166   1.053   0.097  1.2649  0.6961  0.2357
  636TIP3    H223468   3.052   1.053   0.196  0.4442 -3.0761 -0.6401
  637TIP3   OH223469   2.314   0.231   6.733  0.6168 -0.2976  0.5223
  637TIP3    H123470   2.314   0.312   6.783  0.1293 -0.3117  0.5482
  637TIP3    H223471   2.324   0.259   6.642 -1.3558 -0.0778  0.3453
  638TIP3   OH223472   3.497   1.928   5.908 -0.0562 -0.4163 -0.1128
  638TIP3    H123473   3.480   1.884   5.825  1.6360 -2.1690  0.4107
  638TIP3    H223474   3.570   1.987   5.890  1.3636 -1.9504  0.4438
  639TIP3   OH223475   0.008   0.032   7.932  0.1004  0.2183 -0.0487
  639TIP3    H123476  -0.064   0.048   7.993  0.3370  2.7521 -0.4027
  639TIP3    H223477   0.052   0.117   7.924  1.7741 -0.7683 -1.5736
  640TIP3   OH223478   3.255   1.795   6.245 -0.3188 -0.3883 -0.4150
  640TIP3    H123479   3.165   1.814   6.218  0.6880  1.4139 -2.6476
  640TIP3    H223480   3.281   1.721   6.191 -0.0110 -0.0681 -0.7006
  641TIP3   OH223481   2.060   0.861   6.648 -0.7811  0.3086  0.2941
  641TIP3    H123482   1.980   0.897   6.610  0.4632  0.7394 -1.9802
  641TIP3    H223483   2.106   0.937   6.684 -1.4273  0.0477  1.6927
  642TIP3   OH223484   6.633   6.499   7.299 -0.2388  0.7149 -0.4213
  642TIP3    H123485   6.706   6.528   7.354  1.4410 -1.2442 -1.5704
  642TIP3    H223486   6.558   6.497   7.359  0.6468  2.5475  0.8254
  643TIP3   OH223487   2.966   0.035   6.027 -0.1393  0.0048 -0.1960
  643TIP3    H123488   2.871   0.045   6.018 -0.3344 -1.3845  0.2047
  643TIP3    H223489   2.997   0.026   5.937 -0.4988 -0.4118 -0.2840
  644TIP3   OH223490   4.086   1.013   1.563  0.5903 -0.5516  0.7033
  644TIP3    H123491   4.061   0.926   1.593  0.2667 -1.6760 -2.5618
  644TIP3    H223492   4.150   1.044   1.628  2.8634 -4.4345  0.4658
  645TIP3   OH223493   6.251   3.932   6.938  0.0406 -0.2718  0.3628
  645TIP3    H123494   6.252   3.968   7.027  3.0870  0.9329 -0.0819
  645TIP3    H223495   6.166   3.955   6.903 -0.0635  1.8785  1.9391
  646TIP3   OH223496   3.054   1.290   7.856  0.1158  0.2025 -0.1584
  646TIP3    H123497   3.013   1.376   7.855  1.4714  0.8615 -1.8469
  646TIP3    H223498   3.120   1.294   7.786  1.2309 -1.6917  0.7459
  647TIP3   OH223499   2.736   7.189   0.934  0.1827 -0.0516 -0.2670
  647TIP3    H123500   2.726   7.285   0.936 -0.8728 -0.1355 -1.2007
  647TIP3    H223501   2.677   7.157   1.002 -0.3118 -0.1077 -0.7237
  648TIP3   OH223502   4.251   1.687   7.019  0.4914  0.1773  0.3393
  648TIP3    H123503   4.327   1.682   7.077  1.3325  0.9396 -0.6865
  648TIP3    H223504   4.266   1.765   6.966 -2.5570  2.1643  2.2460
  649TIP3   OH223505   1.033   1.347   7.760 -0.0655  0.7331  0.0658
  649TIP3    H123506   0.991   1.419   7.713 -2.1555 -1.1875 -1.0776
  649TIP3    H223507   0.982   1.337   7.840 -0.0989  0.1923 -0.0203
  650TIP3   OH223508   5.336   1.197   7.504 -0.0562  0.4079 -0.4714
  650TIP3    H123509   5.330   1.292   7.517 -1.4541  0.2050  0.4797
  650TIP3    H223510   5.338   1.161   7.593 -0.4434 -0.5063 -0.8295
  651TIP3   OH223511   4.602   4.995   8.328 -0.2958 -0.0236  0.4262
  651TIP3    H123512   4.636   5.085   8.335  0.7257 -0.4141  0.6104
  651TIP3    H223513   4.589   4.968   8.419  3.1095 -1.4288  0.5571
  652TIP3   OH223514   1.155   6.465   0.548  0.4292 -0.1760  0.4643
  652TIP3    H123515   1.199   6.468   0.633  1.2682  0.6839  0.0136
  652TIP3    H223516   1.121   6.554   0.535 -1.2913 -0.7901  0.7217
  653TIP3   OH223517   4.545   6.862   5.999 -0.0874  0.3535 -0.0217
  653TIP3    H123518   4.573   6.798   6.064  0.1493 -0.4151 -0.8604
  653TIP3    H223519   4.626   6.892   5.958 -0.3620 -0.6135 -1.2897
  654TIP3   OH223520   1.470   0.940   0.790 -0.0406  0.2401  0.3569
  654TIP3    H123521   1.530   0.880   0.833 -0.7713  1.5490  3.3122
  654TIP3    H223522   1.526   0.989   0.728  1.1544 -1.2204  0.2582
  655TIP3   OH223523   4.230   6.745   0.406  0.0779 -0.2567  0.0378
  655TIP3    H123524   4.230   6.717   0.498 -0.2830 -0.1118  0.0799
  655TIP3    H223525   4.280   6.676   0.361  1.3088  0.2888  0.5301
  656TIP3   OH223526   3.585   1.762   6.512  0.3214  0.0699  0.0521
  656TIP3    H123527   3.585   1.857   6.517  0.2791  0.1278 -0.9253
  656TIP3    H223528   3.635   1.742   6.433 -0.9865 -0.6543 -0.6165
  657TIP3   OH223529   2.087   3.633   6.262 -0.0122  0.2230 -0.0373
  657TIP3    H123530   2.172   3.675   6.274  0.1845  0.4415 -2.0826
  657TIP3    H223531   2.064   3.650   6.171 -0.6871 -2.6767 -0.4719
  658TIP3   OH223532   0.838   5.676   7.319  0.0118  0.5027  0.3414
  658TIP3    H123533   0.920   5.642   7.284 -0.6373  1.1726 -1.9490
  658TIP3    H223534   0.770   5.631   7.269 -1.0823 -0.7206  2.8361
  659TIP3   OH223535   4.106   7.100   8.370  0.0813 -0.0249  0.1613
  659TIP3    H123536   4.142   7.041   8.304  0.7843  0.0283  0.4986
  659TIP3    H223537   4.147   7.073   8.452  3.0083  3.0786 -0.1861
  660TIP3   OH223538   2.376   7.001   7.309  0.3153 -0.5418 -0.1343
  660TIP3    H123539   2.333   7.057   7.373  0.2881 -1.4153  0.6121
  660TIP3    H223540   2.443   6.954   7.358  1.5546  0.1454 -1.1073
  661TIP3   OH223541   5.057   5.291   0.192  0.3014  0.3484 -0.4388
  661TIP3    H123542   5.132   5.233   0.203  0.7287  0.7746 -1.1042
  661TIP3    H223543   5.079   5.345   0.116 -0.6603  0.4956 -0.6185
  662TIP3   OH223544   4.249   0.509   6.377 -0.7389 -0.4599  0.8744
  662TIP3    H123545   4.265   0.537   6.287 -1.7038  0.5051  0.9964
  662TIP3    H223546   4.182   0.569   6.409 -2.8839 -2.9160  1.1137
  663TIP3   OH223547   5.309   5.969   0.395  0.3496 -0.0260  0.6144
  663TIP3    H123548   5.270   5.892   0.436  0.7655  0.1010  1.2719
  663TIP3    H223549   5.384   5.935   0.346  2.0577  0.2296  2.9646
  664TIP3   OH223550   1.916   1.033   5.633 -0.9422 -0.3257 -0.2758
  664TIP3    H123551   1.829   1.010   5.664 -0.5756  0.4391  1.4390
  664TIP3    H223552   1.949   1.093   5.700  1.1369 -1.0967 -0.5828
  665TIP3   OH223553   1.970   1.862   6.256 -0.1424  0.3415  0.2771
  665TIP3    H123554   2.053   1.892   6.219 -0.7224  1.5557 -0.0521
  665TIP3    H223555   1.964   1.770   6.231  1.7446 -0.1335  1.4621
  666TIP3   OH223556   7.239   1.890   0.233  0.5193  0.2165 -0.8710
  666TIP3    H123557   7.323   1.889   0.280  1.3636  0.6002 -2.3306
  666TIP3    H223558   7.252   1.829   0.160  0.0502  1.3762 -1.9495
  667TIP3   OH223559   0.099   4.188   6.351  0.0372 -0.4306 -0.8484
  667TIP3    H123560   0.011   4.172   6.318 -0.5953  0.4937  0.3503
  667TIP3    H223561   0.119   4.278   6.327  0.3504 -0.3900 -0.4568
  668TIP3   OH223562   3.913   1.308   7.877 -0.3900  0.0605  0.0786
  668TIP3    H123563   3.923   1.223   7.834 -1.3341 -0.0700  0.0893
  668TIP3    H223564   3.875   1.287   7.963  0.2710  0.4214  0.4657
  669TIP3   OH223565   2.916   5.019   0.822  0.1305 -0.1896  0.2443
  669TIP3    H123566   2.838   4.974   0.853 -0.3204 -0.5161 -1.3321
  669TIP3    H223567   2.886   5.107   0.799  0.0370 -0.6041 -1.2329
  670TIP3   OH223568   5.821   0.623   7.527  0.2111 -0.1801  0.0817
  670TIP3    H123569   5.807   0.714   7.500  1.9540  0.2072  0.4423
  670TIP3    H223570   5.733   0.591   7.549 -0.2429  1.9137  1.5095
  671TIP3   OH223571   0.650   1.425   8.393  0.3140  0.1573  0.5055
  671TIP3    H123572   0.724   1.480   8.420 -1.0996  1.4632  1.8568
  671TIP3    H223573   0.647   1.356   8.459  1.1244 -0.6684 -0.3050
  672TIP3   OH223574   2.705   2.067   6.965  0.4355  0.3979 -0.2532
  672TIP3    H123575   2.798   2.065   6.941  0.3326 -0.8346 -0.5746
  672TIP3    H223576   2.700   2.012   7.043 -0.6738 -2.9966 -2.6002
  673TIP3   OH223577   2.783   0.898   6.415  0.0225  0.2506  0.0490
  673TIP3    H123578   2.853   0.871   6.356 -0.2499 -0.1652 -0.0820
  673TIP3    H223579   2.775   0.992   6.402  2.1112  0.6994  1.6979
  674TIP3   OH223580   2.191   1.381   6.980  0.1603  0.2594  0.1709
  674TIP3    H123581   2.129   1.315   6.948  0.1608 -0.0464  0.7979
  674TIP3    H223582   2.162   1.463   6.938 -0.3312  0.0154  0.0236
  675TIP3   OH223583   3.926   5.688   2.344 -0.1651  0.0113  0.4971
  675TIP3    H123584   3.952   5.680   2.253 -0.7145 -0.1849  0.3595
  675TIP3    H223585   3.832   5.672   2.345  0.0298 -1.1324  1.2544
  676TIP3   OH223586   3.006   7.106   7.191  0.2789  0.6218 -0.3007
  676TIP3    H123587   2.991   7.162   7.267  0.8832 -0.3685  0.5543
  676TIP3    H223588   3.101   7.097   7.185  0.2632  1.0640 -1.4582
  677TIP3   OH223589   3.097   0.822   7.411 -0.4945  0.2525 -0.8580
  677TIP3    H123590   3.132   0.889   7.352  1.8112  0.7138  0.9690
  677TIP3    H223591   3.150   0.829   7.490 -4.7851  1.0475  2.1637
  678TIP3   OH223592   2.652   4.729   1.252  0.2646  0.1002 -0.4164
  678TIP3    H123593   2.692   4.643   1.242  0.6153  0.4660 -2.4987
  678TIP3    H223594   2.724   4.786   1.281  0.3564 -0.0271 -0.3967
  679TIP3   OH223595   2.547   1.780   7.306  0.8618  0.3128 -0.5478
  679TIP3    H123596   2.603   1.858   7.307  0.2221  0.8183  3.4294
  679TIP3    H223597   2.564   1.737   7.390 -0.5684 -2.5881 -1.6679
  680TIP3   OH223598   6.070   6.896   8.010 -0.3164 -0.2552 -0.3213
  680TIP3    H123599   6.086   6.849   7.928  0.1525 -1.2096  0.3028
  680TIP3    H223600   6.131   6.855   8.073  0.1438  1.2416  0.2197
  681TIP3   OH223601   4.194   0.232   1.585  0.3928  0.2794 -0.9215
  681TIP3    H123602   4.234   0.317   1.599 -0.2071  0.7862 -2.2250
  681TIP3    H223603   4.208   0.214   1.492  2.2539 -1.9398 -0.2849
  682TIP3   OH223604   3.530   7.023   6.747 -0.2101 -0.5954 -0.3137
  682TIP3    H123605   3.454   6.980   6.708 -0.9690 -2.2410  2.8810
  682TIP3    H223606   3.596   7.023   6.677 -2.2177 -1.5296 -2.2670
  683TIP3   OH223607   4.131   4.904   1.194 -0.1212 -0.1849 -0.1972
  683TIP3    H123608   4.209   4.870   1.238 -0.7866 -0.3078  0.9150
  683TIP3    H223609   4.072   4.929   1.266 -0.9058  0.3695 -1.0170
  684TIP3   OH223610   2.959   1.684   7.255  0.0601 -0.4927  0.0986
  684TIP3    H123611   2.937   1.609   7.310  1.7311 -0.0393  1.4142
  684TIP3    H223612   2.981   1.753   7.317  1.0194  0.3189 -1.1302
  685TIP3   OH223613   3.526   7.095   7.486  0.3719 -0.0448  0.2347
  685TIP3    H123614   3.586   7.082   7.412 -1.0351  1.0584 -1.1365
  685TIP3    H223615   3.579   7.138   7.553  1.4359 -0.2243 -0.4809
  686TIP3   OH223616   6.385   5.519   6.854 -0.0243 -0.0063  0.0384
  686TIP3    H123617   6.312   5.562   6.810 -0.1224 -1.6319 -1.4356
  686TIP3    H223618   6.429   5.590   6.902 -1.5024  1.3077 -0.4909
  687TIP3   OH223619   3.732   1.935   6.753  0.2609 -0.3087 -0.2070
  687TIP3    H123620   3.686   2.009   6.712  1.1703  0.6012  0.4070
  687TIP3    H223621   3.691   1.926   6.839 -0.5577 -1.1924 -0.6861
  688TIP3   OH223622   1.791   0.306   8.327 -0.2076  0.7752  0.1760
  688TIP3    H123623   1.712   0.279   8.279 -0.6950  0.7511  0.9952
  688TIP3    H223624   1.847   0.344   8.260 -0.7455  0.4181 -0.4861
  689TIP3   OH223625   0.232   2.562   7.223  0.0378  0.1669  0.0691
  689TIP3    H123626   0.319   2.601   7.231  0.5634 -0.8685 -0.4087
  689TIP3    H223627   0.249   2.469   7.205 -1.1618  0.0673 -0.6163
  690TIP3   OH223628   1.720   2.840   6.985  0.0594  0.2409  0.1373
  690TIP3    H123629   1.745   2.898   7.056 -0.5604 -1.1711  1.5428
  690TIP3    H223630   1.801   2.796   6.960  0.0415 -0.2012  0.8468
  691TIP3   OH223631   2.798   0.517   0.594 -0.4202  0.1006  0.2289
  691TIP3    H123632   2.751   0.525   0.677  2.9225  0.0959  2.2530
  691TIP3    H223633   2.867   0.453   0.613  2.1126  2.1891 -1.6949
  692TIP3   OH223634   3.963   7.152   7.107  0.6079 -0.4222 -0.0406
  692TIP3    H123635   3.904   7.131   7.035  0.2739 -1.2695  0.4822
  692TIP3    H223636   3.949   7.246   7.123  0.5588 -0.2707 -0.9575
  693TIP3   OH223637   4.291   6.340   6.208 -0.3698 -0.3861  0.5333
  693TIP3    H123638   4.251   6.287   6.139  0.2965 -0.1798 -0.0185
  693TIP3    H223639   4.385   6.322   6.200 -0.2642 -0.1595  1.2209
  694TIP3   OH223640   7.289   1.107   0.186 -0.1799  0.1460  0.1835
  694TIP3    H123641   7.235   1.033   0.158 -0.0033  0.6235 -1.4953
  694TIP3    H223642   7.333   1.136   0.106  1.3851  0.7380  1.2269
  695TIP3   OH223643   5.113   0.855   0.255 -0.1866  0.5937  0.1092
  695TIP3    H123644   5.179   0.921   0.276  1.3056 -0.6394 -0.5888
  695TIP3    H223645   5.111   0.852   0.159 -0.5258 -0.1083  0.1313
  696TIP3   OH223646   5.139   0.497   8.167  0.2385 -0.8451  0.5890
  696TIP3    H123647   5.059   0.529   8.126  0.5058  2.2234  2.2970
  696TIP3    H223648   5.109   0.440   8.238 -0.3310 -1.8360 -0.4342
  697TIP3   OH223649   0.964   2.313   7.196  0.8158 -0.2316  0.0167
  697TIP3    H123650   1.041   2.334   7.250 -0.5565  0.1188  1.9128
  697TIP3    H223651   0.914   2.250   7.249 -1.3275  1.2596 -0.1466
  698TIP3   OH223652   3.639   2.666   1.456  0.1808 -0.6906  0.0687
  698TIP3    H123653   3.621   2.695   1.366 -1.0087 -0.4621  0.3817
  698TIP3    H223654   3.560   2.687   1.505  0.0098 -2.7446  0.7125
  699TIP3   OH223655   0.642   2.546   8.355  0.5329 -0.1259  0.3379
  699TIP3    H123656   0.599   2.540   8.270  0.5912 -0.1141  0.3077
  699TIP3    H223657   0.719   2.600   8.340  0.8994 -0.6765  0.2601
  700TIP3   OH223658   2.248   6.394   7.352  0.6863  0.2141 -0.1730
  700TIP3    H123659   2.336   6.359   7.365  0.4132 -0.3571  0.1595
  700TIP3    H223660   2.234   6.452   7.426  1.0124  0.7666 -0.5450
  701TIP3   OH223661   0.967   0.891   7.718 -0.0359  0.0718  0.3785
  701TIP3    H123662   0.925   0.945   7.784 -0.3147  1.0202 -0.5609
  701TIP3    H223663   1.058   0.920   7.716 -0.1250  0.3314  0.0550
  702TIP3   OH223664   2.352   7.281   0.914 -0.5213  0.4278  0.1172
  702TIP3    H123665   2.273   7.272   0.861  0.8959  2.1296 -2.4089
  702TIP3    H223666   2.348   7.370   0.950  0.2775  0.5686 -0.1218
  703TIP3   OH223667   1.081   6.081   6.119  0.2432 -0.2494  0.1630
  703TIP3    H123668   1.120   6.036   6.194  0.7368 -0.1016 -0.0086
  703TIP3    H223669   1.117   6.037   6.042  0.4088  0.1668  0.0014
  704TIP3   OH223670   4.560   6.330   6.237 -0.0035  0.1834 -0.9698
  704TIP3    H123671   4.638   6.356   6.189  0.3243 -1.4572 -1.3742
  704TIP3    H223672   4.585   6.247   6.280 -1.6582 -0.6104 -1.5008
  705TIP3   OH223673   3.713   5.647   8.328 -0.0067  0.0373 -0.8727
  705TIP3    H123674   3.778   5.606   8.270 -0.2688 -1.5660 -0.0614
  705TIP3    H223675   3.762   5.672   8.406 -0.3936 -1.3940 -0.1575
  706TIP3   OH223676   2.892   5.970   7.589  0.4298  0.3487  0.1676
  706TIP3    H123677   2.827   5.913   7.630  0.9260  0.7650  1.5833
  706TIP3    H223678   2.842   6.028   7.532 -0.1209 -1.2111 -0.9704
  707TIP3   OH223679   1.459   0.563   6.834 -0.8463  0.6977  0.0874
  707TIP3    H123680   1.446   0.510   6.755 -1.9535  1.6835 -0.4120
  707TIP3    H223681   1.524   0.629   6.808  2.3099 -1.7463  1.3855
  708TIP3   OH223682   3.344   0.012   5.986 -0.0030  0.7762  0.3194
  708TIP3    H123683   3.416  -0.047   6.007  0.7690  2.0126  1.1641
  708TIP3    H223684   3.310   0.039   6.072 -2.2695 -0.7427 -0.0448
  709TIP3   OH223685   3.193   0.085   6.214  0.4858  0.3266 -0.0271
  709TIP3    H123686   3.211   0.176   6.191  2.6433 -0.1720 -0.4034
  709TIP3    H223687   3.126   0.058   6.151  0.5331  1.3526 -0.5344
  710TIP3   OH223688   1.004   0.448   7.164  0.0521 -0.1520 -0.3119
  710TIP3    H123689   1.060   0.471   7.090  1.0095  1.1156  0.7546
  710TIP3    H223690   1.047   0.490   7.239 -1.9555  0.2349  0.6522
  711TIP3   OH223691   2.793   6.105   7.236  0.7620 -0.2350 -0.5758
  711TIP3    H123692   2.779   6.181   7.179 -0.8002 -1.2332 -1.5780
  711TIP3    H223693   2.815   6.034   7.175  0.7060 -0.9414  0.2233
  712TIP3   OH223694   4.745   5.767   7.343 -0.2279 -0.5586 -0.1482
  712TIP3    H123695   4.665   5.820   7.338 -1.2749 -2.2335 -1.4140
  712TIP3    H223696   4.794   5.807   7.415 -1.9224  0.8584  0.2820
  713TIP3   OH223697   4.753   4.735   7.269 -0.2255 -0.9278 -0.2163
  713TIP3    H123698   4.731   4.771   7.355  3.3307  2.4849 -0.5722
  713TIP3    H223699   4.813   4.662   7.289 -0.6640 -1.1623  0.2506
  714TIP3   OH223700   5.739   0.106   0.914 -0.3981 -0.5867  0.3881
  714TIP3    H123701   5.819   0.145   0.880 -1.8303 -0.7322 -3.4284
  714TIP3    H223702   5.737   0.131   1.006  2.8384  1.3660  0.0004
  715TIP3   OH223703   4.461   6.762   8.220  0.2613 -0.2700  0.0781
  715TIP3    H123704   4.551   6.728   8.230  1.2125  2.0169 -0.4455
  715TIP3    H223705   4.460   6.803   8.134 -0.7236  1.3701  0.8486
  716TIP3   OH223706   1.504   0.058   1.677 -0.4902  0.5625 -0.4853
  716TIP3    H123707   1.478  -0.013   1.618  0.0358 -0.1145  0.0794
  716TIP3    H223708   1.600   0.060   1.671 -0.3849  0.0027  0.8945
  717TIP3   OH223709   6.685   0.537   6.427  0.1074 -0.3014 -0.2888
  717TIP3    H123710   6.722   0.615   6.386  0.9381 -1.3414 -1.5772
  717TIP3    H223711   6.639   0.569   6.504  0.9916  1.3845 -0.4455
  718TIP3   OH223712   5.043   1.977   6.840  0.1719  0.4653 -0.3291
  718TIP3    H123713   5.044   1.888   6.876  1.9981  0.1942 -1.0388
  718TIP3    H223714   5.135   2.001   6.830 -0.3012  2.1614 -0.8644
  719TIP3   OH223715   3.578   1.216   7.745  0.0232  0.5307  0.9599
  719TIP3    H123716   3.627   1.230   7.663 -0.0692  0.0088  0.8141
  719TIP3    H223717   3.492   1.254   7.727 -0.7024 -1.4513  0.0576
  720TIP3   OH223718   5.511   1.743   6.773 -0.3421  0.2077 -0.0455
  720TIP3    H123719   5.451   1.766   6.843  0.1800  3.6007 -0.6217
  720TIP3    H223720   5.592   1.789   6.795  0.6435 -0.7462 -1.5801
  721TIP3   OH223721   4.018   5.350   7.815 -0.0848  0.7120 -0.6373
  721TIP3    H123722   3.924   5.346   7.795  0.0856 -1.6451 -1.1333
  721TIP3    H223723   4.060   5.318   7.735  1.0628  0.1482  0.1888
  722TIP3   OH223724   3.564   6.332   7.339 -0.4181 -0.2669 -0.0037
  722TIP3    H123725   3.564   6.259   7.277  0.5158  0.7819 -1.2741
  722TIP3    H223726   3.656   6.342   7.363 -0.6025  0.2132  0.5068
  723TIP3   OH223727   5.943   5.309   6.216 -0.6769 -0.1259 -0.0122
  723TIP3    H123728   6.017   5.354   6.257 -1.7433 -0.7180  2.6304
  723TIP3    H223729   5.983   5.253   6.150  1.1846 -0.0012  0.9712
  724TIP3   OH223730   3.600   0.579   7.433 -0.0214  0.4845  0.0700
  724TIP3    H123731   3.694   0.600   7.437 -0.3733  1.7598  2.6979
  724TIP3    H223732   3.582   0.536   7.516 -1.8963  0.6779 -0.2237
  725TIP3   OH223733   2.793   1.435   6.848 -0.1909  0.9354 -0.1516
  725TIP3    H123734   2.773   1.465   6.937  0.7332  1.4602 -0.1040
  725TIP3    H223735   2.820   1.515   6.802  1.4394  0.3367 -0.2774
  726TIP3   OH223736   5.635   7.100   5.987  0.2170  0.7127  0.1230
  726TIP3    H123737   5.606   7.092   5.896  2.1833  0.7456 -0.5268
  726TIP3    H223738   5.730   7.088   5.983  0.2514  0.0908  2.2611
  727TIP3   OH223739   3.670   6.899   0.880  0.1346 -0.8618  0.0072
  727TIP3    H123740   3.729   6.823   0.884 -1.3801 -1.9984  2.2920
  727TIP3    H223741   3.728   6.975   0.876  1.7269 -2.0522  0.1804
  728TIP3   OH223742   5.485   0.056   0.007 -0.5299  0.0653  0.6727
  728TIP3    H123743   5.405   0.030  -0.039 -0.1748  0.3629 -0.1325
  728TIP3    H223744   5.540  -0.021   0.004 -0.0239  0.4512 -0.4989
  729TIP3   OH223745   5.276   0.964   6.317 -0.0696  0.0771  0.0367
  729TIP3    H123746   5.198   0.996   6.361 -0.5548 -1.0847  0.0355
  729TIP3    H223747   5.253   0.965   6.224  0.7709  2.0281 -0.1783
  730TIP3   OH223748   4.435   0.264   6.277  0.1508  0.2191  0.2856
  730TIP3    H123749   4.513   0.212   6.297  1.2776  1.1113 -1.6590
  730TIP3    H223750   4.453   0.350   6.313  0.2754  0.5556 -0.5582
  731TIP3   OH223751   3.054   6.737   6.555 -0.4653 -0.2515 -0.4867
  731TIP3    H123752   3.031   6.708   6.643  0.1322  1.5778  0.2892
  731TIP3    H223753   3.074   6.656   6.508  0.7487 -1.1320  1.4900
  732TIP3   OH223754   6.391   0.064   6.751  0.0279  0.3506 -0.6281
  732TIP3    H123755   6.435   0.091   6.671 -0.8592  0.7434 -0.9910
  732TIP3    H223756   6.341  -0.014   6.725  1.6376 -0.9647  0.1257
  733TIP3   OH223757   3.883   1.750   0.690  0.5336 -0.3570 -0.2485
  733TIP3    H123758   3.873   1.834   0.646  1.5788 -0.6866 -1.1575
  733TIP3    H223759   3.810   1.697   0.658 -0.7826  0.5534  1.1999
  734TIP3   OH223760   3.502   1.185   7.029 -0.0473 -0.3622 -0.7013
  734TIP3    H123761   3.536   1.247   6.965 -3.7125  0.0310 -2.4097
  734TIP3    H223762   3.447   1.125   6.978  1.0962 -3.2788  1.3389
  735TIP3   OH223763   2.613   0.245   0.707 -0.5978 -0.0623 -0.5048
  735TIP3    H123764   2.535   0.285   0.670 -0.0161  1.2637 -0.3297
  735TIP3    H223765   2.686   0.281   0.655 -0.1211 -1.4686 -0.8279
  736TIP3   OH223766   5.397   6.737   6.455  0.4898 -0.5684 -0.1512
  736TIP3    H123767   5.410   6.824   6.492 -1.9174 -0.5921  0.8701
  736TIP3    H223768   5.386   6.752   6.361 -0.3163  0.2740  0.0732
  737TIP3   OH223769   4.790   1.481   7.854 -0.1951 -0.2682  0.3856
  737TIP3    H123770   4.876   1.490   7.896 -0.2085  0.1524  0.3219
  737TIP3    H223771   4.767   1.389   7.867  0.4519 -0.4876  0.0454
  738TIP3   OH223772   3.685   2.555   6.602  0.0030  0.0442  0.1203
  738TIP3    H123773   3.686   2.590   6.691 -0.3072 -0.5665  0.3665
  738TIP3    H223774   3.777   2.556   6.574  0.0927  0.2886  0.4241
  739TIP3   OH223775   4.208   1.157   8.288  0.3604  0.2906 -0.2189
  739TIP3    H123776   4.173   1.131   8.202  1.3268 -1.6555 -0.0342
  739TIP3    H223777   4.286   1.208   8.268  2.3109 -2.7160 -0.4693
  740TIP3   OH223778   3.085   6.940   8.234  0.1064  0.0525  0.3104
  740TIP3    H123779   3.102   6.904   8.321  0.3839 -2.0988 -0.6071
  740TIP3    H223780   2.992   6.925   8.219  0.3874 -1.1150 -0.4063
  741TIP3   OH223781   5.304   5.514   6.768  0.0698 -0.4990 -0.0572
  741TIP3    H123782   5.336   5.436   6.722 -0.9806 -1.3676  0.6551
  741TIP3    H223783   5.210   5.497   6.781 -0.0852  0.7134  0.4469
  742TIP3   OH223784   4.477   0.757   6.543  0.4299 -0.1517  0.4476
  742TIP3    H123785   4.539   0.695   6.583 -0.4408 -0.6260  1.0892
  742TIP3    H223786   4.527   0.799   6.473  1.0625 -1.5477  0.0316
  743TIP3   OH223787   5.032   2.395   6.531  0.2856 -0.1931 -0.2151
  743TIP3    H123788   5.095   2.460   6.498  1.0892 -1.0084 -0.2980
  743TIP3    H223789   5.053   2.386   6.624 -0.5687  0.4917  0.0581
  744TIP3   OH223790   4.480   0.625   7.156  0.1003  0.1550 -0.1154
  744TIP3    H123791   4.566   0.654   7.186 -0.9458  1.7205  1.4619
  744TIP3    H223792   4.455   0.688   7.089 -0.7261  0.9520  0.9324
  745TIP3   OH223793   4.047   6.642   7.834 -0.4333  0.4242 -0.1802
  745TIP3    H123794   4.057   6.734   7.859  0.5715 -0.0022  1.0504
  745TIP3    H223795   4.085   6.636   7.747  0.1429  1.0382  0.0253
  746TIP3   OH223796   5.802   3.168   6.368  0.0391  0.4532  0.1915
  746TIP3    H123797   5.826   3.126   6.451 -4.4525 -1.5463  0.6299
  746TIP3    H223798   5.735   3.232   6.393  0.0949  1.2690 -1.6812
  747TIP3   OH223799   6.066   5.690   7.829  0.4544 -0.0829 -0.0402
  747TIP3    H123800   6.129   5.619   7.815  0.0566 -0.2573 -0.9495
  747TIP3    H223801   6.066   5.703   7.924  1.5288 -0.3856  0.0135
  748TIP3   OH223802   1.805   0.743   1.510 -0.8781  0.7505  0.0569
  748TIP3    H123803   1.834   0.781   1.427  0.1015  0.6575  0.3474
  748TIP3    H223804   1.788   0.652   1.490 -0.0373  0.5801  0.0853
  749TIP3   OH223805   2.782   0.645   7.690  0.2096  0.0337 -0.4183
  749TIP3    H123806   2.796   0.587   7.766  0.0196 -0.0227 -0.4261
  749TIP3    H223807   2.870   0.660   7.656  0.5544  2.0633  1.2793
  750TIP3   OH223808   3.680   0.552   0.211  0.0939 -0.2965 -0.3465
  750TIP3    H123809   3.768   0.542   0.247 -0.6824 -0.6717  1.5064
  750TIP3    H223810   3.644   0.463   0.211 -1.1857  0.1779  1.3607
  751TIP3   OH223811   5.122   6.819   0.746 -0.8053  0.1306 -0.1069
  751TIP3    H123812   5.062   6.745   0.747 -1.1798  0.4131 -1.1098
  751TIP3    H223813   5.087   6.878   0.679  0.0138  0.7784  0.0199
  752TIP3   OH223814   5.259   2.979   6.838 -0.2152  0.3603 -0.3466
  752TIP3    H123815   5.327   2.917   6.865  0.0516 -0.1229 -2.0655
  752TIP3    H223816   5.282   3.002   6.748 -0.5876  2.6051  0.1147
  753TIP3   OH223817   3.875   1.205   6.925  0.0052 -0.1002  0.3445
  753TIP3    H123818   3.901   1.261   6.852 -0.8078 -2.2567 -1.6940
  753TIP3    H223819   3.873   1.263   7.001  1.8642  1.9948 -1.1468
  754TIP3   OH223820   4.961   0.089   0.720 -0.0842 -0.5676 -0.2359
  754TIP3    H123821   4.894   0.026   0.695 -1.1121  0.6019 -0.4659
  754TIP3    H223822   4.946   0.106   0.813  0.3323 -0.8320 -0.1197
  755TIP3   OH223823   2.704   6.425   6.859 -0.0320 -0.1470 -0.0819
  755TIP3    H123824   2.688   6.346   6.809  0.4058 -0.9443  1.0086
  755TIP3    H223825   2.733   6.394   6.945 -1.1204  1.1786  0.7912
  756TIP3   OH223826   7.136   6.822   6.952  0.3881 -0.1637 -0.3195
  756TIP3    H123827   7.187   6.842   6.874 -0.9294  0.6899 -0.9842
  756TIP3    H223828   7.046   6.815   6.921  0.1477 -2.1059  0.7578
  757TIP3   OH223829   5.343   1.489   2.373 -0.2958 -0.2253  0.0548
  757TIP3    H123830   5.314   1.424   2.309  0.6433 -0.1367 -0.4779
  757TIP3    H223831   5.297   1.569   2.349  2.7569  0.7981 -2.8277
  758TIP3   OH223832   0.501   6.616   0.084  0.0842  0.1064 -0.5006
  758TIP3    H123833   0.476   6.616   0.177 -1.1551  1.8839 -0.8071
  758TIP3    H223834   0.539   6.702   0.070  2.1939 -0.9047 -1.1831
  759TIP3   OH223835   2.034   2.736   7.759 -0.4615 -0.1451  0.1894
  759TIP3    H123836   2.095   2.769   7.825 -1.1462 -0.5734  1.0506
  759TIP3    H223837   2.090   2.708   7.687  0.1764  2.1941 -0.2761
  760TIP3   OH223838   3.896   0.652   6.071 -0.2022  0.0892 -0.6174
  760TIP3    H123839   3.946   0.733   6.072 -1.0014  0.6072 -1.6485
  760TIP3    H223840   3.917   0.610   6.154  1.1880  0.7528 -0.6278
  761TIP3   OH223841   2.412   2.527   1.274  0.1850  0.2186  1.0233
  761TIP3    H123842   2.372   2.540   1.189  0.0023 -0.6487  0.9723
  761TIP3    H223843   2.427   2.615   1.308  3.3767  0.6645 -1.3560
  762TIP3   OH223844   4.523   0.994   7.605 -0.5568  0.3154  0.0567
  762TIP3    H123845   4.529   1.081   7.645  0.9167  0.9325 -1.4656
  762TIP3    H223846   4.599   0.946   7.640 -2.4118 -1.0422  2.4045
  763TIP3   OH223847   0.753   6.765   8.017  0.2490 -0.5840  0.4618
  763TIP3    H123848   0.702   6.846   8.015  0.8526 -0.2015  0.4114
  763TIP3    H223849   0.687   6.695   8.010 -0.2269 -0.0832 -0.1915
  764TIP3   OH223850   2.295   0.041   7.391 -0.6172 -0.1267 -0.1314
  764TIP3    H123851   2.356   0.073   7.458  0.3735  0.6795 -1.3734
  764TIP3    H223852   2.239  -0.021   7.437  2.0752 -1.9854  0.7572
  765TIP3   OH223853   5.543   5.790   8.140 -0.0814  0.4335  0.5441
  765TIP3    H123854   5.519   5.806   8.049  0.6289  0.6925  0.3961
  765TIP3    H223855   5.475   5.834   8.191  0.6644  2.1031  0.1319
  766TIP3   OH223856   5.601   6.699   6.232  0.2812 -0.0590  0.5990
  766TIP3    H123857   5.524   6.751   6.210 -0.0734 -0.0850  1.7431
  766TIP3    H223858   5.673   6.762   6.237  0.2353  0.0354  0.0101
  767TIP3   OH223859   5.323   3.405   6.484  0.0405  0.0573 -0.0147
  767TIP3    H123860   5.229   3.424   6.480 -0.1303 -0.7561  0.0114
  767TIP3    H223861   5.341   3.355   6.405  0.8921  2.0130 -1.1016
  768TIP3   OH223862   4.055   0.258   5.960 -0.0616  0.4089  0.1590
  768TIP3    H123863   4.037   0.329   5.898 -0.9123 -1.2705 -1.5886
  768TIP3    H223864   4.032   0.294   6.045 -0.6882  2.1504 -0.7177
  769TIP3   OH223865   5.211   6.736   7.115  0.7142  0.0871 -0.1874
  769TIP3    H123866   5.237   6.645   7.131  0.6675  0.4119  1.8832
  769TIP3    H223867   5.286   6.776   7.072  1.3193 -0.5602  0.2583
  770TIP3   OH223868   2.869   6.282   6.497 -0.4324 -0.3309 -0.1079
  770TIP3    H123869   2.917   6.250   6.420 -1.6573  1.1345 -1.5146
  770TIP3    H223870   2.853   6.203   6.550 -1.2393 -1.6758 -2.2928
  771TIP3   OH223871   3.691   1.138   7.513  0.0923  0.2298 -0.2214
  771TIP3    H123872   3.711   1.167   7.425  0.5405  1.6413  0.3325
  771TIP3    H223873   3.764   1.080   7.537  1.3771  1.9799  0.2075
  772TIP3   OH223874   7.109   5.921   6.462 -0.0459  0.3182  0.2782
  772TIP3    H123875   7.102   6.005   6.417 -2.5336  0.3899  0.7448
  772TIP3    H223876   7.076   5.857   6.399  0.5666 -0.1507  0.4250
  773TIP3   OH223877   6.547   7.114   6.845 -0.0825  0.5589  0.5961
  773TIP3    H123878   6.459   7.152   6.847 -0.0190  0.6879  2.7689
  773TIP3    H223879   6.605   7.186   6.871  0.4303 -0.0511  1.1866
  774TIP3   OH223880   4.932   2.232   6.871  0.0180 -0.2476 -0.1441
  774TIP3    H123881   4.981   2.153   6.845 -0.8464 -0.7705 -0.1983
  774TIP3    H223882   4.998   2.302   6.870  0.6386 -0.8298 -0.8066
  775TIP3   OH223883   4.121   7.218   0.902 -0.4040 -0.0579 -0.1661
  775TIP3    H123884   4.133   7.187   0.812  0.0795 -2.2020  0.5959
  775TIP3    H223885   4.032   7.190   0.926  0.4011 -1.8792  0.8736
  776TIP3   OH223886   2.232   0.595   7.765  0.1747  0.5795 -0.6946
  776TIP3    H123887   2.228   0.680   7.722 -0.7368  0.7363 -0.2963
  776TIP3    H223888   2.266   0.536   7.698  1.9856  1.4815 -0.6183
  777TIP3   OH223889   6.662   2.100   1.149 -0.3660  0.2886  0.7858
  777TIP3    H123890   6.617   2.077   1.231  2.4601  0.6399  2.5025
  777TIP3    H223891   6.620   2.181   1.121 -0.4872  0.9172  2.6670
  778TIP3   OH223892   3.310   0.253   6.463  0.0663 -0.6776 -0.2121
  778TIP3    H123893   3.245   0.222   6.527 -1.8033  0.5463 -1.4599
  778TIP3    H223894   3.312   0.185   6.396  2.0467 -1.9743  1.1195
  779TIP3   OH223895   7.174   6.345   7.475  0.3303  0.3401  0.4449
  779TIP3    H123896   7.094   6.395   7.496 -0.2027 -0.2162 -0.2285
  779TIP3    H223897   7.244   6.409   7.481 -0.0931  0.7155  1.6074
  780TIP3   OH223898   4.746   6.268   7.640 -0.3200  0.2246  0.5038
  780TIP3    H123899   4.728   6.267   7.734  0.1797 -0.9563  0.5976
  780TIP3    H223900   4.681   6.209   7.603 -0.9966  1.2729  0.0112
  781TIP3   OH223901   6.155   6.066   7.219  0.1059  0.0326  0.3891
  781TIP3    H123902   6.090   6.132   7.245 -1.2010 -0.4971 -1.4341
  781TIP3    H223903   6.167   6.080   7.126  1.8012 -0.6303  0.4944
  782TIP3   OH223904   5.661   1.770   7.152  0.3569 -0.0424 -0.5217
  782TIP3    H123905   5.734   1.714   7.181  0.0197 -0.4401 -0.4318
  782TIP3    H223906   5.692   1.811   7.072  0.1836 -1.2434 -1.2137
  783TIP3   OH223907   6.241   0.118   8.113  0.2270  0.2044 -0.1766
  783TIP3    H123908   6.233   0.023   8.103 -0.0940  0.3524 -1.3328
  783TIP3    H223909   6.167   0.154   8.064  1.2883  1.1186 -1.1323
  784TIP3   OH223910   6.895   1.599   7.369 -0.5640  0.5265  0.7911
  784TIP3    H123911   6.859   1.675   7.414 -2.2126  0.2924 -0.0815
  784TIP3    H223912   6.922   1.632   7.283 -1.1375  0.1757  0.4687
  785TIP3   OH223913   1.801   0.910   0.368 -0.2632 -0.0788 -0.0077
  785TIP3    H123914   1.770   0.901   0.278 -1.6070 -0.9541  0.5287
  785TIP3    H223915   1.760   0.838   0.416  0.6093  0.2376  1.2664
  786TIP3   OH223916   4.559   5.840   6.042  0.3085  0.1383 -0.2338
  786TIP3    H123917   4.573   5.752   6.007  0.4062 -0.2665  0.8007
  786TIP3    H223918   4.627   5.893   6.000  0.8423 -0.4741 -0.1659
  787TIP3   OH223919   6.499   3.294   6.971  0.6139 -0.5928 -0.0965
  787TIP3    H123920   6.533   3.328   6.889  0.8286  0.2971  0.3537
  787TIP3    H223921   6.457   3.369   7.013  0.5423 -1.0261  0.6187
  788TIP3   OH223922   4.853   0.396   8.289 -0.1353  0.1309 -0.2510
  788TIP3    H123923   4.860   0.434   8.202 -0.6082  0.9169  0.0553
  788TIP3    H223924   4.855   0.470   8.349 -0.9694 -0.3141  0.3545
  789TIP3   OH223925   4.546   6.910   7.632 -0.4439 -0.7539  0.1757
  789TIP3    H123926   4.581   6.972   7.695 -1.8919  0.3294 -0.0739
  789TIP3    H223927   4.453   6.902   7.654 -1.0111 -0.2134 -1.9312
  790TIP3   OH223928   6.241   0.393   6.927 -0.0959  0.2213 -0.1353
  790TIP3    H123929   6.295   0.320   6.957 -0.1973  0.0445 -0.3751
  790TIP3    H223930   6.257   0.463   6.990  0.7603  0.3249 -0.4551
  791TIP3   OH223931   6.303   7.162   8.021 -0.3656  0.0584 -0.7043
  791TIP3    H123932   6.211   7.166   7.996 -0.6995 -0.3305  0.4249
  791TIP3    H223933   6.302   7.133   8.113  0.6266  5.0895  1.0585
  792TIP3   OH223934   5.826   0.736   7.129 -0.4369 -0.1546 -0.0204
  792TIP3    H123935   5.798   0.777   7.211 -0.5102  0.4503 -0.3517
  792TIP3    H223936   5.790   0.648   7.133 -1.6440  0.3383 -0.0489
  793TIP3   OH223937   3.477   2.866   0.706  0.3503  0.1641  0.4716
  793TIP3    H123938   3.490   2.951   0.664 -0.5610  0.0290 -0.1180
  793TIP3    H223939   3.404   2.880   0.767  0.0964 -0.2186  0.2646
  794TIP3   OH223940   5.427   7.205   2.009 -0.0365 -0.3252 -0.6963
  794TIP3    H123941   5.515   7.242   2.018 -0.2860  0.3438 -0.9619
  794TIP3    H223942   5.439   7.111   2.025  1.2381 -0.7334 -3.7494
  795TIP3   OH223943   1.953   2.498   0.180  0.2229 -0.0078  0.5718
  795TIP3    H123944   1.991   2.577   0.218  0.3992  0.7167 -1.0600
  795TIP3    H223945   1.861   2.521   0.165  0.3144 -0.0484 -0.0642
  796TIP3   OH223946   4.908   0.845   1.392 -0.0603 -0.2532  0.1384
  796TIP3    H123947   4.909   0.753   1.365 -2.1446  0.2630 -1.8560
  796TIP3    H223948   4.873   0.843   1.481 -0.4143 -1.3662 -0.0130
  797TIP3   OH223949   4.757   1.316   6.088 -0.5132 -0.3534  0.3692
  797TIP3    H123950   4.794   1.237   6.047 -0.7243 -0.6023  0.6532
  797TIP3    H223951   4.813   1.387   6.057 -0.2077 -0.6387  0.2534
  798TIP3   OH223952   3.348   2.265   8.158 -0.6296 -0.0061 -0.1731
  798TIP3    H123953   3.305   2.205   8.097 -0.4925 -0.4401  0.1577
  798TIP3    H223954   3.399   2.209   8.216  1.9259  0.6449 -1.7365
  799TIP3   OH223955   2.645   3.027   7.038  0.1788  0.1474 -0.1906
  799TIP3    H123956   2.572   3.085   7.058  0.8500  0.8974  0.0927
  799TIP3    H223957   2.707   3.081   6.990  1.6911  0.1980  1.7954
  800TIP3   OH223958   4.967   7.109   0.786  0.2816  0.1170 -0.7807
  800TIP3    H123959   5.037   7.128   0.849 -0.4072 -1.9567  0.6793
  800TIP3    H223960   5.013   7.085   0.706  1.2426 -0.1306 -0.1677
  801TIP3   OH223961   4.756   0.324   7.251 -0.5620  0.0343  0.1194
  801TIP3    H123962   4.806   0.270   7.313 -0.3160  0.3099  0.1622
  801TIP3    H223963   4.800   0.409   7.253  1.0267 -0.6864 -2.3311
  802TIP3   OH223964   4.132   1.924   7.604 -0.0073  0.3708 -0.1154
  802TIP3    H123965   4.150   1.870   7.528 -0.1108  0.6866 -0.3670
  802TIP3    H223966   4.180   2.005   7.588  0.1291  0.3620  0.2475
  803TIP3   OH223967   3.811   6.838   7.478  0.1976 -0.0081  0.2671
  803TIP3    H123968   3.720   6.837   7.507 -0.3453 -0.5318 -1.3911
  803TIP3    H223969   3.862   6.855   7.557 -1.3675  0.6702  1.1355
  804TIP3   OH223970   5.049   1.079   6.391 -0.1875  0.4858 -0.1315
  804TIP3    H123971   4.974   1.037   6.351 -0.0338  0.9022 -0.8561
  804TIP3    H223972   5.061   1.160   6.342  0.5365  0.5770  0.1870
  805TIP3   OH223973   3.156   2.649   1.019 -0.0632  0.1768 -0.1364
  805TIP3    H123974   3.217   2.722   1.009 -1.8006  1.7477  0.4764
  805TIP3    H223975   3.169   2.619   1.109  0.3133  0.0373 -0.2375
  806TIP3   OH223976   4.328   6.534   0.240  0.0458 -0.0096 -0.3013
  806TIP3    H123977   4.391   6.518   0.309  0.7038  0.4352 -0.7955
  806TIP3    H223978   4.368   6.496   0.161 -0.2715  0.3259 -0.6303
  807TIP3   OH223979   4.652   0.376   6.519 -0.4929  0.3985 -0.3243
  807TIP3    H123980   4.599   0.315   6.571  1.3432 -1.7852 -0.9475
  807TIP3    H223981   4.599   0.391   6.440 -0.7822 -0.7555 -0.3655
  808TIP3   OH223982   7.040   6.891   7.898  0.6630 -0.0364 -0.3251
  808TIP3    H123983   7.047   6.801   7.867  1.1161  0.3549 -1.3598
  808TIP3    H223984   7.080   6.889   7.985  0.8628 -0.7849 -0.4263
  809TIP3   OH223985   4.664   6.475   7.231 -0.1741  0.2028 -0.2759
  809TIP3    H123986   4.759   6.464   7.238  0.0962  2.0995 -0.7504
  809TIP3    H223987   4.652   6.542   7.165 -1.8306  0.5439  0.3398
  810TIP3   OH223988   5.722   2.069   6.513  0.6213  0.1122  0.3316
  810TIP3    H123989   5.731   1.976   6.490 -0.4525 -0.3604  1.7365
  810TIP3    H223990   5.686   2.109   6.434  2.7096 -0.3287 -0.8790
  811TIP3   OH223991   0.614   2.515   6.586  0.4432 -0.2803 -0.1930
  811TIP3    H123992   0.643   2.578   6.520 -1.4787  2.5408  1.5271
  811TIP3    H223993   0.523   2.496   6.563  0.7995 -1.8843 -0.2939
  812TIP3   OH223994   1.578   5.071   6.344  0.3333  0.4744 -0.1619
  812TIP3    H123995   1.568   5.043   6.253 -1.6572 -0.1779  0.2270
  812TIP3    H223996   1.500   5.037   6.388  0.2345  2.5659  1.3546
  813TIP3   OH223997   5.306   0.693   6.347 -0.4355  0.4550  0.3321
  813TIP3    H123998   5.304   0.789   6.345  1.1753  0.5226  1.2341
  813TIP3    H223999   5.214   0.667   6.340 -1.1918  2.1458  3.2843
  814TIP3   OH224000   4.587   1.487   6.683  0.2499 -0.1687 -0.1697
  814TIP3    H124001   4.513   1.519   6.734  0.4145  1.2127 -0.7901
  814TIP3    H224002   4.600   1.397   6.714 -1.5283 -0.3422  0.1122
  815TIP3   OH224003   7.081   0.418   7.067 -0.2371  0.1427 -0.1042
  815TIP3    H124004   7.175   0.402   7.054 -0.3174  0.3683 -1.0131
  815TIP3    H224005   7.073   0.436   7.161  0.4897 -0.7803  0.1531
  816TIP3   OH224006   3.953   0.952   7.580 -0.1243  0.4969  0.3553
  816TIP3    H124007   3.893   0.948   7.505 -0.1215 -0.8929  0.4271
  816TIP3    H224008   4.039   0.963   7.542 -0.0749 -0.6394  0.1309
  817TIP3   OH224009   2.779   0.485   7.383 -0.2406  0.3593 -0.1062
  817TIP3    H124010   2.837   0.471   7.458 -0.1382  1.3354  0.0084
  817TIP3    H224011   2.834   0.466   7.307  0.3590  1.6537 -0.0127
  818TIP3   OH224012   6.857   0.998   1.490  0.3064 -0.3806  0.2199
  818TIP3    H124013   6.829   0.992   1.399  1.6797 -1.5855 -0.1420
  818TIP3    H224014   6.951   1.017   1.486  0.1155  0.9375  1.4019
  819TIP3   OH224015   2.567   1.548   7.163  0.2529  0.5935  0.0362
  819TIP3    H124016   2.522   1.624   7.200 -0.9865 -0.2265  0.2535
  819TIP3    H224017   2.561   1.482   7.232 -0.1306 -0.2325 -0.7865
  820TIP3   OH224018   2.951   6.336   8.089  0.1596 -0.3938 -0.2501
  820TIP3    H124019   2.975   6.246   8.066  2.1422  0.3650 -1.2571
  820TIP3    H224020   3.006   6.358   8.164 -0.8111 -0.2394  0.4274
  821TIP3   OH224021   4.929   1.372   7.310 -0.2425 -0.5356 -0.8215
  821TIP3    H124022   4.893   1.341   7.227 -1.2364 -1.2934 -0.1141
  821TIP3    H224023   5.022   1.350   7.306 -0.2787 -0.5374 -1.7356
  822TIP3   OH224024   5.111   0.337   0.589 -0.1170  0.1167 -0.7821
  822TIP3    H124025   5.118   0.354   0.683 -2.0859  1.1228 -0.7838
  822TIP3    H224026   5.200   0.345   0.556  0.3931  1.0902  0.7901
  823TIP3   OH224027   3.462   1.950   6.166 -0.2082 -0.0513  0.1484
  823TIP3    H124028   3.400   1.882   6.191  1.4295 -1.9589 -0.8632
  823TIP3    H224029   3.473   1.940   6.071  3.2600 -1.1998  0.6004
  824TIP3   OH224030   5.505   1.044   6.436 -0.0681 -0.2064  0.4909
  824TIP3    H124031   5.450   1.112   6.474  1.4836  0.6721  1.2073
  824TIP3    H224032   5.444   0.989   6.386 -1.6028  0.6523  1.3778
  825TIP3   OH224033   4.785   0.305   6.788 -0.1679  0.0882 -0.2459
  825TIP3    H124034   4.836   0.386   6.785  0.1748 -0.1398 -0.7457
  825TIP3    H224035   4.803   0.263   6.703  3.3479 -2.7674  1.7611
  826TIP3   OH224036   4.991   0.814   6.895  0.0214 -0.1945  0.2040
  826TIP3    H124037   4.996   0.839   6.803  1.0848 -0.0349  0.3037
  826TIP3    H224038   5.005   0.895   6.943 -0.1269 -0.3472  0.5063
  827TIP3   OH224039   5.802   6.887   6.210 -0.4694  0.2136  0.2187
  827TIP3    H124040   5.841   6.954   6.153  1.4026 -0.3863  0.7638
  827TIP3    H224041   5.875   6.828   6.231 -1.4927 -0.4546  1.9751
  828TIP3   OH224042   3.227   2.833   8.421  0.3409 -0.6379 -0.8781
  828TIP3    H124043   3.235   2.907   8.361 -3.0595  0.1614 -0.4090
  828TIP3    H224044   3.248   2.870   8.507  3.2217 -1.3379 -1.2093
  829TIP3   OH224045   3.625   1.699   7.902 -0.3163 -0.0972  0.0253
  829TIP3    H124046   3.650   1.789   7.884 -0.5736  0.2040  1.1327
  829TIP3    H224047   3.671   1.648   7.835  2.5848  0.5362  1.4346
  830TIP3   OH224048   5.312   0.374   6.982 -0.4213 -0.2913  0.4938
  830TIP3    H124049   5.360   0.439   6.931 -1.2155 -0.4313 -0.4496
  830TIP3    H224050   5.371   0.298   6.985  0.1119  0.1291  0.7918
  831TIP3   OH224051   5.133   0.365   0.893 -0.1297  0.0941  0.1324
  831TIP3    H124052   5.077   0.288   0.900  0.5147 -0.5348 -1.3804
  831TIP3    H224053   5.212   0.342   0.942 -0.7047  0.5361  1.2854
  832TIP3   OH224054   3.245   2.359   6.802 -0.0484 -0.4354 -0.2902
  832TIP3    H124055   3.288   2.275   6.784 -0.0514 -0.7507  1.0917
  832TIP3    H224056   3.301   2.424   6.760  0.6399 -1.0265 -0.3003
  833TIP3   OH224057   5.523   1.183   1.866 -0.4494 -0.7111  0.5682
  833TIP3    H124058   5.575   1.251   1.910  1.5165 -0.1308 -2.4602
  833TIP3    H224059   5.434   1.218   1.866  0.2096  1.0623  0.6704
  834TIP3   OH224060   2.281   0.815   0.997  0.2527  0.3451 -0.2045
  834TIP3    H124061   2.359   0.775   1.034 -0.2770 -1.1430 -0.6679
  834TIP3    H224062   2.313   0.862   0.919  1.0720  1.9319  1.0696
  835TIP3   OH224063   3.184   2.052   6.350  0.5765 -0.1716 -0.9519
  835TIP3    H124064   3.108   2.017   6.304  0.4356 -1.3564  0.1401
  835TIP3    H224065   3.259   2.009   6.310  0.5003 -0.7241 -0.5056
  836TIP3   OH224066   5.933   0.212   8.295 -0.2921 -0.1291  0.2644
  836TIP3    H124067   6.026   0.191   8.309 -0.1672  1.6525  2.3646
  836TIP3    H224068   5.888   0.168   8.366 -0.9081  0.0928  0.0123
  837TIP3   OH224069   3.615   0.132   6.999  0.2365 -0.2525 -0.5890
  837TIP3    H124070   3.531   0.127   6.954  0.1651 -1.1611 -0.3714
  837TIP3    H224071   3.594   0.112   7.090  0.5036  0.7568 -0.3001
  838TIP3   OH224072   0.153   5.684   0.788  0.2526 -0.6526 -0.5181
  838TIP3    H124073   0.060   5.702   0.798 -0.1677 -2.8571 -0.2242
  838TIP3    H224074   0.179   5.733   0.709 -0.6499  1.6629  0.5900
  839TIP3   OH224075   4.869   6.023   8.487  0.5405 -0.0522  0.1907
  839TIP3    H124076   4.916   6.104   8.509 -1.0412  0.5971  1.2616
  839TIP3    H224077   4.861   5.977   8.570  0.5877 -0.8761 -0.2604
  840TIP3   OH224078   3.825   1.312   1.144  0.3172 -0.1495 -0.5381
  840TIP3    H124079   3.802   1.356   1.062  0.5246  2.0667  0.5471
  840TIP3    H224080   3.742   1.305   1.191  0.5767  0.7891  0.0742
  841TIP3   OH224081   4.785   1.383   7.545  0.1816 -0.5250  0.6386
  841TIP3    H124082   4.850   1.376   7.475 -0.8746  0.2720 -0.4443
  841TIP3    H224083   4.788   1.475   7.571  0.1206 -0.6851  1.2217
  842TIP3   OH224084   3.637   1.305   7.270  0.2954 -0.3584  0.8375
  842TIP3    H124085   3.669   1.231   7.218  0.3665  0.0302  0.3174
  842TIP3    H224086   3.715   1.359   7.286 -0.0823  0.5888 -0.4276
  843TIP3   OH224087   3.909   1.354   6.671  0.0534  0.0131 -0.0780
  843TIP3    H124088   3.860   1.425   6.630  0.3661  1.3693  1.8238
  843TIP3    H224089   4.000   1.370   6.646 -0.0618 -0.6628 -0.9672
  844TIP3   OH224090   5.924   1.371   7.180 -0.4889 -0.3796  0.6553
  844TIP3    H124091   5.992   1.350   7.116  0.1117 -1.8165  1.7158
  844TIP3    H224092   5.920   1.466   7.181  1.3398 -0.2757  0.3664
  845TIP3   OH224093   2.210   5.364   7.428  0.0857  0.0799  0.2230
  845TIP3    H124094   2.249   5.411   7.354 -0.2342 -0.2875 -0.1775
  845TIP3    H224095   2.196   5.275   7.396 -1.2215  0.2480  0.3076
  846TIP3   OH224096   0.305   5.908   0.039  0.1937  0.1515 -0.1145
  846TIP3    H124097   0.290   5.826   0.086 -1.8386 -1.2284 -3.0084
  846TIP3    H224098   0.303   5.976   0.106 -0.7760 -1.8979  1.9785
  847TIP3   OH224099   4.025   1.586   1.659  0.9167 -0.4107 -0.1311
  847TIP3    H124100   4.112   1.573   1.622  1.2541 -1.8706  1.1496
  847TIP3    H224101   3.969   1.525   1.610  0.9312 -0.6516  0.1473
  848TIP3   OH224102   5.038   0.508   6.157  0.4995 -0.0877  0.1494
  848TIP3    H124103   5.049   0.511   6.062  0.9043 -1.1597  0.1614
  848TIP3    H224104   4.949   0.478   6.171  0.9735 -1.5596  0.1064
  849TIP3   OH224105   5.925   1.649   7.169 -0.6565 -0.3249 -0.4285
  849TIP3    H124106   5.981   1.713   7.214 -1.5439  0.4635 -0.4406
  849TIP3    H224107   5.960   1.647   7.080  1.1599 -1.9523  0.2684
  850TIP3   OH224108   1.701   0.733   0.908  0.0379 -0.5973 -0.1179
  850TIP3    H124109   1.638   0.735   0.980 -0.6695 -1.8775 -0.6753
  850TIP3    H224110   1.785   0.750   0.949 -0.5335  0.0267  0.8105
  851TIP3   OH224111   3.777   3.784   6.282  0.0857 -0.2711  0.0932
  851TIP3    H124112   3.857   3.772   6.231  0.7335 -1.7432  1.4434
  851TIP3    H224113   3.723   3.843   6.228  1.5601 -0.2362 -1.3732
  852TIP3   OH224114   4.493   7.271   6.950  0.0951  0.2935 -0.2576
  852TIP3    H124115   4.566   7.217   6.981  0.3942  0.4630 -0.6608
  852TIP3    H224116   4.427   7.208   6.922 -0.1995  0.1338  0.7437
  853TIP3   OH224117   4.293   0.168   8.186  0.2555  0.4405 -0.0468
  853TIP3    H124118   4.204   0.145   8.158  0.9202 -0.1533 -1.7079
  853TIP3    H224119   4.332   0.209   8.109  2.2241 -1.4645 -0.0911
  854TIP3   OH224120   2.770   1.154   6.279  0.3509  0.1246 -0.4403
  854TIP3    H124121   2.734   1.112   6.201 -0.6439 -1.2393  0.7215
  854TIP3    H224122   2.798   1.241   6.249 -1.0068  0.0299 -2.0631
  855TIP3   OH224123   1.895   4.076   1.831  0.1933 -0.2675  0.0899
  855TIP3    H124124   1.938   3.991   1.842 -2.4282 -1.5857  0.7564
  855TIP3    H224125   1.939   4.134   1.892  0.8214 -1.6322  0.9598
  856TIP3   OH224126   2.131   7.010   0.722 -0.6697  0.5490  0.0131
  856TIP3    H124127   2.195   6.959   0.672  0.8293  2.7294 -0.3402
  856TIP3    H224128   2.067   7.038   0.657 -1.7309 -1.1676  0.2760
  857TIP3   OH224129   1.731   2.146   7.947  0.4398  0.1194  0.2033
  857TIP3    H124130   1.640   2.116   7.946  0.4573  0.0309  0.8427
  857TIP3    H224131   1.775   2.094   7.880  0.0580  0.0341  0.0213
  858TIP3   OH224132   6.683   1.464   6.253 -0.0059 -0.0726 -0.6160
  858TIP3    H124133   6.777   1.481   6.259  0.1224 -1.4082  1.9052
  858TIP3    H224134   6.644   1.549   6.238  1.4650  0.7837  0.3124
  859TIP3   OH224135   4.467   1.689   7.181 -0.2190  0.1178  0.6323
  859TIP3    H124136   4.538   1.625   7.174 -0.1886 -0.1245  2.8979
  859TIP3    H224137   4.499   1.766   7.133  0.0519 -1.2637 -1.4574
  860TIP3   OH224138   5.344   0.661   8.212  0.3720  0.4433  0.1867
  860TIP3    H124139   5.354   0.623   8.299  1.6062 -0.0828 -0.1757
  860TIP3    H224140   5.262   0.623   8.179  0.6470 -0.5016  0.5576
  861TIP3   OH224141   3.415   0.556   1.658 -0.2174  0.3810 -0.8116
  861TIP3    H124142   3.407   0.639   1.611 -0.4706  1.9570  1.9102
  861TIP3    H224143   3.326   0.535   1.684 -0.4248 -1.7856 -3.1327
  862TIP3   OH224144   3.568   7.024   0.118 -0.0803 -0.6922 -0.4788
  862TIP3    H124145   3.650   7.075   0.120  0.1227 -0.9980 -0.9930
  862TIP3    H224146   3.595   6.935   0.098 -0.5264 -0.8360 -0.4506
  863TIP3   OH224147   6.018   1.087   0.229  0.2994 -0.1935 -0.2481
  863TIP3    H124148   6.007   1.089   0.134  1.1110  0.4483 -0.3323
  863TIP3    H224149   5.930   1.102   0.263  0.0374 -0.2167 -0.8960
  864TIP3   OH224150   4.324   1.525   6.283 -0.8603 -0.5252 -0.1334
  864TIP3    H124151   4.384   1.512   6.209 -2.4608  0.4610 -1.6364
  864TIP3    H224152   4.256   1.458   6.270  0.2441 -2.1205  1.9692
  865TIP3   OH224153   3.520   6.219   1.380  0.0636  0.0501 -0.0563
  865TIP3    H124154   3.609   6.246   1.355  0.4447 -0.0771  1.1214
  865TIP3    H224155   3.464   6.253   1.310  0.7710  2.0198  0.3014
  866TIP3   OH224156   4.385   5.511   0.832 -0.0569 -0.2473 -0.0442
  866TIP3    H124157   4.361   5.418   0.838 -1.1092  0.0024 -0.2279
  866TIP3    H224158   4.328   5.554   0.896 -0.4331  0.4265 -0.8329
  867TIP3   OH224159   5.248   6.480   6.843  0.4959 -0.2924  0.3676
  867TIP3    H124160   5.326   6.516   6.886  0.1101  2.8109 -1.4347
  867TIP3    H224161   5.264   6.492   6.750 -1.9052 -0.1713 -0.0455
  868TIP3   OH224162   4.953   6.600   0.079 -0.4126  0.0863  0.0420
  868TIP3    H124163   4.939   6.520   0.129 -1.9058  1.3275  1.6647
  868TIP3    H224164   5.047   6.615   0.082  0.0160 -2.0771 -1.0687
  869TIP3   OH224165   0.799   4.580   1.358  0.1167 -0.2637 -0.3602
  869TIP3    H124166   0.720   4.548   1.401  0.0577  0.5736  0.1661
  869TIP3    H224167   0.853   4.502   1.347  0.0857 -0.5255  1.1427
  870TIP3   OH224168   5.166   1.549   7.405  0.0789  0.3375 -0.3070
  870TIP3    H124169   5.155   1.530   7.498  2.0407 -0.8070 -0.2765
  870TIP3    H224170   5.077   1.563   7.373 -0.8291 -1.4126  1.3022
  871TIP3   OH224171   5.830   7.047   0.141 -0.2125  0.4435 -0.3869
  871TIP3    H124172   5.847   7.055   0.235 -3.2366  1.7765  0.0853
  871TIP3    H224173   5.916   7.028   0.103  0.9724 -0.6151  2.6810
  872TIP3   OH224174   4.447   1.866   6.875  0.1568  0.3654 -0.1508
  872TIP3    H124175   4.477   1.933   6.813  0.7627 -0.6003 -0.9070
  872TIP3    H224176   4.485   1.893   6.959  0.6069  0.8268 -0.4976
  873TIP3   OH224177   5.537   6.665   7.260  0.2636 -0.9869 -0.1763
  873TIP3    H124178   5.515   6.720   7.186 -0.4209  0.3931  1.0382
  873TIP3    H224179   5.610   6.610   7.229 -2.5679 -3.2352 -3.1207
  874TIP3   OH224180   1.763   0.525   6.657 -0.4857 -0.0294  0.3295
  874TIP3    H124181   1.731   0.571   6.579  1.2206  1.6567  0.5666
  874TIP3    H224182   1.799   0.443   6.625 -0.8503  0.1494 -0.5256
  875TIP3   OH224183   2.011   2.547   7.196  0.1830 -0.4103 -0.0865
  875TIP3    H124184   2.079   2.543   7.129 -1.0655 -1.3645 -1.3236
  875TIP3    H224185   1.937   2.591   7.153 -1.0077 -1.9828  0.2792
  876TIP3   OH224186   4.039   0.514   6.842  0.2359 -0.1060  0.6565
  876TIP3    H124187   4.107   0.476   6.898  1.8265 -2.1824 -2.4568
  876TIP3    H224188   4.085   0.579   6.789 -0.2052 -1.2588 -1.2190
  877TIP3   OH224189   7.031   7.299   7.295  0.0943 -0.3650 -0.1868
  877TIP3    H124190   7.111   7.307   7.347 -1.7997  3.5425  2.4002
  877TIP3    H224191   6.991   7.217   7.326  0.8404  0.0133  1.8901
  878TIP3   OH224192   5.695   6.155   7.842  0.2853 -0.0197  0.5912
  878TIP3    H124193   5.767   6.216   7.862 -0.7296  0.3395  3.2637
  878TIP3    H224194   5.658   6.132   7.927 -1.3171 -2.0151 -0.6008
  879TIP3   OH224195   2.590   4.486   7.539  0.1101 -0.2183 -0.4286
  879TIP3    H124196   2.579   4.394   7.563 -1.9454 -0.1914 -1.2241
  879TIP3    H224197   2.573   4.534   7.620 -2.6009 -0.3600 -0.8726
  880TIP3   OH224198   2.809   3.707   6.687 -0.2317 -0.1097  0.2936
  880TIP3    H124199   2.793   3.632   6.744  0.3186  0.5635  1.3415
  880TIP3    H224200   2.870   3.675   6.621 -1.3399 -1.0592 -0.2832
  881TIP3   OH224201   3.553   6.820   7.544  0.5723  0.5813  0.4208
  881TIP3    H124202   3.479   6.772   7.506  0.4912 -0.7704  2.2474
  881TIP3    H224203   3.535   6.912   7.522  0.1614 -0.0708 -2.1738
  882TIP3   OH224204   2.243   7.018   7.937 -0.3851  0.4163 -0.5635
  882TIP3    H124205   2.330   7.004   7.899  0.4323  2.5578  0.4563
  882TIP3    H224206   2.240   6.958   8.012  0.5180  0.8579 -0.1636
  883TIP3   OH224207   6.622   0.293   6.080  0.4210  0.2338  0.0907
  883TIP3    H124208   6.597   0.208   6.116  0.0372  0.5051  0.4791
  883TIP3    H224209   6.711   0.308   6.112  0.7575 -0.3545 -0.5866
  884TIP3   OH224210   1.235   1.945   7.769  0.4528  0.2378  0.5123
  884TIP3    H124211   1.315   1.897   7.749  0.2059 -0.4765  1.1889
  884TIP3    H224212   1.197   1.897   7.843 -0.3854  0.8126  0.4557
  885TIP3   OH224213   4.513   5.872   6.764  0.1697 -0.2762 -1.6227
  885TIP3    H124214   4.537   5.927   6.689 -1.5337 -0.9957 -2.7363
  885TIP3    H224215   4.455   5.806   6.726  0.4853 -1.5354  0.0860
  886TIP3   OH224216   5.171   6.504   6.296  0.3858  0.1563 -0.0976
  886TIP3    H124217   5.147   6.595   6.280 -1.9233 -0.6254 -1.3566
  886TIP3    H224218   5.119   6.479   6.372  0.2565 -0.4045 -0.3727
  887TIP3   OH224219   3.406   0.236   7.413 -0.1852  0.8317 -0.1130
  887TIP3    H124220   3.497   0.213   7.429 -0.0555  2.4986  1.8121
  887TIP3    H224221   3.362   0.153   7.399  1.2751 -0.1468  0.9632
  888TIP3   OH224222   5.086   6.875   7.321 -0.1701 -0.4089 -0.2789
  888TIP3    H124223   5.143   6.831   7.258  0.6380 -0.0983  0.2235
  888TIP3    H224224   5.097   6.969   7.302 -1.6229 -0.3799 -1.1241
  889TIP3   OH224225   3.709   7.135   6.906  0.1268 -0.0236  0.0383
  889TIP3    H124226   3.668   7.199   6.964  1.4012  0.5807  0.2753
  889TIP3    H224227   3.635   7.095   6.860 -0.6131  2.7740 -1.3287
  890TIP3   OH224228   0.135   6.852   0.888 -0.7126  1.1053 -0.0433
  890TIP3    H124229   0.175   6.866   0.973 -1.0954 -1.2204  0.5569
  890TIP3    H224230   0.207   6.822   0.832 -0.8909  0.5540  0.0276
  891TIP3   OH224231   4.284   6.940   7.653  0.1637  0.1517  0.0996
  891TIP3    H124232   4.245   6.938   7.565 -0.8579 -0.2028  0.5591
  891TIP3    H224233   4.209   6.940   7.712  0.7608  2.8644  0.9525
  892TIP3   OH224234   3.688   4.334   6.391  0.2823  0.0298 -0.0755
  892TIP3    H124235   3.709   4.313   6.482 -2.4374  1.2878  0.8986
  892TIP3    H224236   3.727   4.420   6.376 -2.2630  1.4528  1.0929
  893TIP3   OH224237   0.721   5.351   7.473  0.2383 -1.0400 -0.0740
  893TIP3    H124238   0.644   5.375   7.421  0.3920 -2.0519 -0.7924
  893TIP3    H224239   0.796   5.380   7.421  0.3501 -0.3037  0.4951
  894TIP3   OH224240   2.516   4.410   6.390 -0.3722  0.0080  0.7928
  894TIP3    H124241   2.509   4.343   6.322  0.7682  0.0621  0.6150
  894TIP3    H224242   2.429   4.448   6.395 -0.9189 -1.1885  0.5783
  895TIP3   OH224243   1.213   6.929   7.729 -0.4632 -0.1003  0.6702
  895TIP3    H124244   1.154   6.947   7.655 -0.6557 -0.8246  0.6446
  895TIP3    H224245   1.199   7.002   7.789 -1.4577 -0.3136  0.7053
  896TIP3   OH224246   6.535   4.595   7.906 -0.9245  0.3596  0.0416
  896TIP3    H124247   6.500   4.506   7.900 -0.6254  0.2671 -0.3204
  896TIP3    H224248   6.572   4.599   7.994 -1.1396  0.2001  0.1412
  897TIP3   OH224249   2.745   0.618   6.195 -0.2769 -0.1324  0.2432
  897TIP3    H124250   2.688   0.647   6.124  0.6931 -0.8156 -0.8458
  897TIP3    H224251   2.720   0.527   6.210  0.8326 -0.5885 -0.5824
  898TIP3   OH224252   4.510   5.897   7.273 -0.4218  0.0350  0.7323
  898TIP3    H124253   4.546   5.983   7.249  2.1633 -1.2411 -0.0476
  898TIP3    H224254   4.415   5.910   7.270 -0.0832  2.5681 -0.4859
  899TIP3   OH224255   5.900   1.201   7.395  0.5047 -0.0460  1.0133
  899TIP3    H124256   5.905   1.249   7.312  1.5183 -0.2158  0.9758
  899TIP3    H224257   5.832   1.135   7.379  0.9772 -0.3452  0.1647
  900TIP3   OH224258   0.575   2.713   0.201  0.2932  0.0321 -1.0100
  900TIP3    H124259   0.566   2.716   0.297 -0.6332 -0.0066 -1.0938
  900TIP3    H224260   0.587   2.804   0.176 -0.2958  0.1337 -0.9323
  901TIP3   OH224261   5.608   0.639   6.341 -0.4227 -0.5712 -0.3284
  901TIP3    H124262   5.578   0.549   6.357  0.0511 -0.8286 -0.8673
  901TIP3    H224263   5.578   0.659   6.253  0.6419 -0.6991 -0.7358
  902TIP3   OH224264   1.996   0.789   0.961  0.0313 -0.0514 -0.4506
  902TIP3    H124265   1.982   0.884   0.967  0.4653 -0.0112  0.0129
  902TIP3    H224266   2.090   0.780   0.947  0.3825 -0.4846  1.9653
  903TIP3   OH224267   4.133   6.923   7.901  0.4838 -0.2177  0.8124
  903TIP3    H124268   4.102   7.011   7.878  1.4641  0.0734  0.5722
  903TIP3    H224269   4.093   6.905   7.986 -2.8175 -1.1247 -0.8523
  904TIP3   OH224270   0.488   2.216   6.437 -0.2279 -0.2785  0.4391
  904TIP3    H124271   0.555   2.240   6.501  1.3783  0.4131 -1.4480
  904TIP3    H224272   0.427   2.289   6.436  0.9153  0.6845 -0.3363
  905TIP3   OH224273   1.147   2.706   2.125  0.0094  0.2503 -0.1791
  905TIP3    H124274   1.147   2.610   2.117 -0.6922  0.2723 -0.4870
  905TIP3    H224275   1.220   2.725   2.184  0.3248 -0.4571 -0.3322
  906TIP3   OH224276   1.867   3.083   7.938  0.9944  0.4281 -0.0502
  906TIP3    H124277   1.803   3.074   8.009  0.5068 -0.8869 -0.6501
  906TIP3    H224278   1.893   2.993   7.918  0.6252  0.7523 -2.0070
  907TIP3   OH224279   7.018   1.340   1.420 -0.0188  0.9775  0.0048
  907TIP3    H124280   7.063   1.400   1.480 -0.1139  0.5140  0.5420
  907TIP3    H224281   7.080   1.328   1.348 -0.5748  2.8458 -0.8217
  908TIP3   OH224282   5.519   0.666   1.775  0.1584  0.0709 -0.1744
  908TIP3    H124283   5.531   0.571   1.785  1.0489  0.1092 -0.8025
  908TIP3    H224284   5.451   0.674   1.707 -0.4812 -0.1212  0.4398
  909TIP3   OH224285   4.760   6.303   6.869 -0.1600  0.0281  0.3380
  909TIP3    H124286   4.694   6.307   6.939  0.9571  1.4579  1.3651
  909TIP3    H224287   4.728   6.364   6.803 -1.6288 -1.9416 -0.7751
  910TIP3   OH224288   5.049   1.410   7.923 -0.2718 -0.4805 -0.1525
  910TIP3    H124289   5.065   1.400   7.830  2.0711  1.4497 -0.0021
  910TIP3    H224290   5.095   1.336   7.964 -1.2948 -1.3207 -0.4699
  911TIP3   OH224291   5.434   0.339   6.587 -0.3905  0.5203  0.4203
  911TIP3    H124292   5.475   0.375   6.508  0.2032  1.2307  1.0330
  911TIP3    H224293   5.378   0.410   6.619 -0.4394  0.3241  0.7688
  912TIP3   OH224294   6.013   0.915   8.200  0.3481 -0.3956  0.0509
  912TIP3    H124295   5.987   0.830   8.165  2.3030 -0.2836 -1.8676
  912TIP3    H224296   6.104   0.925   8.171  0.3348  2.0762  0.7446
  913TIP3   OH224297   1.870   5.982   0.181  0.3358 -0.4150  0.0854
  913TIP3    H124298   1.902   6.014   0.266  0.0946  0.7750 -0.2642
  913TIP3    H224299   1.945   5.989   0.123  0.8626 -2.4113  0.4805
  914TIP3   OH224300   6.757   1.859   6.558  0.3765 -0.2237 -0.0062
  914TIP3    H124301   6.804   1.942   6.564 -0.9198  0.3892  1.9912
  914TIP3    H224302   6.827   1.793   6.554  1.4139  0.8273  0.3203
  915TIP3   OH224303   5.476   1.283   7.261 -0.0379  0.0269 -0.0653
  915TIP3    H124304   5.430   1.249   7.338 -1.5875  1.9194 -0.1263
  915TIP3    H224305   5.536   1.348   7.297  1.5691 -1.3857 -0.1442
  916TIP3   OH224306   5.145   1.181   5.699  0.2557 -0.1184  0.4686
  916TIP3    H124307   5.165   1.205   5.789  0.2518  0.6114  0.2843
  916TIP3    H224308   5.169   1.259   5.648 -0.7924 -0.1042 -0.0285
  917TIP3   OH224309   5.779   4.828   7.470  0.4822  0.1974  0.3947
  917TIP3    H124310   5.701   4.839   7.417  0.0883  0.1648  0.9586
  917TIP3    H224311   5.767   4.888   7.543  0.6660 -0.2947  0.8381
  918TIP3   OH224312   0.277   6.845   6.702 -0.2013  0.7680  0.3519
  918TIP3    H124313   0.320   6.891   6.774  1.3366  1.4236 -0.9472
  918TIP3    H224314   0.345   6.835   6.636 -0.9366 -1.9115 -0.0958
  919TIP3   OH224315   7.124   4.968   7.343 -0.0340 -0.1029  0.2820
  919TIP3    H124316   7.063   4.933   7.278  0.9289  1.0954 -1.2916
  919TIP3    H224317   7.209   4.931   7.318 -0.0165 -1.3840  2.1743
  920TIP3   OH224318   6.478   0.533   6.661  0.3264 -0.0148  0.8419
  920TIP3    H124319   6.432   0.531   6.577 -1.6061 -0.0569  1.8817
  920TIP3    H224320   6.460   0.448   6.701  0.8234  0.1908  1.5163
  921TIP3   OH224321   6.022   7.179   8.031  0.3500 -0.3539 -0.7917
  921TIP3    H124322   6.018   7.085   8.046  2.3817 -0.3866 -0.2687
  921TIP3    H224323   5.951   7.215   8.085  0.8082 -1.4354  0.5744
  922TIP3   OH224324   2.770   0.752   7.980 -0.5936 -0.4918 -0.1005
  922TIP3    H124325   2.688   0.727   7.937 -0.6725 -0.7060  0.1722
  922TIP3    H224326   2.769   0.704   8.063  0.0171 -0.8580 -0.2964
  923TIP3   OH224327   3.322   2.532   7.823 -0.1315  0.0963 -0.5417
  923TIP3    H124328   3.228   2.550   7.816 -0.1061  0.8639  0.8957
  923TIP3    H224329   3.340   2.533   7.917  1.3551  0.1133 -0.8115
  924TIP3   OH224330   5.055   5.711   6.467  0.3915 -0.1442 -0.7172
  924TIP3    H124331   5.025   5.671   6.548 -0.6858 -1.0269 -1.5264
  924TIP3    H224332   5.133   5.661   6.443 -0.5514 -1.3567 -1.3551
  925TIP3   OH224333   7.120   0.736   7.752 -0.0655  0.3173 -0.5692
  925TIP3    H124334   7.146   0.697   7.836 -1.0225 -0.6521 -0.7067
  925TIP3    H224335   7.162   0.821   7.751  2.4085 -0.8492 -0.4128
  926TIP3   OH224336   4.403   1.150   6.790 -0.0910 -0.0551 -0.0808
  926TIP3    H124337   4.331   1.192   6.838 -0.6921 -1.2450  0.0711
  926TIP3    H224338   4.482   1.193   6.823 -0.4477 -1.0907  2.2503
  927TIP3   OH224339   0.466   0.362   7.236 -0.5494 -0.0520 -0.2973
  927TIP3    H124340   0.427   0.363   7.149  0.6853 -0.9967 -0.8933
  927TIP3    H224341   0.507   0.275   7.242  1.1291  0.7670  0.4134
  928TIP3   OH224342   6.173   7.142   6.196 -0.4788  0.3385 -0.4728
  928TIP3    H124343   6.239   7.073   6.200  0.6336  1.2864 -1.7745
  928TIP3    H224344   6.174   7.181   6.284  0.9341  0.5509 -0.5762
  929TIP3   OH224345   0.468   0.990   7.291  0.3601 -0.4950  0.2440
  929TIP3    H124346   0.426   1.030   7.215  2.4905 -0.0819 -0.7536
  929TIP3    H224347   0.478   0.897   7.268 -0.1821 -0.6310  0.5575
  930TIP3   OH224348   6.330   4.398   6.615  0.0026  0.5630  0.6122
  930TIP3    H124349   6.354   4.465   6.679  1.2662 -0.8222  1.6241
  930TIP3    H224350   6.260   4.438   6.563  0.7594  2.6574  1.1750
  931TIP3   OH224351   5.974   0.325   7.046  0.1966  0.1142  0.0346
  931TIP3    H124352   5.905   0.276   7.001  0.4861 -1.6678  1.4609
  931TIP3    H224353   6.053   0.309   6.993  0.3287 -1.1365  0.5951
  932TIP3   OH224354   6.926   1.521   0.367 -0.1329  0.4127 -0.9634
  932TIP3    H124355   6.988   1.541   0.296 -0.5812  0.5212 -1.3256
  932TIP3    H224356   6.982   1.497   0.441  0.3536  0.7485 -1.2158
  933TIP3   OH224357   2.935   1.904   7.428 -0.3540  0.1112 -0.7116
  933TIP3    H124358   2.877   1.970   7.389 -1.6891  1.2577  3.0518
  933TIP3    H224359   3.016   1.952   7.447 -1.1915  0.6186  1.6789
  934TIP3   OH224360   5.152   2.375   6.802  0.2487  0.2980  0.2679
  934TIP3    H124361   5.235   2.334   6.825  0.1747  2.2712  4.5298
  934TIP3    H224362   5.171   2.469   6.803 -1.5328  0.6980 -0.9909
  935TIP3   OH224363   3.984   1.807   8.246 -0.3852  0.4690  0.0780
  935TIP3    H124364   3.937   1.880   8.205  0.6443 -0.0241 -2.1070
  935TIP3    H224365   3.916   1.748   8.276 -1.2051  1.3013 -0.1094
  936TIP3   OH224366   1.398   3.255   2.192 -0.0478  1.3197 -0.2224
  936TIP3    H124367   1.343   3.277   2.117  0.1214 -0.6861 -0.9617
  936TIP3    H224368   1.401   3.159   2.192  1.0512  1.3356  1.5516
  937TIP3   OH224369   5.135   2.801   6.478 -0.0720 -0.3184  0.6644
  937TIP3    H124370   5.160   2.709   6.481  1.3403  0.0348 -0.1121
  937TIP3    H224371   5.048   2.801   6.437 -0.1798 -1.3175  0.8813
  938TIP3   OH224372   3.957   1.983   6.609 -0.4244 -0.0181 -0.7011
  938TIP3    H124373   3.925   2.058   6.560 -0.6471 -0.9585 -2.0190
  938TIP3    H224374   3.878   1.944   6.646 -0.3302  0.2695 -0.1921
  939TIP3   OH224375   3.712   6.727   8.330 -0.0716 -0.5536 -0.5470
  939TIP3    H124376   3.804   6.709   8.310 -0.4840 -1.7581 -1.3974
  939TIP3    H224377   3.672   6.640   8.338 -1.3137 -0.0335 -1.0267
  940TIP3   OH224378   5.178   0.014   7.910  0.3776 -0.0162  0.0077
  940TIP3    H124379   5.216   0.084   7.858  1.9725 -0.5847  0.3680
  940TIP3    H224380   5.227   0.015   7.992 -1.9772  0.7561  1.4633
  941TIP3   OH224381   4.374   6.640   7.744 -0.2339  0.0584  0.4438
  941TIP3    H124382   4.437   6.588   7.695 -1.3471 -0.6515 -0.2779
  941TIP3    H224383   4.341   6.581   7.812 -2.8114 -0.8474 -1.4775
  942TIP3   OH224384   0.172   4.321   7.964  0.1554 -0.1784 -0.0318
  942TIP3    H124385   0.126   4.371   7.896  0.2282  0.9609  0.7384
  942TIP3    H224386   0.125   4.238   7.970 -0.3999  0.0736 -0.8330
  943TIP3   OH224387   5.825   6.647   6.943 -0.0736  0.4662  0.3077
  943TIP3    H124388   5.789   6.730   6.911  1.0599  0.8414  0.0114
  943TIP3    H224389   5.850   6.599   6.865 -2.3543 -0.9148  0.3908
  944TIP3   OH224390   0.171   6.424   7.216  0.0469  0.9954 -0.0192
  944TIP3    H124391   0.102   6.473   7.261  0.1531  2.1252 -1.0491
  944TIP3    H224392   0.129   6.341   7.191 -0.6582  1.2860  0.1797
  945TIP3   OH224393   2.598   5.241   0.395  0.2747  0.0679 -0.8241
  945TIP3    H124394   2.594   5.235   0.490 -0.0376 -2.4793 -0.9847
  945TIP3    H224395   2.537   5.175   0.364  0.7968  0.4890 -2.8139
  946TIP3   OH224396   3.246   5.837   6.983  0.0065 -0.1163 -0.5674
  946TIP3    H124397   3.197   5.829   6.901 -0.4511 -0.3688 -0.2720
  946TIP3    H224398   3.185   5.881   7.043  0.2393 -0.1840 -0.2783
  947TIP3   OH224399   7.294   6.954   7.672 -0.0207  0.0563 -0.1229
  947TIP3    H124400   7.387   6.962   7.692 -0.1401  0.5949  0.2333
  947TIP3    H224401   7.274   6.861   7.686  0.1428  0.2099  1.2166
  948TIP3   OH224402   2.121   7.200   1.146 -0.1911  0.7449  0.4970
  948TIP3    H124403   2.065   7.153   1.085 -1.0168 -0.0358  1.8267
  948TIP3    H224404   2.168   7.263   1.092 -0.8603  0.0318 -0.9414
  949TIP3   OH224405   6.740   0.792   6.264  0.3064  0.0046 -0.1797
  949TIP3    H124406   6.749   0.781   6.169  1.1011 -0.7908 -0.0212
  949TIP3    H224407   6.748   0.886   6.278  1.8091 -0.0189 -0.7423
  950TIP3   OH224408   2.126   1.243   7.510  0.2803  0.1764  0.5549
  950TIP3    H124409   2.061   1.311   7.527 -2.0119 -1.8525  0.2108
  950TIP3    H224410   2.141   1.247   7.415 -2.5346 -2.0602 -0.0432
  951TIP3   OH224411   4.523   0.055   0.182  0.2317 -0.3191  0.2477
  951TIP3    H124412   4.464  -0.005   0.135  0.3494 -0.0529 -0.2429
  951TIP3    H224413   4.464   0.114   0.229  0.1070 -0.0241 -0.2800
  952TIP3   OH224414   1.219   7.269   1.069 -0.5891 -0.1091  0.2262
  952TIP3    H124415   1.133   7.307   1.051  0.5858  1.5602 -2.3618
  952TIP3    H224416   1.272   7.343   1.097  1.0441 -0.2408 -2.2808
  953TIP3   OH224417   6.048   7.141   6.769  0.5917  0.3040  0.3095
  953TIP3    H124418   6.077   7.123   6.859 -0.8429 -1.1882  0.4827
  953TIP3    H224419   6.125   7.120   6.715  1.1187  0.1942  1.0885
  954TIP3   OH224420   0.037   0.892   7.273 -0.6266 -0.0401 -0.3811
  954TIP3    H124421   0.023   0.929   7.360  0.6463  2.5955 -1.2557
  954TIP3    H224422   0.112   0.833   7.283  0.5269  1.4682  0.0021
  955TIP3   OH224423   4.938   0.299   6.524 -0.3177  0.0308 -0.6531
  955TIP3    H124424   4.857   0.320   6.478 -0.1817 -0.3874 -1.0792
  955TIP3    H224425   4.948   0.204   6.514 -0.6651 -0.1840  0.8379
  956TIP3   OH224426   1.190   0.297   8.306  1.2268  0.3543 -0.1377
  956TIP3    H124427   1.126   0.243   8.261  0.9177  0.1430  0.5531
  956TIP3    H224428   1.223   0.357   8.238 -0.0351  0.7887 -0.3808
  957TIP3   OH224429   6.679   6.544   6.290  0.1733 -0.7228 -0.3702
  957TIP3    H124430   6.626   6.522   6.213 -0.5860  1.1198 -0.3959
  957TIP3    H224431   6.702   6.636   6.277 -0.7645 -0.1287  2.0809
  958TIP3   OH224432   1.454   2.419   7.652 -0.1512  0.2070  0.0988
  958TIP3    H124433   1.413   2.487   7.600 -0.9440 -0.3369 -0.0100
  958TIP3    H224434   1.380   2.368   7.687  0.4455 -1.2157 -0.6689
  959TIP3   OH224435   6.757   0.069   7.342  0.2316  0.0066  0.2266
  959TIP3    H124436   6.717   0.116   7.415 -1.1645  0.5346 -0.8743
  959TIP3    H224437   6.851   0.089   7.350 -0.2242  2.1674  0.3537
  960TIP3   OH224438   0.928   3.423   7.606 -0.0908  0.7642  0.4478
  960TIP3    H124439   0.993   3.431   7.536  1.6179  1.4065  2.0598
  960TIP3    H224440   0.862   3.489   7.586  0.5481  1.1649 -0.3601
  961TIP3   OH224441   2.189   1.553   0.576  0.0795 -0.0928  0.2726
  961TIP3    H124442   2.171   1.601   0.495 -0.1774 -0.2400  0.2382
  961TIP3    H224443   2.214   1.619   0.639  0.3300  0.0183  0.0560
  962TIP3   OH224444   0.956   0.308   0.024 -0.8324  0.5915  0.4818
  962TIP3    H124445   0.922   0.309   0.113  0.6740  0.0219  1.0923
  962TIP3    H224446   1.043   0.268   0.033 -1.1060 -0.4626 -1.3921
  963TIP3   OH224447   6.504   0.835   6.414  0.1338 -0.5554 -0.1822
  963TIP3    H124448   6.553   0.797   6.341 -0.0373 -0.0810 -0.5428
  963TIP3    H224449   6.414   0.805   6.400 -0.4549  1.8198 -1.7324
  964TIP3   OH224450   0.141   5.244   7.597 -0.5221  0.2286  0.1151
  964TIP3    H124451   0.061   5.275   7.555 -0.2662  1.0133  0.2036
  964TIP3    H224452   0.141   5.150   7.582 -2.1190  0.0423  1.2304
  965TIP3   OH224453   0.563   1.343   0.640 -0.1368  0.0147 -0.1550
  965TIP3    H124454   0.491   1.324   0.580  1.1273 -0.4824 -1.5777
  965TIP3    H224455   0.635   1.288   0.608  0.6005 -0.1792  1.7783
  966TIP3   OH224456   6.912   6.446   6.421  0.1202  0.1335 -0.0376
  966TIP3    H124457   6.930   6.355   6.443 -0.4020  0.6288  2.6364
  966TIP3    H224458   6.939   6.455   6.330  2.8422 -1.9578  0.5074
  967TIP3   OH224459   3.042   1.011   8.209  0.5443 -0.3643  0.0306
  967TIP3    H124460   2.981   1.080   8.237  2.9243  1.5911  0.6411
  967TIP3    H224461   3.015   0.934   8.259 -0.9793  0.6438  0.8174
  968TIP3   OH224462   6.232   5.853   7.437 -0.2187 -0.2134 -0.5374
  968TIP3    H124463   6.224   5.895   7.351  0.7680  0.7176 -0.1960
  968TIP3    H224464   6.156   5.885   7.486  1.8095  3.2694  0.5417
  969TIP3   OH224465   4.031   6.910   0.381 -0.3918  0.1832 -0.1568
  969TIP3    H124466   4.003   6.917   0.472  0.2724 -1.1988  0.1627
  969TIP3    H224467   4.103   6.846   0.382 -0.6968 -0.2153 -1.7143
  970TIP3   OH224468   6.530   0.282   2.424 -0.2559  0.4762  0.4514
  970TIP3    H124469   6.569   0.359   2.381 -1.0038  1.3867  1.3834
  970TIP3    H224470   6.448   0.315   2.462  0.3362 -0.3598  2.4676
  971TIP3   OH224471   5.598   4.143   6.805 -0.1444 -0.2026  0.1368
  971TIP3    H124472   5.583   4.060   6.759 -1.3648  1.4245 -2.5121
  971TIP3    H224473   5.574   4.124   6.896  1.4893 -3.2631  0.0220
  972TIP3   OH224474   7.247   2.125   8.075  0.4262  0.4375 -0.2688
  972TIP3    H124475   7.177   2.091   8.132  0.5703  0.1929 -0.2332
  972TIP3    H224476   7.213   2.114   7.987  1.4866 -2.1598 -0.3856
  973TIP3   OH224477   6.032   6.899   5.928 -0.1165 -0.2216  0.1529
  973TIP3    H124478   6.033   6.804   5.931 -0.3247 -0.2172  0.4304
  973TIP3    H224479   6.122   6.923   5.906  0.0351 -0.4721  0.4941
  974TIP3   OH224480   0.599   7.074   7.449  0.2949 -0.1495 -0.4201
  974TIP3    H124481   0.582   6.982   7.470  0.6093 -0.3841 -1.1850
  974TIP3    H224482   0.671   7.099   7.506 -1.2354  0.2528  1.3624
  975TIP3   OH224483   6.301   3.181   6.808 -0.4635  0.4547 -0.1106
  975TIP3    H124484   6.319   3.087   6.810 -1.6011  0.2348  0.5139
  975TIP3    H224485   6.363   3.219   6.870 -0.4249  0.0347  0.1085
  976TIP3   OH224486   0.320   4.707   7.525  0.0268 -0.3229  0.3110
  976TIP3    H124487   0.367   4.783   7.561  0.4320 -0.7461  0.6864
  976TIP3    H224488   0.288   4.737   7.440 -1.2131  0.8042  1.1572
  977TIP3   OH224489   6.517   4.154   6.887  0.4959 -0.1683  0.0221
  977TIP3    H124490   6.448   4.139   6.951  1.9488 -0.3554  1.5550
  977TIP3    H224491   6.470   4.168   6.804 -1.3600 -0.4184  1.0148
  978TIP3   OH224492   5.407   2.420   7.068 -0.2862 -0.5447  0.3421
  978TIP3    H124493   5.491   2.426   7.113 -0.1642  1.0322 -0.0515
  978TIP3    H224494   5.422   2.462   6.983 -1.0018 -1.8402 -0.4394
  979TIP3   OH224495   2.306   2.226   7.069  0.5530  0.1261 -0.1910
  979TIP3    H124496   2.358   2.174   7.008 -1.9160 -1.9851 -0.5942
  979TIP3    H224497   2.229   2.172   7.086 -0.2414  2.0046  2.4552
  980TIP3   OH224498   4.749   0.698   8.302 -0.3125  0.8980 -0.7160
  980TIP3    H124499   4.812   0.746   8.249 -0.5009  1.1512 -0.7131
  980TIP3    H224500   4.684   0.764   8.327  0.1147  0.9194  0.3648
  981TIP3   OH224501   6.495   1.296   6.328 -0.3531 -0.1146  0.0766
  981TIP3    H124502   6.416   1.334   6.290  0.2702 -0.4625 -1.6240
  981TIP3    H224503   6.562   1.363   6.314  0.2104 -0.8457 -0.7888
  982TIP3   OH224504   4.829   5.467   0.341  0.0152 -0.3471  0.6549
  982TIP3    H124505   4.904   5.497   0.291 -0.4551 -0.8723 -0.3787
  982TIP3    H224506   4.754   5.483   0.284 -0.7890  1.1527  2.0846
  983TIP3   OH224507   4.310   1.260   7.639 -0.0925  0.2601  0.3405
  983TIP3    H124508   4.335   1.344   7.601  1.9662 -1.2146 -1.6527
  983TIP3    H224509   4.375   1.243   7.707 -0.0976 -0.0669  0.2636
  984TIP3   OH224510   4.458   0.575   7.982  0.7738  1.0147  0.1014
  984TIP3    H124511   4.484   0.537   8.066 -0.7374 -0.4599 -0.0590
  984TIP3    H224512   4.445   0.668   8.000  0.0806  0.6465  1.6107
  985TIP3   OH224513   6.677   0.162   7.560 -0.4600 -0.4358  0.1023
  985TIP3    H124514   6.631   0.152   7.644 -0.0865 -0.4660  0.3054
  985TIP3    H224515   6.695   0.256   7.555 -1.3128 -0.2964 -0.3881
  986TIP3   OH224516   1.364   5.742   6.765  0.4124 -0.0985 -0.2159
  986TIP3    H124517   1.425   5.674   6.737  1.0213  0.2311  0.2807
  986TIP3    H224518   1.384   5.817   6.709 -0.4896 -0.4351 -0.9917
  987TIP3   OH224519   6.282   1.400   6.098 -0.0285  0.5451  0.6962
  987TIP3    H124520   6.341   1.435   6.031  0.3222 -0.5756  0.4242
  987TIP3    H224521   6.291   1.305   6.092 -1.9052  0.3554  0.6086
  988TIP3   OH224522   4.760   1.612   6.342  0.2168  0.1109 -0.5036
  988TIP3    H124523   4.793   1.690   6.297 -0.4366  1.2959  1.0287
  988TIP3    H224524   4.784   1.626   6.434 -3.4167  0.4191  0.4572
  989TIP3   OH224525   3.681   0.990   6.762  0.1369 -0.8200 -0.5256
  989TIP3    H124526   3.606   1.045   6.787  1.3862 -0.0072  1.5192
  989TIP3    H224527   3.642   0.905   6.744 -1.3584 -0.3006  0.1427
  990TIP3   OH224528   5.686   1.079   6.804 -0.3746  0.4398 -0.0173
  990TIP3    H124529   5.664   1.148   6.866 -1.2066 -0.5513  0.7992
  990TIP3    H224530   5.765   1.038   6.840 -0.6619  0.0884  0.2268
  991TIP3   OH224531   5.976   0.805   0.597  0.2624  1.0899 -0.3328
  991TIP3    H124532   6.012   0.764   0.518  0.8160 -0.3143  0.6184
  991TIP3    H224533   6.048   0.855   0.633  0.4081  0.6350  0.0086
  992TIP3   OH224534   6.357   0.376   6.138 -0.0073  0.1069 -0.0597
  992TIP3    H124535   6.435   0.408   6.094  1.0217 -0.5395  1.2851
  992TIP3    H224536   6.384   0.294   6.179 -1.8486 -1.0579 -1.0881
  993TIP3   OH224537   1.178   1.587   1.364 -0.0704 -0.6682 -0.0956
  993TIP3    H124538   1.210   1.677   1.355 -0.6569 -0.6861 -2.5873
  993TIP3    H224539   1.117   1.592   1.439 -0.3060  1.0780 -0.3683
  994TIP3   OH224540   5.103   5.483   8.468  0.5366  0.9123  0.6083
  994TIP3    H124541   5.014   5.481   8.434  1.4608 -0.3880 -1.8684
  994TIP3    H224542   5.144   5.558   8.425  1.4005 -0.0845 -0.3403
  995TIP3   OH224543   2.027   2.333   8.144 -0.5487 -0.0455 -0.3630
  995TIP3    H124544   1.988   2.408   8.098 -0.2908 -1.2741 -2.6717
  995TIP3    H224545   2.119   2.334   8.116 -0.3188 -0.6696  0.3642
  996TIP3   OH224546   6.697   0.927   6.605  0.5039 -0.1025 -0.3585
  996TIP3    H124547   6.689   1.018   6.575 -1.6938  0.6511  2.2639
  996TIP3    H224548   6.612   0.888   6.584  0.5748 -0.8349  0.6903
  997TIP3   OH224549   6.426   0.065   7.857  0.2638  0.1047 -0.2742
  997TIP3    H124550   6.396   0.022   7.937 -0.4141  2.8767  1.0579
  997TIP3    H224551   6.354   0.054   7.795  0.5688 -1.5998 -0.3403
  998TIP3   OH224552   6.345   0.915   6.885 -0.1780  0.1293  0.2720
  998TIP3    H124553   6.275   0.892   6.947  0.3434 -0.0495  0.8022
  998TIP3    H224554   6.317   0.879   6.802 -1.2436  1.0009  0.2464
  999TIP3   OH224555   6.476   2.543   6.603 -0.1760  0.0924  0.8788
  999TIP3    H124556   6.476   2.448   6.616 -0.7954 -0.1636 -0.8479
  999TIP3    H224557   6.486   2.554   6.508  0.9335  1.7788  1.1813
 1000TIP3   OH224558   6.735   0.057   6.901  0.1668  0.2026  0.3156
 1000TIP3    H124559   6.803   0.006   6.944  0.9990  0.9623 -0.0612
 1000TIP3    H224560   6.712   0.125   6.965  0.7911  0.8084 -0.0891
 1001TIP3   OH224561   4.937   5.061   7.424  0.1564 -0.4995 -0.1401
 1001TIP3    H124562   4.883   4.985   7.447 -1.0883  0.4823  0.2497
 1001TIP3    H224563   4.875   5.133   7.420  1.2590  0.4068 -1.0076
 1002TIP3   OH224564   5.725   1.168   6.528 -0.4251 -0.3818 -0.1298
 1002TIP3    H124565   5.666   1.108   6.483 -1.9842  0.4564  0.7337
 1002TIP3    H224566   5.720   1.142   6.620 -1.3456  1.2229  0.3015
 1003TIP3   OH224567   4.349   0.551   0.467  0.0436 -0.0817 -0.1043
 1003TIP3    H124568   4.360   0.595   0.383  1.3203  1.3106  0.7583
 1003TIP3    H224569   4.399   0.470   0.458  1.3360  0.7067 -0.2524
 1004TIP3   OH224570   0.721   3.569   6.513 -0.1515 -0.3096 -0.4124
 1004TIP3    H124571   0.672   3.593   6.434 -1.7009 -1.5489  0.1402
 1004TIP3    H224572   0.660   3.517   6.564  0.4969  1.2772  2.0869
 1005TIP3   OH224573   2.036   0.167   7.811 -0.4215 -0.0474  0.6578
 1005TIP3    H124574   1.999   0.225   7.877  0.9892  0.0925  1.3470
 1005TIP3    H224575   2.032   0.080   7.851 -0.2070 -0.0602  0.6516
 1006TIP3   OH224576   0.613   7.137   8.092 -0.5169 -0.1091  0.0142
 1006TIP3    H124577   0.661   7.110   8.171  1.0724 -0.1299 -0.9431
 1006TIP3    H224578   0.616   7.232   8.093 -0.2923 -0.1134 -0.1414
 1007TIP3   OH224579   5.311   6.701   2.153  0.0017  0.0421 -0.2690
 1007TIP3    H124580   5.242   6.637   2.133  0.4576 -0.7341  0.5772
 1007TIP3    H224581   5.306   6.713   2.248  1.0829 -0.0915 -0.1863
 1008TIP3   OH224582   0.654   5.126   0.828  0.2276 -0.3621  0.3732
 1008TIP3    H124583   0.706   5.052   0.798 -0.9636 -0.6022 -1.2243
 1008TIP3    H224584   0.650   5.184   0.751  0.6120  1.0623  1.3993
 1009TIP3   OH224585   5.819   1.337   6.206  0.0246  0.1260 -0.3434
 1009TIP3    H124586   5.884   1.404   6.227 -0.0369  0.8944 -2.5054
 1009TIP3    H224587   5.868   1.254   6.213  0.3723  0.4449  1.2701
 1010TIP3   OH224588   3.519   0.209   7.744 -0.3647  1.0644  0.2855
 1010TIP3    H124589   3.445   0.151   7.759 -0.7022  0.7599 -2.3469
 1010TIP3    H224590   3.576   0.195   7.820 -1.8355 -0.4937  1.1333
 1011TIP3   OH224591   2.016   0.696   7.286 -0.3054 -0.1800  1.0274
 1011TIP3    H124592   2.068   0.626   7.247  0.5162  0.7936  0.3863
 1011TIP3    H224593   1.933   0.693   7.238 -0.4500 -0.9880  1.3000
 1012TIP3   OH224594   1.852   3.097   1.233 -0.6799  0.0004  0.7571
 1012TIP3    H124595   1.775   3.151   1.253 -1.9229 -1.2427 -0.5310
 1012TIP3    H224596   1.866   3.045   1.312  0.0608  1.6398  1.7260
 1013TIP3   OH224597   6.541   6.107   7.135  0.2913 -0.0560 -0.4556
 1013TIP3    H124598   6.502   6.035   7.186  1.7333  0.0653  0.8628
 1013TIP3    H224599   6.631   6.080   7.120  0.5574  1.0182 -0.8276
 1014TIP3   OH224600   6.459   0.085   2.040 -0.0682  0.5036  0.2067
 1014TIP3    H124601   6.405   0.007   2.026 -0.9115  1.2696 -0.9297
 1014TIP3    H224602   6.436   0.114   2.128 -2.3969  1.4788 -0.6994
 1015TIP3   OH224603   2.639   2.847   0.645 -0.0537 -0.2707  0.3869
 1015TIP3    H124604   2.586   2.797   0.706 -0.3799 -0.4764 -0.0638
 1015TIP3    H224605   2.623   2.807   0.560 -1.3927  1.4529 -0.2070
 1016TIP3   OH224606   3.652   1.694   6.256  0.2677  0.4990 -0.1530
 1016TIP3    H124607   3.622   1.611   6.219  0.6628  0.6480 -0.8313
 1016TIP3    H224608   3.597   1.760   6.213  0.5092  0.6513 -0.2280
 1017TIP3   OH224609   3.160   3.439   6.783 -0.7878 -0.8648  0.5829
 1017TIP3    H124610   3.203   3.386   6.716 -0.6312 -0.3957  0.3061
 1017TIP3    H224611   3.124   3.514   6.734  1.5670  0.8327  1.3632
 1018TIP3   OH224612   0.791   1.701   6.590  0.1417 -0.0461  0.1102
 1018TIP3    H124613   0.786   1.703   6.495 -1.3022  1.9109  0.1953
 1018TIP3    H224614   0.772   1.610   6.613  0.3250 -0.4938 -1.4539
 1019TIP3   OH224615   5.208   0.418   6.365 -0.4582  1.2749 -0.2337
 1019TIP3    H124616   5.302   0.431   6.368 -0.3595  0.4628  0.2416
 1019TIP3    H224617   5.178   0.473   6.292  0.7783 -1.1011 -2.5741
 1020TIP3   OH224618   5.786   1.120   7.945  0.5886 -0.0857  0.0437
 1020TIP3    H124619   5.810   1.029   7.962 -0.5082 -0.5029 -0.5686
 1020TIP3    H224620   5.828   1.141   7.861  0.5231 -0.1504 -0.0046
 1021TIP3   OH224621   5.499   0.090   1.106  0.1357 -0.5348 -0.3773
 1021TIP3    H124622   5.576   0.043   1.138  0.4208 -0.7276 -1.3200
 1021TIP3    H224623   5.461   0.032   1.040  0.7116  0.7083 -1.8306
 1022TIP3   OH224624   0.154   0.471   5.834  0.1829 -0.1536  0.2712
 1022TIP3    H124625   0.066   0.478   5.869 -0.1893  0.8745 -0.8143
 1022TIP3    H224626   0.191   0.393   5.875 -1.5281 -1.0903  0.0518
 1023TIP3   OH224627   6.793   5.006   7.087  0.2534  0.3982 -0.1713
 1023TIP3    H124628   6.754   4.966   7.010  0.4078  0.0998 -0.0937
 1023TIP3    H224629   6.780   4.942   7.157 -0.6758  1.0344  0.2604
 1024TIP3   OH224630   4.139   6.308   0.931  0.4041  0.2584 -0.1407
 1024TIP3    H124631   4.080   6.312   0.855  1.4030  0.2247 -0.9387
 1024TIP3    H224632   4.221   6.345   0.899  1.3280 -1.2262  0.4569
 1025TIP3   OH224633   4.658   4.708   6.997 -0.5319 -0.5576 -0.6757
 1025TIP3    H124634   4.623   4.795   6.975 -1.8033 -1.1012 -0.8271
 1025TIP3    H224635   4.714   4.724   7.073  0.8395  0.7097 -1.9343
 1026TIP3   OH224636   6.124   6.350   8.037  0.4883 -0.7951 -0.0245
 1026TIP3    H124637   6.135   6.433   8.082 -4.4803 -0.6749  1.2606
 1026TIP3    H224638   6.181   6.356   7.960  1.6098  2.9753  1.0208
 1027TIP3   OH224639   1.807   3.099   0.665  0.0117 -0.6880 -0.1225
 1027TIP3    H124640   1.897   3.124   0.647 -0.9841  1.0669 -2.9725
 1027TIP3    H224641   1.764   3.180   0.694 -1.1196 -1.0475 -0.7397
 1028TIP3   OH224642   5.704   6.015   6.945 -0.0024  0.6725 -0.2591
 1028TIP3    H124643   5.645   6.065   6.889 -0.2002  0.4784 -0.2278
 1028TIP3    H224644   5.783   6.002   6.892 -0.8073 -0.9147 -1.1283
 1029TIP3   OH224645   6.429   6.869   6.929  0.4920  0.0484 -0.8140
 1029TIP3    H124646   6.488   6.816   6.983  2.2256  1.0743 -1.6390
 1029TIP3    H224647   6.488   6.929   6.882 -0.9432 -0.9720 -3.9996
 1030TIP3   OH224648   1.226   2.694   0.042  0.3336 -0.1779  0.0157
 1030TIP3    H124649   1.158   2.760   0.039  2.0456  1.6218 -0.0691
 1030TIP3    H224650   1.292   2.724  -0.021  0.2636 -2.9710 -1.4831
 1031TIP3   OH224651   0.924   2.380   6.897 -0.4823 -0.3383  0.0542
 1031TIP3    H124652   0.937   2.369   6.991 -0.1683 -0.4823 -0.0053
 1031TIP3    H224653   0.859   2.314   6.874 -1.3236  0.3814  0.3546
 1032TIP3   OH224654   1.593   3.338   6.961  0.2605 -0.3138  0.3496
 1032TIP3    H124655   1.553   3.259   6.927  1.7767 -0.8924 -0.1080
 1032TIP3    H224656   1.537   3.409   6.928 -0.8584 -1.1377  0.4249
 1033TIP3   OH224657   0.163   2.056   8.292  0.5860 -0.1887 -0.0785
 1033TIP3    H124658   0.091   2.075   8.232  0.7906  0.4313 -0.1280
 1033TIP3    H224659   0.153   1.963   8.313  0.8678 -0.5664 -1.5566
 1034TIP3   OH224660   1.249   2.662   7.498  0.0784  0.6939 -0.6258
 1034TIP3    H124661   1.326   2.673   7.442  0.1365  1.9145 -0.3035
 1034TIP3    H224662   1.263   2.722   7.571 -0.2437 -0.5112  0.4597
 1035TIP3   OH224663   0.061   4.454   7.755  0.4457 -0.1920 -0.4962
 1035TIP3    H124664   0.037   4.544   7.735 -1.3795 -0.3341  0.9270
 1035TIP3    H224665   0.149   4.444   7.719  0.0742  1.6931 -1.9772
 1036TIP3   OH224666   0.027   2.149   2.245  0.2526 -0.4965  0.0271
 1036TIP3    H124667   0.110   2.176   2.207  0.3777 -0.1571  0.5272
 1036TIP3    H224668   0.042   2.058   2.272  0.9437  0.0142  1.4367
 1037TIP3   OH224669   6.683   1.239   6.581  0.1696  0.1532  0.0131
 1037TIP3    H124670   6.606   1.250   6.524 -0.0616  1.1454  0.5052
 1037TIP3    H224671   6.649   1.255   6.669  0.8078 -0.0688  0.2986
 1038TIP3   OH224672   6.288   2.231   6.667  0.2111 -0.2936 -0.3166
 1038TIP3    H124673   6.381   2.243   6.681  0.6155 -0.7944 -2.3772
 1038TIP3    H224674   6.275   2.250   6.574 -1.5698 -1.2186 -0.2877
 1039TIP3   OH224675   3.935   0.112   7.077 -0.4115 -0.6237 -0.0870
 1039TIP3    H124676   3.860   0.157   7.038  0.6317 -0.1377 -1.5911
 1039TIP3    H224677   3.955   0.161   7.156  0.7980  1.6630 -1.7751
 1040TIP3   OH224678   5.599   3.631   6.421  0.1134  0.8759 -0.3849
 1040TIP3    H124679   5.648   3.602   6.344 -1.0847  1.4256 -1.3756
 1040TIP3    H224680   5.665   3.673   6.477  0.8192  1.3657 -1.5741
 1041TIP3   OH224681   6.275   7.138   6.606  0.1365 -0.1030 -0.2067
 1041TIP3    H124682   6.314   7.059   6.569 -0.9160 -0.7585  0.0680
 1041TIP3    H224683   6.280   7.203   6.535 -0.0284 -0.7523 -0.8200
 1042TIP3   OH224684   0.099   6.811   7.212 -0.2013 -0.4896 -0.5474
 1042TIP3    H124685   0.045   6.860   7.274 -2.1747 -1.3202 -1.5540
 1042TIP3    H224686   0.126   6.876   7.147 -1.7646 -0.4399 -1.1808
 1043TIP3   OH224687   5.539   4.429   7.468  0.4995  0.4247 -0.4285
 1043TIP3    H124688   5.600   4.432   7.393  0.2149  1.4541 -0.6252
 1043TIP3    H224689   5.460   4.390   7.432  0.9468 -0.6823 -0.2352
 1044TIP3   OH224690   3.813   1.514   6.451  0.2102  0.5392  0.2120
 1044TIP3    H124691   3.898   1.557   6.442  0.3347  0.5921  1.4712
 1044TIP3    H224692   3.760   1.550   6.381  1.0801  0.8783 -0.2787
 1045TIP3   OH224693   6.834   0.344   6.906  0.7810  0.6769 -0.0304
 1045TIP3    H124694   6.785   0.319   6.984  0.4245  0.4394 -0.3356
 1045TIP3    H224695   6.926   0.343   6.935  0.6001  1.3137  0.5866
 1046TIP3   OH224696   4.859   0.794   0.382 -0.9328 -0.5421 -0.2292
 1046TIP3    H124697   4.949   0.793   0.349 -1.3846 -2.5719 -1.4332
 1046TIP3    H224698   4.853   0.876   0.432  1.4642 -0.2182 -0.4371
 1047TIP3   OH224699   6.068   6.716   6.607  0.2146  0.0292  0.1400
 1047TIP3    H124700   6.102   6.739   6.694  0.5655  0.7665 -0.1890
 1047TIP3    H224701   6.095   6.625   6.594  0.6816  0.1084  0.5505
 1048TIP3   OH224702   5.837   5.225   0.663 -0.3358  0.1786  0.0620
 1048TIP3    H124703   5.827   5.309   0.708  1.2634  0.7085 -0.4990
 1048TIP3    H224704   5.929   5.201   0.679 -0.5688 -1.0675 -0.4525
 1049TIP3   OH224705   2.856   0.576   6.468  0.4244  0.1210  0.2118
 1049TIP3    H124706   2.864   0.558   6.374  0.8879 -0.0934  0.2946
 1049TIP3    H224707   2.775   0.532   6.493  0.6113 -0.3268  0.0370
 1050TIP3   OH224708   6.063   0.132   6.413  0.2035 -0.0411  0.4373
 1050TIP3    H124709   6.110   0.059   6.372  2.2688  0.5471  1.6924
 1050TIP3    H224710   6.122   0.163   6.481 -0.2573  3.4446 -0.6906
 1051TIP3   OH224711   1.118   5.256   8.126 -0.0567  0.0837 -0.0115
 1051TIP3    H124712   1.133   5.180   8.182 -1.8804 -0.0644  0.3172
 1051TIP3    H224713   1.202   5.301   8.124  0.2257 -0.2606  2.3472
 1052TIP3   OH224714   7.134   2.890   7.111 -0.3511  0.3985 -0.3356
 1052TIP3    H124715   7.050   2.935   7.110 -0.1472  0.7949 -0.0406
 1052TIP3    H224716   7.197   2.959   7.131 -0.0972 -0.1146  0.6539
 1053TIP3   OH224717   4.991   2.535   7.088 -0.1417 -0.4378 -0.5719
 1053TIP3    H124718   5.003   2.447   7.124  0.5114 -0.6853 -1.3615
 1053TIP3    H224719   5.040   2.592   7.147  0.6708 -0.7985 -0.8975
 1054TIP3   OH224720   1.130   6.066   2.347 -0.5419 -1.0676  0.6917
 1054TIP3    H124721   1.058   6.057   2.410 -0.6973  0.6304  0.7867
 1054TIP3    H224722   1.164   6.154   2.363  1.0936 -1.5834  0.1434
 1055TIP3   OH224723   0.367   2.210   0.848 -0.1050  0.2264 -0.7852
 1055TIP3    H124724   0.375   2.215   0.944 -0.8200  1.1650 -0.7741
 1055TIP3    H224725   0.306   2.137   0.834  1.5561 -1.2488 -0.6091
 1056TIP3   OH224726   7.020   2.303   6.812 -0.1787  0.3246  0.1067
 1056TIP3    H124727   7.072   2.379   6.786 -1.5358  1.7803  1.4776
 1056TIP3    H224728   6.930   2.336   6.816 -0.5448 -0.8340  2.6500
 1057TIP3   OH224729   0.796   4.155   7.110  0.1775 -0.7861 -0.1098
 1057TIP3    H124730   0.849   4.146   7.030  0.9560  0.4006  0.2641
 1057TIP3    H224731   0.859   4.179   7.178 -0.6756 -0.5344  0.5926
 1058TIP3   OH224732   6.665   4.565   6.907 -0.0082 -0.1381  0.2670
 1058TIP3    H124733   6.651   4.658   6.925 -2.1920 -0.1113 -1.3209
 1058TIP3    H224734   6.674   4.560   6.812 -0.9663 -1.6568  0.2369
 1059TIP3   OH224735   1.208   2.014   8.462  0.0955 -0.5792  0.0182
 1059TIP3    H124736   1.127   2.024   8.411 -1.1590  0.2170  2.1080
 1059TIP3    H224737   1.243   2.102   8.469  0.8707 -0.8490 -0.4057
 1060TIP3   OH224738   1.185   2.337   7.482 -0.0320  0.3951 -0.3126
 1060TIP3    H124739   1.116   2.389   7.523 -1.9874 -1.0831 -1.6658
 1060TIP3    H224740   1.209   2.387   7.404  1.2752  1.4861  0.7616
 1061TIP3   OH224741   4.255   3.892   6.617 -0.0572  0.0126 -0.0237
 1061TIP3    H124742   4.248   3.988   6.618  5.3922  0.6008 -0.1824
 1061TIP3    H224743   4.256   3.869   6.524  2.6037  0.3447 -0.1349
 1062TIP3   OH224744   0.181   1.558   7.132  0.5651  0.1486 -0.6234
 1062TIP3    H124745   0.193   1.613   7.210 -1.1922 -0.4824  0.1034
 1062TIP3    H224746   0.225   1.476   7.154 -0.0007 -0.0586 -0.2581
 1063TIP3   OH224747   0.178   3.216   7.366  0.4754  0.3395  0.3403
 1063TIP3    H124748   0.268   3.250   7.368  0.3069  0.7949  0.3473
 1063TIP3    H224749   0.186   3.124   7.388  0.6821  0.8897  2.6735
 1064TIP3   OH224750   6.660   4.864   6.869  0.0294  0.4171  0.1682
 1064TIP3    H124751   6.565   4.857   6.880 -0.2121  0.3907 -1.6890
 1064TIP3    H224752   6.671   4.885   6.776  1.7648  2.1157  0.7399
 1065TIP3   OH224753   1.295   3.141   0.485 -0.5366  0.1103  0.5107
 1065TIP3    H124754   1.287   3.133   0.580 -0.1502  1.3288  0.6533
 1065TIP3    H224755   1.276   3.233   0.467 -2.0728 -0.4373 -0.7589
 1066TIP3   OH224756   0.021   2.516   7.044 -0.2588 -0.0439  0.0388
 1066TIP3    H124757   0.079   2.573   7.094  2.2514 -1.5923 -0.9796
 1066TIP3    H224758  -0.021   2.574   6.980 -0.9909  1.3456  1.7358
 1067TIP3   OH224759   1.679   0.344   6.898  0.3848 -0.1459  0.5628
 1067TIP3    H124760   1.759   0.295   6.879 -0.0611 -0.5881 -0.2261
 1067TIP3    H224761   1.667   0.399   6.821  0.8212  1.1331  1.3997
 1068TIP3   OH224762   1.377   1.871   5.808  0.4092  0.3540 -0.3827
 1068TIP3    H124763   1.326   1.863   5.889  2.1149 -0.0127  0.6699
 1068TIP3    H224764   1.397   1.965   5.801  1.5974  0.1666  0.4570
 1069TIP3   OH224765   2.373   2.566   7.827  0.3234 -0.1622 -0.2311
 1069TIP3    H124766   2.311   2.503   7.788 -0.0622 -0.8826  1.5162
 1069TIP3    H224767   2.454   2.516   7.839  0.4450  0.0616 -0.1202
 1070TIP3   OH224768   7.125   1.369   6.923 -0.3704 -0.0266 -0.3450
 1070TIP3    H124769   7.117   1.283   6.965  0.8108 -0.7663 -1.6193
 1070TIP3    H224770   7.166   1.351   6.839 -0.3067  1.7776 -0.7115
 1071TIP3   OH224771   0.605   3.889   6.418  0.5282 -0.7069 -0.4750
 1071TIP3    H124772   0.611   3.811   6.363 -1.3259 -0.4419 -1.0751
 1071TIP3    H224773   0.562   3.954   6.362 -0.6585 -0.1855  1.0234
 1072TIP3   OH224774   7.150   2.310   7.044  1.1690  0.9712 -0.2852
 1072TIP3    H124775   7.205   2.388   7.056  0.2444  1.6139 -0.1098
 1072TIP3    H224776   7.138   2.305   6.949 -0.6352  2.3986 -0.1699
 1073TIP3   OH224777   0.756   3.953   6.121  0.0753 -0.2255  0.2438
 1073TIP3    H124778   0.818   3.886   6.092 -0.4930  0.0493 -1.6171
 1073TIP3    H224779   0.794   4.036   6.091  0.6391  0.2992  2.3029
 1074TIP3   OH224780   0.079   0.946   7.947 -0.5829  0.1543 -0.0211
 1074TIP3    H124781   0.144   0.890   7.904 -1.2163 -0.0889 -0.6746
 1074TIP3    H224782   0.130   0.997   8.010  0.0072 -1.1316  0.5662
 1075TIP3   OH224783   2.273   5.198   6.963  0.3331 -0.3291 -0.4022
 1075TIP3    H124784   2.241   5.245   6.886  0.1325 -0.9550 -0.7128
 1075TIP3    H224785   2.193   5.167   7.007  0.4803 -1.0311 -0.6220
 1076TIP3   OH224786   6.396   0.821   7.649  0.6591 -0.0802 -0.6838
 1076TIP3    H124787   6.357   0.742   7.610 -0.5554 -0.1992  0.7155
 1076TIP3    H224788   6.476   0.836   7.598 -0.4302 -0.7177 -2.6540
 1077TIP3   OH224789   0.762   1.887   6.814 -0.2936 -0.6113  0.1226
 1077TIP3    H124790   0.844   1.838   6.817  0.0848 -0.0818 -1.2556
 1077TIP3    H224791   0.777   1.954   6.747 -1.4207  0.2591  0.7299
 1078TIP3   OH224792   0.852   4.692   1.117 -0.0663 -0.3009 -0.5737
 1078TIP3    H124793   0.841   4.680   1.212  2.7112 -1.8668 -0.3791
 1078TIP3    H224794   0.870   4.603   1.085  0.1427  0.3976 -2.4031
 1079TIP3   OH224795   7.189   4.419   7.214  0.1289 -0.0180 -0.3029
 1079TIP3    H124796   7.256   4.353   7.196  0.5524  0.1037  0.7845
 1079TIP3    H224797   7.135   4.380   7.282  0.3610  0.7450  0.3213
 1080TIP3   OH224798   2.603   0.676   7.466 -0.3490 -0.1593  0.1300
 1080TIP3    H124799   2.664   0.607   7.443  0.0344 -0.6277  2.3929
 1080TIP3    H224800   2.519   0.631   7.476 -0.2011 -0.2419  1.0969
 1081TIP3   OH224801   5.249   1.092   0.382  0.0561  0.1202  0.0839
 1081TIP3    H124802   5.270   1.022   0.444  2.3156  1.3856  0.8145
 1081TIP3    H224803   5.249   1.172   0.435  0.6109  1.0408 -1.2705
 1082TIP3   OH224804   3.571   2.174   6.711 -0.6739 -0.0413 -0.2744
 1082TIP3    H124805   3.604   2.237   6.647  0.4628  1.2615  1.5416
 1082TIP3    H224806   3.488   2.144   6.675 -0.4799  1.3319 -1.9084
 1083TIP3   OH224807   6.812   1.814   7.549 -0.3284 -0.2674  0.2675
 1083TIP3    H124808   6.845   1.903   7.562 -1.0388 -0.1322  1.2452
 1083TIP3    H224809   6.847   1.765   7.624  0.6149 -0.9871 -0.6156
 1084TIP3   OH224810   0.584   5.150   7.105  0.5968  0.7476 -0.2507
 1084TIP3    H124811   0.498   5.108   7.106  0.9619 -0.0333 -0.9601
 1084TIP3    H224812   0.566   5.243   7.092 -0.1908  0.7272  0.6717
 1085TIP3   OH224813   0.336   3.368   0.963 -0.2937 -0.6269 -0.4791
 1085TIP3    H124814   0.299   3.455   0.948 -1.1851 -0.8428  0.3990
 1085TIP3    H224815   0.316   3.319   0.883 -1.4387 -0.5663 -0.2487
 1086TIP3   OH224816   3.069   2.780   7.993  0.0388 -0.0273 -0.7624
 1086TIP3    H124817   3.008   2.760   8.064  0.0521 -0.0187 -0.7488
 1086TIP3    H224818   3.077   2.698   7.945  0.7859 -0.2929 -0.1872
 1087TIP3   OH224819   0.754   0.062   7.090  0.0208 -0.3628 -0.0263
 1087TIP3    H124820   0.830   0.006   7.074  1.4298  1.8958 -1.6522
 1087TIP3    H224821   0.729   0.093   7.003 -2.1486 -0.2617  0.6076
 1088TIP3   OH224822   1.440   1.575   1.499  0.0118  0.2769 -0.4956
 1088TIP3    H124823   1.372   1.508   1.505 -1.3280  1.7362  1.0646
 1088TIP3    H224824   1.474   1.567   1.410 -2.2782 -0.4020 -1.3356
 1089TIP3   OH224825   0.472   5.451   7.006 -1.5020 -0.5985  0.3952
 1089TIP3    H124826   0.394   5.488   6.965 -1.9661 -1.1347  0.7891
 1089TIP3    H224827   0.488   5.506   7.082 -1.8370 -0.8402  0.6401
 1090TIP3   OH224828   1.691   3.679   6.900 -0.2337  0.0649  0.2163
 1090TIP3    H124829   1.606   3.702   6.938 -0.4248  0.0465 -0.1932
 1090TIP3    H224830   1.722   3.760   6.859 -0.7726 -0.3167 -0.9749
 1091TIP3   OH224831   0.332   0.478   7.991 -0.6087 -0.0625 -0.8050
 1091TIP3    H124832   0.384   0.553   7.960  0.8748 -0.7428 -0.0106
 1091TIP3    H224833   0.257   0.475   7.932 -0.3343  1.6319 -1.2810
 1092TIP3   OH224834   6.543   0.647   0.249 -0.5252  0.4653 -0.5337
 1092TIP3    H124835   6.473   0.616   0.307 -2.8534  1.6112 -2.6095
 1092TIP3    H224836   6.503   0.721   0.201  1.7849  0.5074 -2.4900
 1093TIP3   OH224837   0.320   2.778   6.201 -0.0498 -0.1539 -0.1948
 1093TIP3    H124838   0.324   2.695   6.155 -0.5411  0.7801 -1.9682
 1093TIP3    H224839   0.227   2.796   6.212 -0.0125  1.2032 -1.8233
 1094TIP3   OH224840   0.138   2.607   6.498 -0.2340  0.1074 -0.4907
 1094TIP3    H124841   0.056   2.557   6.501 -1.0637  1.4796  0.2695
 1094TIP3    H224842   0.138   2.646   6.410  0.4688 -1.2958 -1.1249
 1095TIP3   OH224843   6.296   4.824   7.330  0.3220  0.3011 -0.3184
 1095TIP3    H124844   6.251   4.748   7.295 -0.2084  0.6135 -0.3250
 1095TIP3    H224845   6.250   4.842   7.413  2.3915 -1.2280  1.2165
 1096TIP3   OH224846   2.484   4.075   8.205 -0.2414 -0.5406  0.2151
 1096TIP3    H124847   2.563   4.043   8.161  0.7622 -0.7941  2.1574
 1096TIP3    H224848   2.415   4.014   8.177  1.1310 -2.8970  1.8538
 1097TIP3   OH224849   6.777   2.710   7.118  0.2103 -0.2318  0.2657
 1097TIP3    H124850   6.832   2.754   7.054  1.4086  0.0720  1.4798
 1097TIP3    H224851   6.834   2.696   7.194 -2.0035  2.1823  2.4646
 1098TIP3   OH224852   1.407   5.107   7.706 -0.7308 -0.1192  0.0411
 1098TIP3    H124853   1.445   5.172   7.765  1.5221 -1.5068  0.1748
 1098TIP3    H224854   1.412   5.148   7.620 -0.4645  0.3823  0.2891
 1099TIP3   OH224855   0.627   3.510   7.811 -0.9574 -0.1084 -0.9203
 1099TIP3    H124856   0.654   3.580   7.871 -2.2579 -0.5844  0.2401
 1099TIP3    H224857   0.570   3.454   7.864  0.1493 -2.1162 -1.7916
 1100TIP3   OH224858   0.133   4.431   6.194 -0.2458 -0.2878 -0.2860
 1100TIP3    H124859   0.201   4.450   6.259 -1.5672 -2.3379  1.7961
 1100TIP3    H224860   0.180   4.415   6.113  1.5312  1.2307  0.4097
 1101TIP3   OH224861   2.050   6.857   6.584 -0.3589  0.2626  0.1044
 1101TIP3    H124862   2.091   6.881   6.500  0.2715  0.1395  0.3752
 1101TIP3    H224863   1.959   6.885   6.574  0.0398  1.5412 -0.0934
 1102TIP3   OH224864   0.129   2.317   6.217  0.6188 -0.1406  0.1232
 1102TIP3    H124865   0.177   2.235   6.208  0.8640 -0.0500  0.6276
 1102TIP3    H224866   0.107   2.323   6.310 -0.6797 -0.3535 -0.1552
 1103TIP3   OH224867   0.742   5.437   0.130  0.2616 -0.8845  0.0381
 1103TIP3    H124868   0.822   5.408   0.087 -0.6719 -0.1677 -2.2117
 1103TIP3    H224869   0.729   5.527   0.101 -0.6670 -0.5552  1.3976
 1104TIP3   OH224870   1.041   2.922   0.628  0.1504  0.1980  0.1998
 1104TIP3    H124871   1.048   2.878   0.543  3.9133 -0.2366  0.6426
 1104TIP3    H224872   1.131   2.928   0.659 -0.7547  3.9496  2.3873
 1105TIP3   OH224873   1.327   2.094   0.401 -0.2291 -0.0305 -0.0024
 1105TIP3    H124874   1.386   2.153   0.354 -0.6908  0.1813 -0.3203
 1105TIP3    H224875   1.382   2.051   0.466  0.2115  0.3924 -0.0973
 1106TIP3   OH224876   1.009   2.917   7.556  0.6346 -0.0723 -0.7337
 1106TIP3    H124877   1.096   2.938   7.590  0.8982 -1.3960 -0.5716
 1106TIP3    H224878   0.970   2.861   7.623 -0.6350  1.0973 -0.4671
 1107TIP3   OH224879   0.341   2.433   6.514  0.1636 -0.7368 -0.1436
 1107TIP3    H124880   0.292   2.357   6.548 -3.8112  1.6044 -0.3209
 1107TIP3    H224881   0.273   2.495   6.488  3.3130  2.4287 -1.1460
 1108TIP3   OH224882   1.490   2.866   6.831 -0.1373  0.1938 -0.2283
 1108TIP3    H124883   1.459   2.955   6.842  2.2772  0.8347  1.8839
 1108TIP3    H224884   1.576   2.865   6.873 -0.5873 -3.3902  0.7876
 1109TIP3   OH224885   1.463   1.328   6.285  0.5231  0.3450  0.3016
 1109TIP3    H124886   1.475   1.249   6.233  0.8458  1.5656 -1.5144
 1109TIP3    H224887   1.369   1.348   6.277  0.2820 -0.2998  1.4325
 1110TIP3   OH224888   2.304   2.356   1.527  0.0828  0.1545 -0.0569
 1110TIP3    H124889   2.295   2.445   1.561  0.4201  0.2424 -0.1986
 1110TIP3    H224890   2.399   2.341   1.525  0.0185 -0.3249  0.2770
 1111TIP3   OH224891   1.158   0.683   0.323  0.6220  0.0578  0.2147
 1111TIP3    H124892   1.177   0.688   0.230  0.5490 -1.6183  0.1040
 1111TIP3    H224893   1.074   0.729   0.333  0.8707  0.6634 -0.4531
 1112TIP3   OH224894   0.207   3.736   0.478  0.4021 -0.0969 -0.2324
 1112TIP3    H124895   0.264   3.674   0.431 -0.8503 -0.4963 -1.2386
 1112TIP3    H224896   0.122   3.729   0.434 -0.8609 -0.6183  2.2227
 1113TIP3   OH224897   5.315   3.687   6.548  0.3419  0.3224 -0.3856
 1113TIP3    H124898   5.277   3.715   6.465 -2.1525 -1.0862  0.2384
 1113TIP3    H224899   5.370   3.612   6.524 -0.5377 -0.2132 -0.7389
 1114TIP3   OH224900   6.331   2.535   5.706 -0.1984  0.5007 -0.2666
 1114TIP3    H124901   6.284   2.455   5.729 -2.2489  2.1662  1.5439
 1114TIP3    H224902   6.271   2.582   5.646  0.4331  1.2692 -0.3023
 1115TIP3   OH224903   3.929   7.149   7.784  0.1932 -0.1493  0.1223
 1115TIP3    H124904   3.943   7.165   7.877  0.4465 -1.0699  0.2549
 1115TIP3    H224905   3.835   7.134   7.776  0.1261  0.2490  0.1819
 1116TIP3   OH224906   2.804   3.373   6.497 -0.5199 -0.3151  0.4013
 1116TIP3    H124907   2.850   3.456   6.483  1.0067 -1.1774  0.2036
 1116TIP3    H224908   2.782   3.374   6.590 -1.3694  0.7297  0.2056
 1117TIP3   OH224909   1.136   2.495   8.172 -0.4177 -0.2832 -0.2680
 1117TIP3    H124910   1.116   2.404   8.152  0.4795 -0.3365 -0.9486
 1117TIP3    H224911   1.225   2.508   8.140  0.2152  0.2742  1.6179
 1118TIP3   OH224912   6.630   1.258   6.866 -0.0933 -0.5125 -0.4526
 1118TIP3    H124913   6.695   1.313   6.909 -1.7414  1.3146 -0.2556
 1118TIP3    H224914   6.598   1.201   6.936  2.6894 -2.8678 -0.9751
 1119TIP3   OH224915   0.820   5.709   6.611 -0.8155 -0.2158  0.3561
 1119TIP3    H124916   0.842   5.675   6.524 -0.9496 -0.5699  0.4599
 1119TIP3    H224917   0.886   5.671   6.669  0.9152  2.1089  0.0216
 1120TIP3   OH224918   5.598   1.309   7.845 -0.1938 -0.3098  0.1887
 1120TIP3    H124919   5.597   1.363   7.924  1.3260 -0.2491  0.1761
 1120TIP3    H224920   5.665   1.243   7.861 -0.1452 -0.5446 -0.8879
 1121TIP3   OH224921   3.450   3.942   0.898  0.2054  0.2046  0.1588
 1121TIP3    H124922   3.537   3.962   0.933  0.6245 -0.5222 -0.4359
 1121TIP3    H224923   3.390   3.994   0.951  1.0056  0.7212  0.5719
 1122TIP3   OH224924   0.230   2.762   1.432 -0.0059  0.1797  0.4564
 1122TIP3    H124925   0.300   2.809   1.385  0.6256 -1.6133 -0.4406
 1122TIP3    H224926   0.243   2.786   1.524 -0.6962  3.0219 -0.1264
 1123TIP3   OH224927   6.247   1.051   7.539 -1.0730 -0.2175 -0.1941
 1123TIP3    H124928   6.185   1.052   7.612 -0.6651  0.1828  0.1471
 1123TIP3    H224929   6.313   0.988   7.564 -1.1566 -0.3899 -0.4056
 1124TIP3   OH224930   0.236   3.948   6.352  0.1141 -0.3258  0.4996
 1124TIP3    H124931   0.172   4.015   6.377 -0.3145  0.5172 -2.6660
 1124TIP3    H224932   0.304   3.996   6.305  1.4875 -1.6747  1.0649
 1125TIP3   OH224933   0.842   0.721   7.552 -0.0672  0.7218 -0.0331
 1125TIP3    H124934   0.872   0.773   7.627  1.9306  1.5016 -1.3273
 1125TIP3    H224935   0.789   0.651   7.591  0.7787  1.2060  2.0805
 1126TIP3   OH224936   1.060   5.132   6.513 -0.4412  0.2201 -0.6504
 1126TIP3    H124937   1.036   5.119   6.605 -4.8752  2.7820 -1.3051
 1126TIP3    H224938   0.993   5.086   6.464  0.5721  0.8366 -2.6554
 1127TIP3   OH224939   5.926   1.197   7.720 -0.2417 -0.5528  0.6727
 1127TIP3    H124940   5.925   1.211   7.626 -1.0601  0.7775  0.8676
 1127TIP3    H224941   6.001   1.139   7.735  0.4507 -0.0293 -0.6923
 1128TIP3   OH224942   6.516   1.374   7.245 -0.5491  0.0124 -0.0103
 1128TIP3    H124943   6.469   1.335   7.319 -1.9902  1.0076 -0.3779
 1128TIP3    H224944   6.516   1.468   7.264  0.6700  0.0975 -0.3814
 1129TIP3   OH224945   0.887   0.487   6.244  0.5824 -1.0208 -0.6206
 1129TIP3    H124946   0.889   0.539   6.325  0.3877 -0.2765 -1.0921
 1129TIP3    H224947   0.947   0.531   6.185 -0.4569 -0.6518 -1.4285
 1130TIP3   OH224948   3.214   1.140   0.811  0.5660 -0.4498 -0.0304
 1130TIP3    H124949   3.191   1.169   0.723 -0.3358 -1.0364  0.0011
 1130TIP3    H224950   3.248   1.218   0.854 -0.8747  0.3261 -0.2608
 1131TIP3   OH224951   6.267   5.894   6.676  0.1949 -0.1559 -0.0343
 1131TIP3    H124952   6.218   5.972   6.651 -1.8690 -1.9424 -1.7196
 1131TIP3    H224953   6.304   5.915   6.762 -1.5661  2.1030  0.1977
 1132TIP3   OH224954   7.214   2.436   6.442  0.3069 -0.1046 -0.4067
 1132TIP3    H124955   7.234   2.419   6.534  0.0833 -1.8319 -0.6545
 1132TIP3    H224956   7.119   2.435   6.438  0.2416  2.7593 -0.1794
 1133TIP3   OH224957   2.560   5.166   7.864  0.3135  0.0723 -0.0328
 1133TIP3    H124958   2.558   5.096   7.799 -0.2780  0.8118 -0.8111
 1133TIP3    H224959   2.641   5.213   7.847  0.5249 -0.1857  0.2486
 1134TIP3   OH224960   0.829   3.842   7.235 -0.1649 -0.0476  0.2799
 1134TIP3    H124961   0.768   3.916   7.231  1.1710  0.9915 -2.0688
 1134TIP3    H224962   0.851   3.824   7.144 -3.0084 -5.6064  0.4830
 1135TIP3   OH224963   0.172   3.648   7.105  0.3083  0.0063  0.1124
 1135TIP3    H124964   0.242   3.710   7.128  0.7153 -0.8079  1.1009
 1135TIP3    H224965   0.091   3.695   7.125  0.5387  1.1987 -1.6479
 1136TIP3   OH224966   1.455   3.146   6.026 -0.0006  0.3588  0.3456
 1136TIP3    H124967   1.469   3.053   6.007 -0.0098  0.3613  0.3265
 1136TIP3    H224968   1.539   3.176   6.061 -0.0571  0.2964  0.5400
 1137TIP3   OH224969   1.975   4.108   8.494 -0.0410  0.5272 -0.3685
 1137TIP3    H124970   2.042   4.045   8.520 -0.3934 -0.1028 -0.9803
 1137TIP3    H224971   2.024   4.186   8.470  0.4462  0.2140 -0.3992
 1138TIP3   OH224972   0.611   2.802   7.646 -0.1066  0.3855 -0.2513
 1138TIP3    H124973   0.574   2.847   7.722 -1.7956 -1.5676  0.1199
 1138TIP3    H224974   0.655   2.872   7.597 -0.3573  1.9584  1.6724
 1139TIP3   OH224975   0.187   2.771   8.361 -0.5867  0.3565 -0.1044
 1139TIP3    H124976   0.236   2.819   8.295  0.3381  0.2648  0.5167
 1139TIP3    H224977   0.169   2.835   8.430 -0.5470  0.1624  0.0867
 1140TIP3   OH224978   0.937   4.546   6.929 -0.1766 -0.0799 -0.2617
 1140TIP3    H124979   1.021   4.513   6.899  0.1858  1.0934 -0.5851
 1140TIP3    H224980   0.958   4.628   6.975 -0.7721 -1.5044  2.7039
 1141TIP3   OH224981   0.430   5.084   8.153  0.0384 -0.0732 -0.1143
 1141TIP3    H124982   0.398   5.023   8.088  1.8186 -1.9266  0.6785
 1141TIP3    H224983   0.403   5.046   8.237  0.1031  0.8598  0.3358
 1142TIP3   OH224984   2.802   5.225   1.093 -0.6270  0.4561 -0.4654
 1142TIP3    H124985   2.874   5.240   1.154 -0.5881 -0.2905 -0.3226
 1142TIP3    H224986   2.813   5.134   1.064 -0.3969  0.9408 -1.9204
 1143TIP3   OH224987   1.824   1.267   0.993 -0.0738  0.1635 -0.1016
 1143TIP3    H124988   1.737   1.254   0.954 -0.8876 -0.3202  1.8123
 1143TIP3    H224989   1.845   1.359   0.974 -0.3438 -0.0994 -1.8115
 1144TIP3   OH224990   0.719   0.850   6.834 -0.0730  0.1031  0.2342
 1144TIP3    H124991   0.682   0.930   6.797  0.7398 -0.4534 -1.8790
 1144TIP3    H224992   0.801   0.878   6.876 -0.3463  0.5451  0.4727
 1145TIP3   OH224993   0.832   2.499   7.793  0.5502 -0.4567 -0.8021
 1145TIP3    H124994   0.836   2.471   7.885 -0.9408  2.5122  0.2125
 1145TIP3    H224995   0.739   2.500   7.772  0.7742  0.5995 -1.7849
 1146TIP3   OH224996   1.318   4.696   6.364 -0.0731  0.3227  0.3014
 1146TIP3    H124997   1.237   4.727   6.403 -1.2545 -1.5653 -0.6133
 1146TIP3    H224998   1.295   4.613   6.322  2.5993 -0.9064  1.1482
 1147TIP3   OH224999   0.424   6.093   0.206  0.4130  0.7162 -0.3620
 1147TIP3    H125000   0.499   6.147   0.232  1.1504  0.7447 -2.4501
 1147TIP3    H225001   0.348   6.139   0.242  1.2905  1.3962  0.6477
 1148TIP3   OH225002   1.225   4.116   0.512  0.6393  0.5240  0.1251
 1148TIP3    H125003   1.296   4.062   0.477 -0.4612 -0.0197 -1.3568
 1148TIP3    H225004   1.263   4.160   0.588  2.4011 -0.1427 -0.3403
 1149TIP3   OH225005   2.278   2.633   1.656 -0.8874  0.1558  0.0869
 1149TIP3    H125006   2.267   2.577   1.732  0.4470 -1.0368 -0.5816
 1149TIP3    H225007   2.266   2.722   1.690 -2.8997 -0.5010  1.1736
 1150TIP3   OH225008   0.753   3.072   6.013 -0.4408 -0.0490  0.5854
 1150TIP3    H125009   0.751   3.006   6.082  0.5211  0.1358  0.8055
 1150TIP3    H225010   0.847   3.089   5.999 -0.6674  0.9908  0.2782
 1151TIP3   OH225011   0.131   2.606   6.795 -0.6516  0.2170 -0.2974
 1151TIP3    H125012   0.182   2.590   6.715 -2.2676  1.3424 -1.5944
 1151TIP3    H225013   0.165   2.690   6.828 -0.7436  0.3005 -0.4145
 1152TIP3   OH225014   0.175   2.521   8.226  0.1026 -0.0575  0.1105
 1152TIP3    H125015   0.159   2.579   8.300 -0.6970 -1.8205  1.3482
 1152TIP3    H225016   0.132   2.564   8.152 -1.6126  0.3086  1.2906
 1153TIP3   OH225017   2.476   3.434   7.095  0.8203  0.0381  0.0923
 1153TIP3    H125018   2.499   3.526   7.087 -0.5377  0.3552 -0.2891
 1153TIP3    H225019   2.390   3.434   7.136  0.8291 -1.0646  0.1447
 1154TIP3   OH225020   2.183   2.899   6.261  0.1745  0.0845  0.5875
 1154TIP3    H125021   2.266   2.933   6.293  0.7599 -2.1508  1.5727
 1154TIP3    H225022   2.181   2.808   6.291 -1.4111 -0.6953 -1.6958
 1155TIP3   OH225023   3.011   1.284   8.121 -0.4611 -0.1278 -0.4310
 1155TIP3    H125024   2.986   1.269   8.030 -1.8806 -0.8253  0.0534
 1155TIP3    H225025   2.933   1.322   8.162 -0.0873 -0.4989  0.6623
 1156TIP3   OH225026   0.417   1.347   8.276 -0.3373  0.1198 -0.7668
 1156TIP3    H125027   0.511   1.365   8.286 -0.6016  1.0144  0.1389
 1156TIP3    H225028   0.413   1.277   8.210  0.9830 -0.1810 -0.5366
 1157TIP3   OH225029   7.028   2.514   7.499  0.2559  0.5305 -0.5814
 1157TIP3    H125030   7.036   2.541   7.408 -0.0396  0.6050 -0.5850
 1157TIP3    H225031   6.966   2.577   7.538 -0.7831 -0.4041 -0.7014
 1158TIP3   OH225032   7.153   4.326   6.750 -0.2945 -0.1663  0.2405
 1158TIP3    H125033   7.242   4.361   6.740 -0.9110  1.0445 -1.1556
 1158TIP3    H225034   7.126   4.303   6.661 -1.9259  0.8641  0.4594
 1159TIP3   OH225035   0.479   0.102   7.303 -0.7329  0.4687 -0.5405
 1159TIP3    H125036   0.397   0.060   7.330  0.8304 -1.9143  0.7162
 1159TIP3    H225037   0.513   0.045   7.234  1.0266  0.0435  0.6283
 1160TIP3   OH225038   2.142   4.544   1.385  0.3279 -0.3441  0.5646
 1160TIP3    H125039   2.077   4.502   1.441  1.0606 -3.6845 -0.9656
 1160TIP3    H225040   2.219   4.554   1.439 -0.5691  1.2347  1.6110
 1161TIP3   OH225041   2.862   2.219   8.107  0.4659  0.1450  0.0755
 1161TIP3    H125042   2.861   2.310   8.137  0.2460 -0.4059  1.8373
 1161TIP3    H225043   2.914   2.220   8.027 -2.2351  2.3466 -1.7632
 1162TIP3   OH225044   1.158   3.327   5.952  0.1405 -0.1169  0.7105
 1162TIP3    H125045   1.094   3.277   6.002 -0.4498 -0.6747 -0.5973
 1162TIP3    H225046   1.221   3.261   5.922  1.2480  0.4021  1.8514
 1163TIP3   OH225047   1.453   2.200   2.221  0.8573  0.0816  0.4108
 1163TIP3    H125048   1.373   2.202   2.274  0.9448 -1.9754  0.6747
 1163TIP3    H225049   1.422   2.218   2.132  0.2532  0.4427  0.6917
 1164TIP3   OH225050   0.492   5.406   0.235  0.5597 -0.4932 -0.1772
 1164TIP3    H125051   0.500   5.381   0.327  0.3034 -0.3643 -0.1203
 1164TIP3    H225052   0.581   5.433   0.210  0.2045  1.6176  0.6638
 1165TIP3   OH225053   0.422   3.649   0.724  0.1195  0.0320 -0.5924
 1165TIP3    H125054   0.330   3.660   0.700 -0.1364 -0.1302  0.3044
 1165TIP3    H225055   0.420   3.610   0.812  1.0466  0.9993 -0.1257
 1166TIP3   OH225056   1.327   2.665   6.776  0.5775 -0.0048 -0.1847
 1166TIP3    H125057   1.409   2.715   6.779  0.8016 -0.4390  1.9270
 1166TIP3    H225058   1.260   2.729   6.798  0.5041  0.0647 -0.6156
 1167TIP3   OH225059   0.104   1.464   8.325 -0.6897  0.4605 -0.6152
 1167TIP3    H125060   0.149   1.538   8.366  0.9615 -1.6123  1.4525
 1167TIP3    H225061   0.173   1.418   8.278 -1.6242 -0.0627 -1.4875
 1168TIP3   OH225062   1.115   6.648   7.688  0.4535 -0.4227  0.5090
 1168TIP3    H125063   1.199   6.609   7.664  0.7216 -0.2638  1.1878
 1168TIP3    H225064   1.130   6.742   7.684  0.6497 -0.3920  1.8083
 1169TIP3   OH225065   1.552   1.962   6.587 -0.4464  0.2338  0.6621
 1169TIP3    H125066   1.549   2.047   6.630  0.9813  0.0810  1.0894
 1169TIP3    H225067   1.526   1.980   6.497  1.4340  1.4077  0.3305
 1170TIP3   OH225068   0.129   3.157   2.698 -0.7592 -0.0985 -0.1626
 1170TIP3    H125069   0.166   3.189   2.616  1.1530 -2.1898 -0.1775
 1170TIP3    H225070   0.053   3.212   2.713 -2.0270 -0.6221 -4.0962
 1171TIP3   OH225071   6.731   6.921   7.387  0.7037 -0.0659  0.5343
 1171TIP3    H125072   6.814   6.967   7.376 -0.3055  1.5370 -0.6277
 1171TIP3    H225073   6.702   6.902   7.298 -1.6616  2.1627  0.7696
 1172TIP3   OH225074   6.657   5.994   1.392 -1.1500  0.3266 -0.0151
 1172TIP3    H125075   6.747   5.975   1.363 -1.5103 -0.2943 -0.7338
 1172TIP3    H225076   6.602   5.935   1.341 -2.2312  2.5175 -1.4436
 1173TIP3   OH225077   2.842   1.693   6.799 -0.4444 -0.7077 -0.1952
 1173TIP3    H125078   2.936   1.711   6.808 -0.9272  1.6752  0.2664
 1173TIP3    H225079   2.806   1.710   6.886 -1.0026 -3.8060  0.2482
 1174TIP3   OH225080   1.219   2.425   7.236  0.1697  0.5369 -0.7477
 1174TIP3    H125081   1.198   2.502   7.184 -0.0206  0.1473 -1.2543
 1174TIP3    H225082   1.309   2.403   7.210  0.2207  0.5818 -0.6100
 1175TIP3   OH225083   1.539   6.912   1.320 -0.1284 -0.2723  0.2470
 1175TIP3    H125084   1.536   6.860   1.239 -0.9395 -0.6774  0.5245
 1175TIP3    H225085   1.474   6.980   1.307 -0.4606 -0.5035  0.6602
 1176TIP3   OH225086   1.070   1.789   7.477  0.2827  0.0666  0.4747
 1176TIP3    H125087   1.003   1.745   7.529 -0.4388  1.3267  0.6311
 1176TIP3    H225088   1.153   1.763   7.518 -0.1161 -1.2974  0.4278
 1177TIP3   OH225089   2.687   3.892   7.298 -0.4273 -0.3466 -0.4310
 1177TIP3    H125090   2.648   3.931   7.376  0.0167  0.3237 -0.5368
 1177TIP3    H225091   2.706   3.801   7.323  0.9725  0.2440  0.6992
 1178TIP3   OH225092   1.568   2.682   1.381 -0.3647 -0.5660 -0.2353
 1178TIP3    H125093   1.645   2.656   1.431  0.5904  0.5441 -1.0945
 1178TIP3    H225094   1.604   2.725   1.303 -1.8123  2.4519  0.6665
 1179TIP3   OH225095   0.303   2.098   6.232 -1.1467 -0.3797 -0.0296
 1179TIP3    H125096   0.369   2.066   6.171 -1.1683 -0.2020 -0.1475
 1179TIP3    H225097   0.351   2.115   6.313 -1.1788 -0.9311  0.1078
 1180TIP3   OH225098   1.639   3.680   6.381  0.2782 -0.4479 -0.4418
 1180TIP3    H125099   1.630   3.775   6.377  0.5401 -0.3556  0.7476
 1180TIP3    H225100   1.640   3.652   6.290 -2.3277  0.4253 -0.7619
 1181TIP3   OH225101   2.397   7.180   7.710  0.8484  0.4253 -0.5278
 1181TIP3    H125102   2.384   7.273   7.690  2.0532  0.5177 -0.8649
 1181TIP3    H225103   2.342   7.134   7.647  2.8008  0.7911 -2.5397
 1182TIP3   OH225104   2.052   2.546   1.196 -0.5083  0.1292 -0.0775
 1182TIP3    H125105   2.083   2.487   1.126 -1.0911  0.8844 -0.9812
 1182TIP3    H225106   1.965   2.512   1.219 -1.4645  1.4964 -1.6182
 1183TIP3   OH225107   7.029   3.345   1.404 -0.1778  0.7470  0.4222
 1183TIP3    H125108   7.099   3.400   1.441 -0.5683  0.4895  1.5541
 1183TIP3    H225109   6.948   3.382   1.440 -0.6056  0.8358 -0.6250
 1184TIP3   OH225110   0.134   2.959   7.099 -0.0768 -0.0668 -0.1845
 1184TIP3    H125111   0.144   3.044   7.056  1.9121  0.3328  1.0111
 1184TIP3    H225112   0.155   2.977   7.191  0.1374 -1.8156  0.1137
 1185TIP3   OH225113   7.217   3.378   6.459 -0.5245  0.7641 -0.2386
 1185TIP3    H125114   7.308   3.405   6.449  0.3867 -2.1802 -0.0790
 1185TIP3    H225115   7.172   3.458   6.487  2.0139  2.2260 -0.2063
 1186TIP3   OH225116   6.833   3.468   6.395  0.0641  0.4715  0.0179
 1186TIP3    H125117   6.849   3.555   6.433 -1.1030 -0.2179  2.1741
 1186TIP3    H225118   6.751   3.478   6.347 -0.7085  0.2925  1.2659
 1187TIP3   OH225119   1.575   1.310   7.386 -0.3184 -0.3330  0.1952
 1187TIP3    H125120   1.623   1.231   7.412  0.8886  0.1265 -0.6503
 1187TIP3    H225121   1.558   1.298   7.293 -0.2659  0.3588  0.0980
 1188TIP3   OH225122   2.983   5.703   2.278 -0.3083 -0.2508  0.0988
 1188TIP3    H125123   2.950   5.672   2.363  1.7621 -0.0283  1.0190
 1188TIP3    H225124   2.987   5.624   2.224 -0.7582 -0.5643  0.5169
 1189TIP3   OH225125   2.163   1.633   8.024 -0.2943 -0.2276  0.2889
 1189TIP3    H125126   2.093   1.590   8.073  0.2394 -0.7702  0.5770
 1189TIP3    H225127   2.205   1.562   7.974  0.5900 -0.0420  0.7678
 1190TIP3   OH225128   4.478   4.387   6.609  0.0555  0.2570  0.0785
 1190TIP3    H125129   4.518   4.321   6.551  0.7399 -0.9985  1.9481
 1190TIP3    H225130   4.550   4.445   6.634 -0.1815  0.6228 -0.0846
 1191TIP3   OH225131   1.374   3.811   7.568  0.1008  0.1465  0.3436
 1191TIP3    H125132   1.466   3.817   7.594  0.4521 -0.2879 -0.7438
 1191TIP3    H225133   1.367   3.874   7.496 -0.4158  0.0681  0.3278
 1192TIP3   OH225134   1.794   4.714   6.921 -0.5445 -0.4914 -0.0978
 1192TIP3    H125135   1.875   4.757   6.947  0.7261 -2.3846 -0.8772
 1192TIP3    H225136   1.744   4.705   7.002  1.6456 -2.6730  1.0675
 1193TIP3   OH225137   4.592   1.661   7.710  0.1099  0.3530  0.3212
 1193TIP3    H125138   4.637   1.590   7.755  1.3341  2.3882  2.4740
 1193TIP3    H225139   4.530   1.696   7.775 -2.9711 -0.8700 -1.8138
 1194TIP3   OH225140   0.950   4.174   6.908 -0.1072  0.2133 -0.0328
 1194TIP3    H125141   1.005   4.247   6.882  1.2639 -0.4840  0.8465
 1194TIP3    H225142   0.936   4.124   6.827  0.0621  0.7185 -0.3730
 1195TIP3   OH225143   3.260   3.790   6.739 -0.3315 -0.0489 -0.3197
 1195TIP3    H125144   3.216   3.814   6.821 -1.5547  0.4593 -1.1087
 1195TIP3    H225145   3.188   3.764   6.680  0.6147 -1.4898 -0.8748
 1196TIP3   OH225146   1.105   0.052   6.687  0.1381 -0.9305 -0.2585
 1196TIP3    H125147   1.075   0.142   6.693 -0.6217 -1.3276  2.9459
 1196TIP3    H225148   1.199   0.057   6.704  0.2029 -0.6753 -0.6981
 1197TIP3   OH225149   2.745   3.682   7.475 -0.3694  0.2174  0.3442
 1197TIP3    H125150   2.784   3.744   7.537  0.6543  0.3617 -0.4281
 1197TIP3    H225151   2.801   3.605   7.481 -0.0931  0.3433 -0.6174
 1198TIP3   OH225152   2.774   4.472   6.493 -0.1895 -0.1908 -0.3535
 1198TIP3    H125153   2.684   4.460   6.464 -0.3700  1.0997 -0.3435
 1198TIP3    H225154   2.820   4.394   6.461 -1.4013 -1.0859  0.0557
 1199TIP3   OH225155   7.093   5.144   0.670  0.7329  0.4188 -0.4296
 1199TIP3    H125156   7.006   5.111   0.649 -0.7685  1.9227  2.9536
 1199TIP3    H225157   7.132   5.166   0.586 -2.5686  0.6690 -1.9822
 1200TIP3   OH225158   3.748   1.964   8.081  0.0147 -0.3169  0.4481
 1200TIP3    H125159   3.770   2.017   8.157  0.4017  1.0055 -0.5808
 1200TIP3    H225160   3.739   2.026   8.010  3.5394 -1.8745 -1.4883
 1201TIP3   OH225161   4.616   4.978   0.763  0.1894  0.7194 -0.2650
 1201TIP3    H125162   4.543   5.031   0.793  1.0402  2.0200 -0.4328
 1201TIP3    H225163   4.689   5.003   0.821  0.0952 -1.8000  1.0244
 1202TIP3   OH225164   2.692   2.434   0.184  0.2957  0.4161  0.4137
 1202TIP3    H125165   2.645   2.414   0.265  1.0730  0.0944  0.7935
 1202TIP3    H225166   2.769   2.482   0.212 -0.9663  2.9757 -0.4200
 1203TIP3   OH225167   1.949   4.485   8.312  0.0893  0.4781  0.4240
 1203TIP3    H125168   1.911   4.398   8.300  1.8494 -0.1611 -0.7474
 1203TIP3    H225169   1.985   4.484   8.401 -0.7356  0.3526  0.7619
 1204TIP3   OH225170   6.673   3.909   6.951 -0.0334  0.4295  0.6585
 1204TIP3    H125171   6.633   3.994   6.930  1.0660  0.7478 -0.1935
 1204TIP3    H225172   6.599   3.849   6.957 -0.6574  0.9705 -1.0919
 1205TIP3   OH225173   0.731   2.951   0.107  0.4986 -0.0065 -0.3588
 1205TIP3    H125174   0.661   2.949   0.042 -0.6417  1.0043  0.8195
 1205TIP3    H225175   0.768   3.039   0.101 -0.9974  0.8238  1.7589
 1206TIP3   OH225176   1.447   3.354   7.647 -0.0918 -0.0250 -0.5761
 1206TIP3    H125177   1.515   3.351   7.714  0.4965  0.6412 -1.1359
 1206TIP3    H225178   1.374   3.401   7.688 -0.0584 -0.3687 -0.1201
 1207TIP3   OH225179   1.648   2.972   7.393  0.9789  0.2351  0.0846
 1207TIP3    H125180   1.720   2.968   7.456  2.5032  0.6838 -1.6050
 1207TIP3    H225181   1.688   2.952   7.309 -0.9971 -0.1241 -0.8023
 1208TIP3   OH225182   0.957   1.420   6.771  0.1149  0.5998 -0.3165
 1208TIP3    H125183   0.987   1.334   6.800 -1.1865  0.6392  1.2397
 1208TIP3    H225184   1.034   1.477   6.779  0.2210  0.2255  1.4764
 1209TIP3   OH225185   6.075   0.226   7.276  0.5826 -0.2567  0.3273
 1209TIP3    H125186   6.048   0.302   7.328  0.6959  0.1231 -0.1622
 1209TIP3    H225187   6.040   0.244   7.188  0.0497 -1.0810  0.3714
 1210TIP3   OH225188   0.209   4.110   0.997 -0.7171 -0.2655 -0.1783
 1210TIP3    H125189   0.178   4.194   0.964 -1.7939 -0.0485  1.3628
 1210TIP3    H225190   0.304   4.117   0.995 -0.7966  0.8385 -0.4190
 1211TIP3   OH225191   6.974   1.672   6.515  0.2084 -0.4261 -0.0118
 1211TIP3    H125192   6.896   1.675   6.459 -0.2951  0.5283  0.7370
 1211TIP3    H225193   6.996   1.579   6.520 -1.5903 -0.8210  0.7387
 1212TIP3   OH225194   3.288   2.894   0.175 -0.1974 -0.6448 -0.0880
 1212TIP3    H125195   3.216   2.891   0.238 -1.2317  0.7790 -1.1657
 1212TIP3    H225196   3.358   2.941   0.220 -0.7987  0.0387  0.1400
 1213TIP3   OH225197   6.235   4.470   1.537 -0.1248  0.2317 -0.2067
 1213TIP3    H125198   6.304   4.507   1.593 -0.8724 -0.4004  1.1471
 1213TIP3    H225199   6.167   4.537   1.536  0.0323  0.3878 -0.6514
 1214TIP3   OH225200   0.869   4.646   0.370  0.0958  0.4335 -0.1000
 1214TIP3    H125201   0.914   4.729   0.389 -0.9960  0.6690  1.5182
 1214TIP3    H225202   0.917   4.581   0.421 -0.0694  0.3312 -0.0767
 1215TIP3   OH225203   0.033   2.111   7.253  0.4578  0.4863  0.2296
 1215TIP3    H125204   0.078   2.054   7.315  1.0970  0.9119  0.1626
 1215TIP3    H225205  -0.056   2.120   7.288  0.3483 -0.5538  0.2335
 1216TIP3   OH225206   1.646   1.114   5.857  0.1097 -0.4058  0.2919
 1216TIP3    H125207   1.651   1.043   5.921  1.5759  0.9716  1.7577
 1216TIP3    H225208   1.725   1.166   5.873 -1.3726  2.0437 -0.1670
 1217TIP3   OH225209   0.298   3.099   8.219  0.5060 -0.1404 -0.4356
 1217TIP3    H125210   0.249   3.146   8.152 -0.2410 -1.6509 -0.9505
 1217TIP3    H225211   0.390   3.118   8.198  0.2602 -0.0750 -1.4928
 1218TIP3   OH225212   7.100   3.549   7.361 -0.3136  0.1682  0.3006
 1218TIP3    H125213   7.077   3.478   7.422  0.0925  0.3735  0.6976
 1218TIP3    H225214   7.140   3.616   7.416  1.6472 -0.3628 -0.4132
 1219TIP3   OH225215   1.952   3.785   0.747 -0.1353  0.2218 -0.5808
 1219TIP3    H125216   1.886   3.790   0.677 -0.1606 -0.1526 -0.5829
 1219TIP3    H225217   1.901   3.779   0.828 -0.1215 -3.2054 -0.7884
 1220TIP3   OH225218   5.937   6.242   1.170  0.4341  0.4850  0.6499
 1220TIP3    H125219   5.965   6.150   1.164 -1.2492  0.0198 -0.3976
 1220TIP3    H225220   5.864   6.242   1.231 -1.9091  0.4999 -2.0197
 1221TIP3   OH225221   6.665   5.803   7.637 -0.3853 -0.0286 -0.0020
 1221TIP3    H125222   6.613   5.867   7.588  0.5892  0.5862 -0.2605
 1221TIP3    H225223   6.637   5.812   7.728 -1.4693 -0.4441 -0.2908
 1222TIP3   OH225224   0.805   3.668   6.766  0.0220  0.5479  0.5279
 1222TIP3    H125225   0.777   3.632   6.682 -4.2985  2.9549  0.7582
 1222TIP3    H225226   0.831   3.758   6.747  0.6731  0.5687  1.4831
 1223TIP3   OH225227   1.563   2.690   7.631 -0.3047  0.4913  0.6493
 1223TIP3    H125228   1.532   2.712   7.543 -1.1392 -1.0365  0.5474
 1223TIP3    H225229   1.503   2.735   7.690 -0.6099  0.3704  0.4349
 1224TIP3   OH225230   1.650   1.850   6.097  0.0296  0.0105  0.1995
 1224TIP3    H125231   1.651   1.801   6.180  1.5904  0.3991  0.4181
 1224TIP3    H225232   1.714   1.805   6.042 -1.7124 -0.8671 -1.1879
 1225TIP3   OH225233   0.345   1.344   7.180 -0.6919 -0.7480  0.4637
 1225TIP3    H125234   0.354   1.249   7.175  2.3023 -0.4369 -0.7207
 1225TIP3    H225235   0.381   1.367   7.265  2.6048 -0.2960 -0.9954
 1226TIP3   OH225236   0.524   2.585   7.228  0.0724  0.2024 -0.5044
 1226TIP3    H125237   0.617   2.585   7.248  0.3641 -0.5525 -1.8166
 1226TIP3    H225238   0.520   2.582   7.133 -1.2949  0.8528 -0.4777
 1227TIP3   OH225239   6.846   1.330   6.998  0.0091 -0.2263 -0.1163
 1227TIP3    H125240   6.845   1.291   7.085 -1.2093 -2.8727 -1.2410
 1227TIP3    H225241   6.938   1.346   6.979  0.1513  2.0751  2.3462
 1228TIP3   OH225242   6.956   2.336   6.090 -0.0877  0.1500  0.1394
 1228TIP3    H125243   6.892   2.387   6.138 -0.1887  0.2385 -0.0879
 1228TIP3    H225244   7.033   2.393   6.083  0.3937 -0.3279  1.3001
 1229TIP3   OH225245   6.767   0.022   8.166 -0.0245 -0.1190  0.1226
 1229TIP3    H125246   6.788   0.022   8.259  4.4352  1.4888 -0.7786
 1229TIP3    H225247   6.800  -0.062   8.134 -2.4800 -1.1292  0.0846
 1230TIP3   OH225248   1.431   1.060   6.573 -0.2978  0.1182 -0.8415
 1230TIP3    H125249   1.403   1.085   6.485 -0.2809  0.9268 -0.6146
 1230TIP3    H225250   1.499   0.994   6.558 -1.2070 -0.6980 -1.4137
 1231TIP3   OH225251   1.535   3.844   6.052 -0.6541 -0.4213  0.1974
 1231TIP3    H125252   1.601   3.895   6.098 -0.1622  0.2537 -1.2374
 1231TIP3    H225253   1.555   3.753   6.074  1.3542 -0.2902 -1.0057
 1232TIP3   OH225254   6.791   5.417   7.298  0.4531 -0.0623  0.2060
 1232TIP3    H125255   6.796   5.488   7.363  0.5584 -0.5529  0.7324
 1232TIP3    H225256   6.830   5.342   7.342  0.6557 -0.3567 -0.4817
 1233TIP3   OH225257   1.799   4.988   6.785 -0.0564  0.1718 -0.6141
 1233TIP3    H125258   1.887   5.007   6.753  1.1859 -1.8986  1.3973
 1233TIP3    H225259   1.747   5.064   6.760  2.8823  2.5731  0.3603
 1234TIP3   OH225260   6.202   0.149   7.727  0.2573 -0.0591 -0.3920
 1234TIP3    H125261   6.188   0.109   7.641 -0.5037  1.7502 -1.1385
 1234TIP3    H225262   6.119   0.136   7.773 -0.1336  0.9944 -0.7855
 1235TIP3   OH225263   1.252   4.222   6.545  0.2744 -0.1996  0.6764
 1235TIP3    H125264   1.307   4.148   6.571 -0.6645 -0.7532  1.1064
 1235TIP3    H225265   1.162   4.191   6.556 -0.1389  0.3090 -1.1616
 1236TIP3   OH225266   2.964   0.288   7.532 -0.4161  0.6412  0.0912
 1236TIP3    H125267   3.052   0.303   7.499  0.2456 -0.9453  1.0762
 1236TIP3    H225268   2.967   0.318   7.623  0.8295 -4.7207  1.9768
 1237TIP3   OH225269   0.010   6.673   1.399 -0.3679 -0.2931 -0.2104
 1237TIP3    H125270   0.021   6.698   1.491  0.2066 -1.0998 -0.0518
 1237TIP3    H225271  -0.082   6.690   1.381 -0.1115  1.4433  0.0288
 1238TIP3   OH225272   1.971   0.560   8.277  0.0269 -0.5184 -0.4344
 1238TIP3    H125273   1.979   0.488   8.214  0.9544 -0.2964 -0.5799
 1238TIP3    H225274   1.877   0.571   8.288 -0.1322 -1.8627 -0.2811
 1239TIP3   OH225275   1.721   4.370   6.979 -0.4106  0.0459 -0.1942
 1239TIP3    H125276   1.702   4.277   6.961  0.6790 -0.0768 -0.8075
 1239TIP3    H225277   1.789   4.392   6.915  1.6236  0.3877  1.9948
 1240TIP3   OH225278   1.552   1.349   5.531 -0.1660  0.9868  0.2016
 1240TIP3    H125279   1.532   1.419   5.469 -1.0353  1.2225  0.7454
 1240TIP3    H225280   1.470   1.301   5.539  0.7345 -0.8483 -1.1053
 1241TIP3   OH225281   1.297   3.958   7.133 -0.1957 -0.3514 -0.2926
 1241TIP3    H125282   1.374   3.946   7.077 -0.4461 -1.1479 -0.4668
 1241TIP3    H225283   1.222   3.943   7.075 -0.4527 -1.5223  0.3262
 1242TIP3   OH225284   2.950   2.806   6.386  0.8379  0.8583 -0.3004
 1242TIP3    H125285   2.865   2.830   6.349  0.3859 -0.6608 -0.2961
 1242TIP3    H225286   3.008   2.797   6.311  1.1319  2.3642 -0.2702
 1243TIP3   OH225287   0.901   2.710   2.356  0.5030 -0.1864 -0.1025
 1243TIP3    H125288   0.815   2.735   2.320  0.1055  0.4347  1.2350
 1243TIP3    H225289   0.918   2.624   2.320 -0.0283  0.2899 -1.5274
 1244TIP3   OH225290   1.541   4.297   7.349  0.0352  0.5107 -0.3995
 1244TIP3    H125291   1.469   4.329   7.295  1.3245  1.5812 -1.5091
 1244TIP3    H225292   1.566   4.372   7.403  1.0864  0.5012 -0.8571
 1245TIP3   OH225293   2.429   2.773   7.204  0.1023 -0.2174  0.6447
 1245TIP3    H125294   2.432   2.795   7.297  1.1793 -0.4018  0.6538
 1245TIP3    H225295   2.514   2.800   7.170 -0.7731  1.0728 -0.5715
 1246TIP3   OH225296   4.732   1.797   7.019  0.1455  0.2729 -0.0527
 1246TIP3    H125297   4.690   1.878   7.047 -0.3431  0.1932 -0.5528
 1246TIP3    H225298   4.755   1.812   6.927 -0.8698 -0.5192 -0.4508
 1247TIP3   OH225299   2.939   2.232   6.094  0.1379  0.0858 -0.2602
 1247TIP3    H125300   2.901   2.147   6.116 -2.2623  1.1374 -0.1631
 1247TIP3    H225301   2.909   2.249   6.004  1.3033  0.4504 -0.5899
 1248TIP3   OH225302   2.142   3.152   6.068 -0.5286  0.5327 -0.0008
 1248TIP3    H125303   2.066   3.128   6.016  0.0406  0.2393 -0.7081
 1248TIP3    H225304   2.169   3.069   6.109 -0.2912  0.5381 -0.1476
 1249TIP3   OH225305   3.457   0.942   7.769  0.0717  0.4151 -0.4476
 1249TIP3    H125306   3.373   0.933   7.724  0.0352  0.0465 -0.3088
 1249TIP3    H225307   3.473   1.036   7.772  0.0065  0.4468 -1.1104
 1250TIP3   OH225308   0.538   1.593   0.928 -0.1433  0.2164  0.3047
 1250TIP3    H125309   0.530   1.544   0.846 -2.4070  0.4505  0.3522
 1250TIP3    H225310   0.626   1.573   0.959  0.1191 -1.2759 -1.2961
 1251TIP3   OH225311   1.328   3.110   0.771  0.1230  0.1019 -0.1363
 1251TIP3    H125312   1.404   3.051   0.772 -1.1450 -1.5734  1.6504
 1251TIP3    H225313   1.338   3.162   0.850  0.3817  1.1828 -0.8765
 1252TIP3   OH225314   2.134   3.208   6.774  0.2133 -0.1369  0.5738
 1252TIP3    H125315   2.047   3.195   6.810  0.3959 -0.4135  0.9189
 1252TIP3    H225316   2.161   3.294   6.808  0.2168 -0.2092  0.7560
 1253TIP3   OH225317   7.256   4.618   0.577 -0.0770 -0.5136  0.7718
 1253TIP3    H125318   7.343   4.649   0.604 -0.6331  1.9471 -0.1706
 1253TIP3    H225319   7.274   4.537   0.528  1.6537 -0.1406  0.7534
 1254TIP3   OH225320   2.566   5.873   8.119 -0.1628  0.4024  0.3288
 1254TIP3    H125321   2.503   5.827   8.174 -0.0580  0.9516  0.9051
 1254TIP3    H225322   2.596   5.807   8.056  0.0425 -0.3440  1.2021
 1255TIP3   OH225323   3.236   3.793   6.059 -0.8623  0.3611  0.1423
 1255TIP3    H125324   3.192   3.868   6.101 -0.4790  1.8071 -1.9532
 1255TIP3    H225325   3.329   3.816   6.060 -0.6545 -0.4818  0.2331
 1256TIP3   OH225326   0.488   3.004   6.923 -0.1015 -0.1541  0.2712
 1256TIP3    H125327   0.523   3.049   7.000 -2.2564 -0.4283  1.4513
 1256TIP3    H225328   0.501   3.066   6.851  1.2736  0.3966  0.9685
 1257TIP3   OH225329   1.904   5.906   7.783  0.0321 -0.4794  0.0819
 1257TIP3    H125330   1.873   5.816   7.795 -0.0128 -0.8707 -2.6292
 1257TIP3    H225331   1.982   5.897   7.728 -0.6891  1.2011 -1.2599
 1258TIP3   OH225332   1.159   1.882   0.852 -0.0353  0.6138  0.8922
 1258TIP3    H125333   1.249   1.914   0.855  0.8373 -1.7319  0.2384
 1258TIP3    H225334   1.111   1.952   0.808  1.4567  1.8643  1.1907
 1259TIP3   OH225335   2.740   4.803   7.204 -0.1949 -0.1466  0.4235
 1259TIP3    H125336   2.767   4.796   7.113 -1.2867 -1.6346  0.1960
 1259TIP3    H225337   2.820   4.788   7.255  0.2193 -0.2973 -0.2719
 1260TIP3   OH225338   0.171   5.261   6.981 -0.1052  0.3493  0.1866
 1260TIP3    H125339   0.169   5.357   6.977 -2.8304  0.2835 -1.3617
 1260TIP3    H225340   0.142   5.232   6.895  2.7733 -1.9273 -0.0731
 1261TIP3   OH225341   2.112   4.826   6.987 -0.2924  0.4509  0.2407
 1261TIP3    H125342   2.038   4.886   7.000  0.8763  1.8729  0.4413
 1261TIP3    H225343   2.145   4.809   7.076 -0.5459 -0.4252  0.1785
 1262TIP3   OH225344   1.835   7.125   7.704 -0.9693  0.2398 -0.3671
 1262TIP3    H125345   1.898   7.109   7.775 -0.1244 -1.9581 -1.5476
 1262TIP3    H225346   1.884   7.107   7.624 -2.8081 -0.5592 -1.3512
 1263TIP3   OH225347   4.319   2.802   7.025  0.1991  0.4321 -0.3797
 1263TIP3    H125348   4.301   2.837   7.113 -0.3551 -2.4503  0.7161
 1263TIP3    H225349   4.248   2.836   6.971 -0.5419  0.7047  0.7458
 1264TIP3   OH225350   2.049   2.515   6.710 -0.1455  0.1360  0.1323
 1264TIP3    H125351   2.144   2.520   6.694  0.0290  1.9616  1.6345
 1264TIP3    H225352   2.013   2.590   6.664 -1.0964 -1.4136 -1.7382
 1265TIP3   OH225353   1.943   5.285   1.299  0.1176 -0.9180  0.5053
 1265TIP3    H125354   1.966   5.196   1.326 -0.3773 -0.9498  0.8286
 1265TIP3    H225355   1.895   5.321   1.374  0.2109 -0.4218  0.3271
 1266TIP3   OH225356   2.069   3.870   1.931  0.3238  0.4288  0.2351
 1266TIP3    H125357   2.007   3.807   1.893 -0.4752  1.9361 -1.0238
 1266TIP3    H225358   2.153   3.825   1.929  0.1624  0.1547 -2.6708
 1267TIP3   OH225359   3.347   3.065   6.075 -0.2568 -0.1108  0.0027
 1267TIP3    H125360   3.385   3.127   6.137  0.3197  1.0495 -1.4672
 1267TIP3    H225361   3.281   3.018   6.125 -0.6684  1.6707  1.1880
 1268TIP3   OH225362   4.006   4.792   0.036  0.3250  0.1816  0.6635
 1268TIP3    H125363   3.942   4.740   0.084  0.0014  0.3667  0.4310
 1268TIP3    H225364   3.963   4.876   0.020  0.8354  0.5142  1.0140
 1269TIP3   OH225365   0.810   2.187   7.473 -0.6382  0.0167  0.9532
 1269TIP3    H125366   0.883   2.139   7.512  0.2113 -0.4161 -1.0747
 1269TIP3    H225367   0.733   2.134   7.493 -0.3575  0.3147  2.8499
 1270TIP3   OH225368   0.410   4.177   6.802  0.1209 -0.1707 -0.4092
 1270TIP3    H125369   0.390   4.087   6.828  0.4878 -0.4189 -0.9776
 1270TIP3    H225370   0.326   4.214   6.775  0.2353 -0.8523 -1.7141
 1271TIP3   OH225371   2.829   6.892   1.839 -0.3651 -0.0508  0.5475
 1271TIP3    H125372   2.789   6.805   1.840 -0.7170  0.1089  0.4687
 1271TIP3    H225373   2.881   6.896   1.919 -1.0818  0.0041  1.0131
 1272TIP3   OH225374   2.816   4.913   0.548 -0.4411 -0.4213 -0.3607
 1272TIP3    H125375   2.729   4.879   0.566 -0.0818 -0.6716  0.9660
 1272TIP3    H225376   2.876   4.848   0.586  0.2848  0.5379  0.1580
 1273TIP3   OH225377   4.629   2.681   1.695  0.4086 -0.1345  0.0881
 1273TIP3    H125378   4.557   2.686   1.758  0.7243 -1.3815  0.5482
 1273TIP3    H225379   4.651   2.773   1.678 -1.3453  0.2763 -0.1392
 1274TIP3   OH225380   2.443   4.788   0.135 -0.4043 -0.1787  0.1999
 1274TIP3    H125381   2.492   4.864   0.104  1.7219 -1.6870 -0.1880
 1274TIP3    H225382   2.398   4.756   0.056 -0.1494 -0.1738  0.0505
 1275TIP3   OH225383   2.893   3.036   8.324 -0.0356  0.6071 -0.0752
 1275TIP3    H125384   2.920   3.029   8.415 -0.6453 -1.7125 -0.0573
 1275TIP3    H225385   2.945   3.109   8.290  2.0905 -0.1366  1.4483
 1276TIP3   OH225386   3.263   2.045   8.020 -0.3248  0.1772  0.7112
 1276TIP3    H125387   3.182   2.007   7.986 -0.5857  1.8333 -0.6110
 1276TIP3    H225388   3.304   1.974   8.070 -0.6652 -1.9071 -1.8608
 1277TIP3   OH225389   1.727   3.813   7.201 -0.0509 -0.1700  0.3456
 1277TIP3    H125390   1.703   3.805   7.293 -0.9105 -0.9650  0.0593
 1277TIP3    H225391   1.761   3.726   7.178  1.6680  0.4819  0.3262
 1278TIP3   OH225392   1.069   2.067   6.248  0.4751 -0.5518 -0.3487
 1278TIP3    H125393   1.003   2.057   6.179  0.9862 -1.4986 -0.7094
 1278TIP3    H225394   1.018   2.083   6.327 -0.1093  1.0610 -1.0169
 1279TIP3   OH225395   3.283   4.581   6.843 -0.7331 -0.0391 -0.3037
 1279TIP3    H125396   3.292   4.625   6.758 -0.9592 -0.2211 -0.4218
 1279TIP3    H225397   3.195   4.605   6.873 -1.3710 -1.4828 -0.9789
 1280TIP3   OH225398   5.613   0.639   8.131 -0.4357  0.1111  0.5404
 1280TIP3    H125399   5.618   0.543   8.138  0.2737  0.1275  0.2837
 1280TIP3    H225400   5.521   0.656   8.109 -0.1254 -0.6540 -1.5334
 1281TIP3   OH225401   1.712   2.269   8.212 -0.1863  0.2008  0.2626
 1281TIP3    H125402   1.744   2.224   8.134 -1.6452  0.1556 -0.3218
 1281TIP3    H225403   1.760   2.229   8.285 -0.4148 -1.2872 -0.3892
 1282TIP3   OH225404   1.924   6.061   7.425  0.0172  0.2546 -0.1748
 1282TIP3    H125405   1.985   6.011   7.372  1.8791  0.7087  1.5173
 1282TIP3    H225406   1.868   5.996   7.466 -0.5163 -0.1714 -1.5487
 1283TIP3   OH225407   0.219   2.951   7.397 -0.2671  0.1948 -0.2615
 1283TIP3    H125408   0.157   2.884   7.426 -0.4667  0.6602  0.3920
 1283TIP3    H225409   0.304   2.908   7.399 -0.4784 -0.2342 -0.4747
 1284TIP3   OH225410   3.509   0.918   7.178  0.2332  0.1028  0.3259
 1284TIP3    H125411   3.523   0.996   7.125  0.4008 -0.5137 -0.5366
 1284TIP3    H225412   3.480   0.952   7.263  2.8528  1.2122  0.8071
 1285TIP3   OH225413   2.573   2.382   7.526  0.6020  0.4115  0.0015
 1285TIP3    H125414   2.562   2.301   7.477 -1.1261 -0.6467  2.0791
 1285TIP3    H225415   2.667   2.387   7.544  0.4292 -2.3502  1.8490
 1286TIP3   OH225416   2.919   3.784   7.671 -0.1987  0.2941 -0.2902
 1286TIP3    H125417   2.973   3.822   7.740  0.6005  0.2709 -0.8898
 1286TIP3    H225418   2.982   3.755   7.605 -0.8616 -1.3132 -0.2216
 1287TIP3   OH225419   3.606   1.728   7.322 -0.2983  0.2491  0.2127
 1287TIP3    H125420   3.542   1.668   7.362 -0.8233  0.8698  0.3044
 1287TIP3    H225421   3.619   1.797   7.386 -2.1850  1.9898 -1.1926
 1288TIP3   OH225422   2.891   4.139   6.941 -0.0546  0.2718  0.3658
 1288TIP3    H125423   2.858   4.178   6.859 -2.4189 -2.5402 -0.1158
 1288TIP3    H225424   2.816   4.143   7.001  0.2788 -1.6382  0.9353
 1289TIP3   OH225425   1.759   1.949   7.765  0.2192  0.3475  0.5302
 1289TIP3    H125426   1.700   1.935   7.691 -0.1859 -0.8752  1.0697
 1289TIP3    H225427   1.809   1.867   7.771  1.8318  1.2954  0.2000
 1290TIP3   OH225428   2.660   3.235   1.448  0.5234  0.2472 -0.4660
 1290TIP3    H125429   2.731   3.171   1.456  1.2454  1.1778  0.7900
 1290TIP3    H225430   2.698   3.307   1.396  0.2889  0.4588 -0.3467
 1291TIP3   OH225431   3.058   4.825   6.598  0.3860  0.0492  0.5318
 1291TIP3    H125432   3.052   4.774   6.517 -0.4445  0.4556  0.3305
 1291TIP3    H225433   3.151   4.824   6.620  0.6727  0.2688 -0.6454
 1292TIP3   OH225434   2.886   2.572   7.093  0.1142 -0.4563 -0.1501
 1292TIP3    H125435   2.925   2.520   7.022 -0.7897 -0.3819 -0.7107
 1292TIP3    H225436   2.823   2.629   7.049  0.1143  0.1545  0.6248
 1293TIP3   OH225437   4.161   3.077   7.270  0.0618  0.0344  0.0230
 1293TIP3    H125438   4.183   2.990   7.303  0.3705  0.0849 -0.0437
 1293TIP3    H225439   4.116   3.062   7.188 -0.3192 -0.0791  0.2532
 1294TIP3   OH225440   4.316   3.155   6.849 -0.5492 -0.0387 -0.1355
 1294TIP3    H125441   4.337   3.239   6.809 -0.4216 -0.6779 -1.4161
 1294TIP3    H225442   4.391   3.136   6.906 -0.7244  0.8521  0.4045
 1295TIP3   OH225443   1.048   1.240   6.457  0.1384  0.2604  0.0565
 1295TIP3    H125444   1.087   1.180   6.520 -1.7854 -0.9783  0.1193
 1295TIP3    H225445   1.083   1.211   6.372  2.2539  1.5491  0.4647
 1296TIP3   OH225446   0.962   1.269   7.018  0.2736  0.2930 -0.7051
 1296TIP3    H125447   1.039   1.295   7.069  0.2324 -1.6116  0.3798
 1296TIP3    H225448   0.910   1.350   7.010  3.0663  1.9747 -2.7787
 1297TIP3   OH225449   2.828   3.421   7.724  0.1919 -0.2713  0.1333
 1297TIP3    H125450   2.734   3.432   7.712  0.3557  0.9371 -0.0797
 1297TIP3    H225451   2.838   3.395   7.816 -0.5661 -3.2958 -0.5948
 1298TIP3   OH225452   3.472   2.069   8.332  0.7945  0.3523 -0.2722
 1298TIP3    H125453   3.443   1.978   8.324 -0.5486  0.4407  2.7927
 1298TIP3    H225454   3.567   2.064   8.342  0.6216 -0.7953  0.8820
 1299TIP3   OH225455   2.875   2.611   6.568 -0.1476  0.1871 -0.5416
 1299TIP3    H125456   2.904   2.654   6.648  0.3835  0.1239 -0.6980
 1299TIP3    H225457   2.902   2.671   6.498  0.2582 -0.2211 -0.7377
 1300TIP3   OH225458   1.420   1.167   0.071  0.7923  0.4533  0.1806
 1300TIP3    H125459   1.359   1.164  -0.003  0.8709  1.2212  0.0761
 1300TIP3    H225460   1.408   1.083   0.115 -0.3593  0.6007  0.1714
 1301TIP3   OH225461   7.097   3.206   6.899  0.6380 -0.2741  0.2541
 1301TIP3    H125462   7.117   3.288   6.854 -1.5331  0.5710  0.7725
 1301TIP3    H225463   7.008   3.217   6.931  0.1905 -2.9537  0.0976
 1302TIP3   OH225464   2.659   4.080   6.328 -0.0181  0.2829  0.4199
 1302TIP3    H125465   2.571   4.084   6.290 -0.9833  0.7971  2.6375
 1302TIP3    H225466   2.667   3.990   6.361  0.5723  0.0278 -0.3944
 1303TIP3   OH225467   0.782   0.201   7.721  0.4792 -0.7823 -0.3723
 1303TIP3    H125468   0.741   0.147   7.653 -1.3500  0.1769 -0.0611
 1303TIP3    H225469   0.797   0.140   7.794  0.6638 -1.3949 -0.9163
 1304TIP3   OH225470   3.198   3.006   7.940  0.3116  0.1217  0.4661
 1304TIP3    H125471   3.257   2.983   7.868  1.4835 -0.7611  1.6783
 1304TIP3    H225472   3.172   2.923   7.978 -0.1058  0.5919  1.2234
 1305TIP3   OH225473   3.373   4.021   7.035 -0.1845  0.1843 -0.0699
 1305TIP3    H125474   3.464   4.047   7.052 -0.6707  0.7399  1.7221
 1305TIP3    H225475   3.332   4.099   6.999 -0.8460  0.9950  2.4080
 1306TIP3   OH225476   1.308   4.178   6.908 -0.6771 -0.4581 -0.0061
 1306TIP3    H125477   1.273   4.092   6.886  1.4517 -0.8904 -1.8367
 1306TIP3    H225478   1.390   4.184   6.860  1.4939  0.7669  3.6168
 1307TIP3   OH225479   2.360   2.444   6.016 -0.2318  0.2173 -0.0295
 1307TIP3    H125480   2.279   2.458   6.064  0.0226 -1.6622  1.0084
 1307TIP3    H225481   2.333   2.401   5.934 -0.2961 -0.4959  0.3587
 1308TIP3   OH225482   2.891   5.627   7.793  0.0250 -0.1505  0.2530
 1308TIP3    H125483   2.877   5.571   7.870 -1.2053  1.4000  1.1884
 1308TIP3    H225484   2.971   5.675   7.813  0.9927 -1.4188 -0.4798
 1309TIP3   OH225485   2.735   2.341   6.787 -0.5323  0.0112 -0.2446
 1309TIP3    H125486   2.808   2.303   6.739 -0.1103  0.9060 -0.3248
 1309TIP3    H225487   2.666   2.352   6.721 -1.0862 -1.7297  0.0341
 1310TIP3   OH225488   2.019   5.489   0.994 -0.3242 -0.0696  0.6867
 1310TIP3    H125489   2.010   5.545   1.071  0.1525  0.2678  0.4968
 1310TIP3    H225490   1.936   5.443   0.988 -0.4989  0.1811  1.1885
 1311TIP3   OH225491   1.469   2.431   7.098  0.0023  0.7416 -0.2578
 1311TIP3    H125492   1.441   2.438   7.007  1.0907  1.9413 -0.5180
 1311TIP3    H225493   1.516   2.348   7.103 -0.7298  0.3004 -0.5910
 1312TIP3   OH225494   1.623   3.469   0.889  0.0421  0.4963  0.0959
 1312TIP3    H125495   1.599   3.546   0.838 -0.9992  1.1185  1.5124
 1312TIP3    H225496   1.705   3.439   0.850  0.0717  1.8834 -0.9315
 1313TIP3   OH225497   1.525   4.483   6.803  0.3497 -0.1201  0.1867
 1313TIP3    H125498   1.449   4.498   6.858  0.9319  0.8865  0.7202
 1313TIP3    H225499   1.589   4.440   6.860  1.0522  1.1626  0.3957
 1314TIP3   OH225500   3.082   1.162   7.446  0.1387  0.2117  0.3284
 1314TIP3    H125501   3.140   1.177   7.372 -0.3440  0.2181 -0.0561
 1314TIP3    H225502   2.998   1.140   7.406 -0.0542 -0.0569  0.8770
 1315TIP3   OH225503   1.655   1.070   0.642  0.1989 -0.2227  0.1693
 1315TIP3    H125504   1.742   1.079   0.603  0.9377 -2.9951  1.0625
 1315TIP3    H225505   1.647   1.145   0.701  1.3587  0.8701 -1.0193
 1316TIP3   OH225506   2.742   3.385   7.176  0.3555  0.0672 -0.0696
 1316TIP3    H125507   2.656   3.401   7.136 -0.7168 -0.5319  1.8967
 1316TIP3    H225508   2.724   3.320   7.244  2.2831  0.3214  0.7036
 1317TIP3   OH225509   1.268   3.721   6.289 -0.9080 -0.1751 -0.4571
 1317TIP3    H125510   1.332   3.729   6.359 -0.2746  0.9295 -1.1452
 1317TIP3    H225511   1.249   3.811   6.263 -1.9493 -0.5288 -0.9777
 1318TIP3   OH225512   3.732   2.968   6.774 -0.2855  0.3039 -0.3201
 1318TIP3    H125513   3.682   2.921   6.708  1.2479 -0.6218 -0.8572
 1318TIP3    H225514   3.822   2.936   6.763  0.0197  0.2479  2.1210
 1319TIP3   OH225515   2.484   3.985   7.774  0.2136 -0.3342  0.3325
 1319TIP3    H125516   2.537   4.031   7.838 -0.5312  0.7602  0.1869
 1319TIP3    H225517   2.535   3.908   7.750  2.3245  1.3863 -0.7994
 1320TIP3   OH225518   5.091   4.381   6.737  0.6232 -0.0148  0.0983
 1320TIP3    H125519   5.053   4.311   6.790 -0.4662  0.2369 -0.3308
 1320TIP3    H225520   5.015   4.425   6.698  1.4337 -0.8849 -2.5577
 1321TIP3   OH225521   1.306   0.745   7.428  0.0616  0.0413 -0.0595
 1321TIP3    H125522   1.367   0.737   7.355 -0.6063 -0.9710 -0.5162
 1321TIP3    H225523   1.238   0.805   7.397 -1.9605 -2.8960 -1.4986
 1322TIP3   OH225524   2.020   3.934   1.109 -0.2113  0.0830 -0.0890
 1322TIP3    H125525   2.066   3.870   1.162 -1.0936 -0.4747  0.0094
 1322TIP3    H225526   1.958   3.883   1.057  0.3318  0.6638 -1.3343
 1323TIP3   OH225527   1.935   3.526   6.676  0.5242 -0.1273 -0.6310
 1323TIP3    H125528   1.859   3.468   6.686  0.5325 -0.8660 -4.1689
 1323TIP3    H225529   1.944   3.537   6.581  1.5730  4.3292 -0.1215
 1324TIP3   OH225530   1.190   1.845   6.046  0.6619 -0.3724 -0.3940
 1324TIP3    H125531   1.111   1.793   6.064  0.5092  0.0365  0.1382
 1324TIP3    H225532   1.159   1.936   6.044  0.7049 -0.3811 -2.5928
 1325TIP3   OH225533   1.250   3.148   7.564  0.0670  0.5090 -0.4135
 1325TIP3    H125534   1.271   3.118   7.475  0.6134 -1.7458  0.4176
 1325TIP3    H225535   1.331   3.187   7.596  0.7149 -1.1682  0.0423
 1326TIP3   OH225536   6.768   1.444   0.928  1.3344 -0.0625  0.3095
 1326TIP3    H125537   6.815   1.527   0.943  1.6915 -0.1978 -0.0435
 1326TIP3    H225538   6.679   1.462   0.957  1.0585  0.8949 -1.0411
 1327TIP3   OH225539   3.103   2.652   0.079 -0.6895  0.2712  0.2296
 1327TIP3    H125540   3.164   2.705   0.028  0.3714 -1.6724 -0.5906
 1327TIP3    H225541   3.141   2.651   0.167 -0.3436  0.3186  0.0822
 1328TIP3   OH225542   6.608   2.002   6.743 -0.7349 -0.3797  0.2480
 1328TIP3    H125543   6.660   1.944   6.688 -2.4779 -1.7944  0.0350
 1328TIP3    H225544   6.589   1.950   6.821 -1.1751  0.3782  0.6453
 1329TIP3   OH225545   4.873   0.937   7.433  0.0464  0.1335  0.5154
 1329TIP3    H125546   4.825   0.871   7.383  0.2458 -0.0311  0.5411
 1329TIP3    H225547   4.921   0.987   7.367  1.3720 -0.9413  0.6532
 1330TIP3   OH225548   0.894   2.807   2.066  0.7653 -0.1702  0.6850
 1330TIP3    H125549   0.985   2.791   2.041  0.4670  0.2357 -0.7080
 1330TIP3    H225550   0.888   2.778   2.157  2.3704  0.1214  0.8883
 1331TIP3   OH225551   2.434   2.055   6.895 -0.2542 -0.0126  0.8800
 1331TIP3    H125552   2.455   2.079   6.804  0.2683 -0.5771  0.8471
 1331TIP3    H225553   2.519   2.049   6.938 -0.2773 -2.9062  0.6076
 1332TIP3   OH225554   0.294   2.952   0.879 -0.2541 -0.1652  0.4820
 1332TIP3    H125555   0.351   3.025   0.855  0.2442 -1.0451 -1.0802
 1332TIP3    H225556   0.355   2.883   0.906 -0.5498 -1.0827 -1.1166
 1333TIP3   OH225557   2.902   4.514   0.652 -0.4451  0.1538  0.4046
 1333TIP3    H125558   2.985   4.470   0.632 -1.1463 -0.3527 -1.5384
 1333TIP3    H225559   2.924   4.607   0.654  0.1580  0.0323 -0.2547
 1334TIP3   OH225560   1.492   2.494   0.773 -0.5312 -0.5013 -0.7123
 1334TIP3    H125561   1.432   2.420   0.756  0.8047 -1.8912  0.5205
 1334TIP3    H225562   1.544   2.501   0.693  0.4567 -1.9909 -0.2209
 1335TIP3   OH225563   0.851   1.816   0.630  0.4347 -0.0538 -0.3801
 1335TIP3    H125564   0.931   1.835   0.582  0.3032 -0.8174 -0.9062
 1335TIP3    H225565   0.843   1.721   0.627  0.2255 -0.0926  0.8250
 1336TIP3   OH225566   1.824   3.550   7.105 -0.1957 -0.1106 -0.2468
 1336TIP3    H125567   1.752   3.560   7.042  0.8203 -0.1445 -1.4370
 1336TIP3    H225568   1.838   3.456   7.110 -0.0956 -0.0918 -0.1749
 1337TIP3   OH225569   3.485   2.442   1.804  0.3553 -0.3007  0.1296
 1337TIP3    H125570   3.441   2.431   1.888 -0.2475 -0.8084 -0.2506
 1337TIP3    H225571   3.523   2.356   1.786  0.4255 -0.2110 -0.1561
 1338TIP3   OH225572   0.107   1.457   0.140 -0.0491  0.0101 -0.0265
 1338TIP3    H125573   0.065   1.431   0.222 -0.6903  0.1187 -0.3225
 1338TIP3    H225574   0.097   1.381   0.083  0.0790  0.0715 -0.1320
 1339TIP3   OH225575   1.010   3.522   5.829  0.1151  0.0493 -0.2804
 1339TIP3    H125576   1.064   3.456   5.872  1.0810  0.8524 -0.2456
 1339TIP3    H225577   1.052   3.537   5.745  0.2525  1.0564 -0.0382
 1340TIP3   OH225578   3.353   4.467   7.252 -0.1583 -0.4780  0.3763
 1340TIP3    H125579   3.292   4.540   7.249 -1.4713 -1.5797 -0.8964
 1340TIP3    H225580   3.297   4.389   7.250  1.2255 -1.5168  1.3347
 1341TIP3   OH225581   2.404   3.741   6.534  0.3379  0.4203  0.0889
 1341TIP3    H125582   2.411   3.657   6.580  0.4739  0.7568  0.6838
 1341TIP3    H225583   2.362   3.799   6.597  0.1311  0.7685 -0.3670
 1342TIP3   OH225584   2.211   2.753   6.585  0.3961  0.1537  0.2716
 1342TIP3    H125585   2.119   2.774   6.606  0.4713  0.2549  0.5002
 1342TIP3    H225586   2.207   2.712   6.498 -0.1675 -2.2936  1.4016
 1343TIP3   OH225587   2.972   2.798   0.582 -0.0022  0.3893 -0.4393
 1343TIP3    H125588   2.899   2.847   0.620  1.4068  1.5856  0.8254
 1343TIP3    H225589   2.943   2.707   0.580 -1.3978  0.8155  0.3354
 1344TIP3   OH225590   1.323   3.273   6.641 -0.6531  0.0951 -0.5872
 1344TIP3    H125591   1.239   3.257   6.684 -0.0994  1.5430  1.1127
 1344TIP3    H225592   1.335   3.199   6.582 -3.4269  0.1912 -1.3381
 1345TIP3   OH225593   2.363   3.669   6.235  0.1685  0.2345 -0.2816
 1345TIP3    H125594   2.396   3.663   6.325 -1.5683 -0.5350  0.3291
 1345TIP3    H225595   2.427   3.622   6.182  1.3820  0.9860  0.4967
 1346TIP3   OH225596   1.912   4.477   6.804 -0.0553 -0.0525 -0.5473
 1346TIP3    H125597   1.897   4.459   6.711 -3.0335  2.5457 -0.6363
 1346TIP3    H225598   1.886   4.568   6.816  0.9073 -0.1336  2.7373
 1347TIP3   OH225599   2.728   4.102   8.476 -0.3817  0.0963  0.1410
 1347TIP3    H125600   2.665   4.057   8.420 -2.4958  0.5375  2.0838
 1347TIP3    H225601   2.687   4.103   8.562  0.7064  3.5335  0.6992
 1348TIP3   OH225602   0.561   3.588   0.063  0.1182  0.3397  0.1149
 1348TIP3    H125603   0.552   3.495   0.042 -0.2591  1.0606 -3.1995
 1348TIP3    H225604   0.648   3.612   0.031 -0.5390  1.5453 -0.8067
 1349TIP3   OH225605   5.688   1.394   7.409  0.0065 -0.0120  0.0436
 1349TIP3    H125606   5.770   1.347   7.394 -0.2522 -1.0957  1.8850
 1349TIP3    H225607   5.716   1.480   7.442  0.4346  0.5467 -1.7062
 1350TIP3   OH225608   3.832   1.185   0.097  0.2321 -0.2813 -0.0392
 1350TIP3    H125609   3.873   1.107   0.134 -3.7417 -2.9395 -1.0165
 1350TIP3    H225610   3.855   1.183   0.004 -0.8284 -0.9170 -0.2867
 1351TIP3   OH225611   3.015   2.221   0.986  0.5764  0.3232 -0.6399
 1351TIP3    H125612   2.967   2.155   1.036  0.9714  0.5210  0.0039
 1351TIP3    H225613   3.107   2.202   1.004  0.6767  1.4746  0.0998
 1352TIP3   OH225614   1.438   1.717   6.753 -0.0540  0.3587 -0.1913
 1352TIP3    H125615   1.503   1.712   6.682  1.5164 -1.9721  1.3178
 1352TIP3    H225616   1.467   1.791   6.807  0.2265  0.5402 -0.5897
 1353TIP3   OH225617   3.144   5.878   6.456 -0.2202 -0.7571  0.2351
 1353TIP3    H125618   3.136   5.926   6.374 -1.1652 -2.1807 -0.5205
 1353TIP3    H225619   3.238   5.881   6.476 -0.2853  1.5602  0.3253
 1354TIP3   OH225620   1.623   1.160   8.112 -0.2571 -0.5242  0.3743
 1354TIP3    H125621   1.634   1.144   8.018  0.0136 -1.5274  0.5662
 1354TIP3    H225622   1.703   1.206   8.138  1.0963 -2.9722  0.6976
 1355TIP3   OH225623   1.511   4.157   7.867 -0.2014  0.0317  0.1708
 1355TIP3    H125624   1.542   4.205   7.790 -0.1919 -0.5490 -0.1920
 1355TIP3    H225625   1.529   4.065   7.846  0.1749 -0.0897  1.0418
 1356TIP3   OH225626   3.359   3.215   1.017 -0.2650 -0.1068 -0.3239
 1356TIP3    H125627   3.394   3.283   0.959  0.6128 -1.1545 -1.0459
 1356TIP3    H225628   3.267   3.207   0.991  0.3419 -1.2072 -2.2296
 1357TIP3   OH225629   0.923   0.490   1.404  0.7269  0.0761  0.6176
 1357TIP3    H125630   0.988   0.456   1.465  2.1146  0.4997 -0.5993
 1357TIP3    H225631   0.946   0.582   1.392  0.1472  0.1354 -0.1201
 1358TIP3   OH225632   3.128   1.988   6.757  0.3508 -0.1502 -0.0686
 1358TIP3    H125633   3.149   1.896   6.746  1.0586  0.2226 -2.0897
 1358TIP3    H225634   3.070   1.991   6.834 -2.0684 -2.6072 -1.6947
 1359TIP3   OH225635   5.619   5.097   7.923  0.5732  0.4743  0.4858
 1359TIP3    H125636   5.599   5.030   7.988  0.1305 -0.8010 -0.9137
 1359TIP3    H225637   5.630   5.178   7.973 -0.5782 -0.3137  2.0493
 1360TIP3   OH225638   0.494   1.240   7.956 -0.0571  0.2908  0.0911
 1360TIP3    H125639   0.508   1.330   7.986 -2.6706  1.2917 -1.5055
 1360TIP3    H225640   0.551   1.187   8.012  1.7159  2.9435  0.9074
 1361TIP3   OH225641   1.230   3.383   1.283 -0.8294  0.2510 -0.1760
 1361TIP3    H125642   1.296   3.387   1.214 -1.8029  0.6982 -1.1030
 1361TIP3    H225643   1.255   3.451   1.345 -0.5692  0.5954 -0.6539
 1362TIP3   OH225644   2.330   2.469   6.740  0.0190  0.2080  0.6617
 1362TIP3    H125645   2.408   2.473   6.684 -0.0623 -0.4433  0.4959
 1362TIP3    H225646   2.365   2.472   6.829  0.1902  0.6023  0.5845
 1363TIP3   OH225647   4.222   3.008   6.649 -0.5046  1.0408 -0.4334
 1363TIP3    H125648   4.251   3.072   6.713  1.1498  0.9779 -1.0965
 1363TIP3    H225649   4.255   3.041   6.565  1.7579 -1.4238 -0.6058
 1364TIP3   OH225650   1.067   4.107   7.447  0.2051 -0.0531  0.2094
 1364TIP3    H125651   1.036   4.146   7.364 -0.5774  1.1845  1.0655
 1364TIP3    H225652   1.142   4.162   7.472  0.8260 -0.8029  0.0197
 1365TIP3   OH225653   2.030   0.961   7.187  0.7359  0.0087 -0.4166
 1365TIP3    H125654   2.062   0.886   7.236 -0.4975 -1.0348 -1.2075
 1365TIP3    H225655   2.035   0.934   7.095  0.2290  0.8653 -0.7046
 1366TIP3   OH225656   2.078   1.029   8.316 -0.1378  0.1516 -0.2345
 1366TIP3    H125657   2.098   0.956   8.258 -1.2769 -0.0589 -0.3661
 1366TIP3    H225658   1.990   1.011   8.349  0.0149  0.8933  0.6027
 1367TIP3   OH225659   2.091   2.296   7.751 -0.2167  0.5629 -0.5787
 1367TIP3    H125660   2.155   2.334   7.691  0.7159  0.0123  0.0415
 1367TIP3    H225661   2.118   2.204   7.759 -1.7102  0.0590 -1.1134
 1368TIP3   OH225662   3.125   2.053   0.009  0.1421  0.3905  0.5324
 1368TIP3    H125663   3.109   2.027  -0.082 -1.3903  0.9286  0.6279
 1368TIP3    H225664   3.180   2.131   0.003  0.0381  0.4308  0.0634
 1369TIP3   OH225665   0.351   2.829   8.164 -0.0660  0.1992 -0.9671
 1369TIP3    H125666   0.379   2.823   8.073 -0.4394  2.2566 -1.2278
 1369TIP3    H225667   0.356   2.922   8.185 -0.2938 -0.2197  1.0144
 1370TIP3   OH225668   0.835   7.279   6.671 -0.1613 -0.4128 -0.2138
 1370TIP3    H125669   0.874   7.307   6.588 -0.4356 -0.2322 -0.2849
 1370TIP3    H225670   0.909   7.262   6.729 -0.0001  2.5876  0.5545
 1371TIP3   OH225671   0.383   4.021   8.124  0.9205 -0.4809 -0.2683
 1371TIP3    H125672   0.434   3.981   8.195  1.1413 -1.1534 -0.7997
 1371TIP3    H225673   0.392   3.960   8.051 -0.7197 -0.6425 -0.3486
 1372TIP3   OH225674   4.291   4.707   6.885  0.0001 -0.4747 -0.2828
 1372TIP3    H125675   4.217   4.743   6.933  0.1659 -0.1765 -0.2496
 1372TIP3    H225676   4.354   4.682   6.953  0.5605  0.6649 -0.3765
 1373TIP3   OH225677   1.931   4.459   1.508  0.3963  0.1094 -0.0715
 1373TIP3    H125678   1.912   4.462   1.602  0.8870 -1.8222  0.0984
 1373TIP3    H225679   1.848   4.433   1.468  0.6273 -0.6804 -0.0310
 1374TIP3   OH225680   1.997   2.946   1.048 -0.4260 -0.3559 -0.3187
 1374TIP3    H125681   1.938   3.005   1.095  0.1832  0.0160 -0.0146
 1374TIP3    H225682   2.041   2.896   1.117 -1.5429 -1.7660 -0.6003
 1375TIP3   OH225683   1.341   3.660   7.858  0.6147 -0.5056 -0.6004
 1375TIP3    H125684   1.411   3.682   7.797 -0.4826 -0.3108 -1.7990
 1375TIP3    H225685   1.376   3.683   7.944  1.8508 -0.0003 -1.2323
 1376TIP3   OH225686   1.964   1.915   7.979  0.2269  0.0950 -0.4699
 1376TIP3    H125687   2.007   1.906   8.064  2.3697  0.5800 -1.4788
 1376TIP3    H225688   1.965   2.009   7.962  1.0113 -0.1151 -1.6270
 1377TIP3   OH225689   2.241   1.049   0.307 -0.4162  0.0660  0.7985
 1377TIP3    H125690   2.307   1.093   0.252  0.3842 -0.8418  1.0218
 1377TIP3    H225691   2.246   1.094   0.391  0.1358 -0.1862  0.9063
 1378TIP3   OH225692   1.677   0.507   1.514  0.3498  0.0698 -0.2303
 1378TIP3    H125693   1.593   0.474   1.484  0.3965 -0.0721 -0.2085
 1378TIP3    H225694   1.673   0.499   1.610  0.1774  0.5775 -0.1917
 1379TIP3   OH225695   1.312   4.488   6.567  0.1100  0.5249 -0.0851
 1379TIP3    H125696   1.325   4.505   6.473  1.4421 -0.1470 -0.0251
 1379TIP3    H225697   1.265   4.405   6.570  1.2185 -0.1118 -0.1282
 1380TIP3   OH225698   5.672   1.084   7.310  0.2113  0.6173  0.9801
 1380TIP3    H125699   5.595   1.124   7.350 -1.6639 -2.0555  0.2271
 1380TIP3    H225700   5.667   1.108   7.217  0.7588  1.1217  1.0765
 1381TIP3   OH225701   2.732   3.476   6.225 -0.4844 -0.4569  0.0062
 1381TIP3    H125702   2.653   3.428   6.248 -1.1572  0.4932 -0.2886
 1381TIP3    H225703   2.704   3.567   6.217  0.4786 -0.2152 -0.8556
 1382TIP3   OH225704   2.834   1.165   7.304 -0.0713 -0.2119 -0.0764
 1382TIP3    H125705   2.781   1.124   7.235 -1.9506  2.0445 -0.0429
 1382TIP3    H225706   2.852   1.253   7.271 -0.7363  0.7989  2.1520
 1383TIP3   OH225707   2.257   3.540   0.210 -0.8253 -0.0054  0.2673
 1383TIP3    H125708   2.313   3.477   0.165  1.1565  2.2122 -0.5477
 1383TIP3    H225709   2.216   3.491   0.281  0.1035 -2.3333 -0.7608
 1384TIP3   OH225710   1.971   0.585   7.898 -0.3003  1.3097 -0.2852
 1384TIP3    H125711   2.051   0.597   7.847 -0.3362  0.5850 -0.5223
 1384TIP3    H225712   1.989   0.509   7.953 -1.4007  0.1086 -1.5253
 1385TIP3   OH225713   0.487   2.916   6.353 -0.3083 -0.0199 -0.2176
 1385TIP3    H125714   0.430   2.846   6.321  0.0069 -0.1054 -0.6020
 1385TIP3    H225715   0.431   2.993   6.356 -0.3963 -0.0640 -0.7597
 1386TIP3   OH225716   2.447   1.079   8.138  0.1933  0.4926  0.2850
 1386TIP3    H125717   2.417   1.059   8.050  1.3070 -0.4660  0.1161
 1386TIP3    H225718   2.532   1.037   8.145 -0.4796 -0.6197  2.2749
 1387TIP3   OH225719   1.021   3.667   7.905  0.3402 -0.5658 -0.1441
 1387TIP3    H125720   1.101   3.703   7.943 -0.0251 -1.1850  1.2089
 1387TIP3    H225721   1.040   3.664   7.811  1.0704  1.3888 -0.0879
 1388TIP3   OH225722   1.863   2.328   7.052 -0.5952 -0.1117  0.7272
 1388TIP3    H125723   1.918   2.279   6.991 -0.9670  0.4677 -0.0872
 1388TIP3    H225724   1.923   2.387   7.097 -0.7079  1.4518 -1.0924
 1389TIP3   OH225725   7.082   2.807   2.206  0.1450 -0.2753 -0.2075
 1389TIP3    H125726   7.103   2.898   2.183 -0.5160 -0.7844 -3.0580
 1389TIP3    H225727   6.987   2.807   2.218  0.1569 -0.5811 -0.1181
 1390TIP3   OH225728   4.697   1.302   6.850  0.3820 -0.0998  0.1538
 1390TIP3    H125729   4.757   1.231   6.827  1.1111  0.6067 -0.1272
 1390TIP3    H225730   4.660   1.276   6.934  1.1212 -0.5095  0.3527
 1391TIP3   OH225731   0.236   7.030   8.078 -0.0484  0.3947 -0.4262
 1391TIP3    H125732   0.156   7.070   8.044 -0.5858  0.8190  1.2741
 1391TIP3    H225733   0.299   7.037   8.006 -1.8181 -0.8476 -2.1304
 1392TIP3   OH225734   0.523   3.497   7.316  0.8019  0.3716  0.0550
 1392TIP3    H125735   0.574   3.417   7.306  0.9171  0.0361  3.0279
 1392TIP3    H225736   0.438   3.477   7.277  2.0243  0.0868 -2.5863
 1393TIP3   OH225737   3.206   3.327   1.315  0.0197 -0.2194 -0.6233
 1393TIP3    H125738   3.282   3.291   1.362  0.8763 -1.4066 -2.8212
 1393TIP3    H225739   3.239   3.407   1.274  0.7394 -1.7504 -3.2104
 1394TIP3   OH225740   4.243   3.761   1.325  0.1012 -0.8261  0.2286
 1394TIP3    H125741   4.168   3.704   1.345 -0.4649  0.3010  1.3693
 1394TIP3    H225742   4.309   3.702   1.289 -0.8774 -2.0316  0.3833
 1395TIP3   OH225743   0.394   5.745   7.178  0.3106  0.1035  1.1145
 1395TIP3    H125744   0.459   5.782   7.118  0.0574  0.0988  0.8358
 1395TIP3    H225745   0.326   5.812   7.184  0.9109  0.6210  2.3496
 1396TIP3   OH225746   3.576   4.835   0.348  0.0745  0.2138 -0.1707
 1396TIP3    H125747   3.666   4.841   0.315 -0.3996  0.7669 -1.3850
 1396TIP3    H225748   3.521   4.864   0.275 -1.0411  0.8227  0.8850
 1397TIP3   OH225749   4.934   6.083   7.117 -0.0586  0.1997  0.0774
 1397TIP3    H125750   5.007   6.035   7.156  0.8278  0.8084 -0.8128
 1397TIP3    H225751   4.962   6.100   7.027 -1.5780 -0.1417 -0.4733
 1398TIP3   OH225752   4.742   0.803   7.695  0.7434 -0.1534  0.2227
 1398TIP3    H125753   4.723   0.726   7.749 -0.0473 -0.9727 -1.1942
 1398TIP3    H225754   4.824   0.782   7.651 -0.2074 -0.7913 -1.2552
 1399TIP3   OH225755   6.399   0.842   7.308  0.1417 -0.0378  0.2414
 1399TIP3    H125756   6.423   0.932   7.284 -0.0683  0.1587  0.7557
 1399TIP3    H225757   6.311   0.830   7.273  1.0070 -0.7839 -1.7092
 1400TIP3   OH225758   1.396   4.841   0.764  0.0651  0.4569  0.4259
 1400TIP3    H125759   1.307   4.860   0.733 -1.2933 -1.8780  2.6585
 1400TIP3    H225760   1.435   4.928   0.779 -1.2285  1.5239 -2.1457
 1401TIP3   OH225761   3.777   3.494   7.029 -0.5606 -0.0013 -0.3266
 1401TIP3    H125762   3.701   3.439   7.049 -0.2247 -0.2901  0.1631
 1401TIP3    H225763   3.832   3.440   6.972  0.3306 -0.6218  1.0957
 1402TIP3   OH225764   3.078   2.897   1.424 -0.2771  0.1807 -0.3622
 1402TIP3    H125765   3.079   2.896   1.520  1.8806  3.3421 -0.2563
 1402TIP3    H225766   2.996   2.942   1.401 -1.2803 -1.4574 -0.0681
 1403TIP3   OH225767   1.604   3.780   7.698 -0.2950 -0.2847 -0.1224
 1403TIP3    H125768   1.686   3.802   7.654  0.1095  0.5217  1.0214
 1403TIP3    H225769   1.628   3.770   7.790 -1.4340 -0.3091  0.1762
 1404TIP3   OH225770   3.652   3.181   7.310  0.5307  0.0161 -0.0200
 1404TIP3    H125771   3.698   3.139   7.237  1.6929 -1.2686  1.4278
 1404TIP3    H225772   3.627   3.267   7.276  1.3632 -0.4327 -1.8173
 1405TIP3   OH225773   1.366   3.335   6.208 -0.3385 -0.3555  0.3839
 1405TIP3    H125774   1.360   3.292   6.123 -0.2708  1.1114 -0.3848
 1405TIP3    H225775   1.451   3.309   6.243  0.8381  1.1861 -1.2191
 1406TIP3   OH225776   2.709   5.862   0.076  0.6448  0.5319  0.2309
 1406TIP3    H125777   2.675   5.859  -0.014  0.3970 -0.8676  0.3601
 1406TIP3    H225778   2.798   5.895   0.066  0.6370  0.3414 -0.5460
 1407TIP3   OH225779   2.099   2.173   7.305  0.2106 -0.0161 -0.2510
 1407TIP3    H125780   2.044   2.199   7.379 -0.2556 -0.4944 -0.4218
 1407TIP3    H225781   2.156   2.248   7.289  0.4467  0.0112  0.7170
 1408TIP3   OH225782   0.819   1.037   7.895 -0.1321 -0.4226  0.3938
 1408TIP3    H125783   0.830   1.126   7.931  0.6483 -0.5857  0.5624
 1408TIP3    H225784   0.774   0.989   7.965 -2.7714  0.4788 -0.6374
 1409TIP3   OH225785   1.914   3.495   6.421  0.2566  0.1716 -0.8325
 1409TIP3    H125786   1.823   3.523   6.417  0.2187  0.5607  1.6114
 1409TIP3    H225787   1.961   3.556   6.364 -0.6541  1.6724 -0.0042
 1410TIP3   OH225788   1.851   1.985   6.520  0.8959 -0.3555 -0.4321
 1410TIP3    H125789   1.884   1.942   6.441  1.2836 -0.0491 -0.4366
 1410TIP3    H225790   1.840   2.076   6.494 -0.3817 -0.5333 -0.5674
 1411TIP3   OH225791   7.258   0.737   6.793  0.3873 -0.1062  0.1881
 1411TIP3    H125792   7.214   0.651   6.796  1.0117 -0.4001  0.9677
 1411TIP3    H225793   7.237   0.777   6.877  2.4524 -0.6711  0.9984
 1412TIP3   OH225794   0.878   2.140   6.420  0.4315  0.1456  0.3958
 1412TIP3    H125795   0.863   2.132   6.514  1.0530  0.0899  0.4934
 1412TIP3    H225796   0.835   2.222   6.396 -0.9111 -0.5380  0.4694
 1413TIP3   OH225797   2.806   2.490   6.187 -0.1273 -0.3655  0.0829
 1413TIP3    H125798   2.867   2.426   6.224  0.5144 -0.5713 -1.2939
 1413TIP3    H225799   2.720   2.464   6.220  0.2849 -1.2001  0.5133
 1414TIP3   OH225800   3.870   2.234   1.855 -0.2236  0.6265 -0.1245
 1414TIP3    H125801   3.858   2.164   1.919  0.1939 -0.5692 -1.3295
 1414TIP3    H225802   3.926   2.298   1.899  1.0517 -0.7588  0.2933
 1415TIP3   OH225803   3.293   3.270   6.620 -0.2500 -0.7699  0.0761
 1415TIP3    H125804   3.386   3.260   6.598 -0.6455  0.4012 -2.3739
 1415TIP3    H225805   3.255   3.184   6.602  0.2318 -1.0465  0.3753
 1416TIP3   OH225806   1.736   0.645   7.356 -0.5273  0.4354  0.5138
 1416TIP3    H125807   1.717   0.593   7.278  1.0082  0.6178 -0.0171
 1416TIP3    H225808   1.688   0.727   7.343  0.4146  0.8140 -0.6759
 1417TIP3   OH225809   1.836   2.979   7.209 -0.1047  0.1902 -0.3862
 1417TIP3    H125810   1.909   3.040   7.216 -1.7167  2.0415  1.1313
 1417TIP3    H225811   1.858   2.907   7.269 -0.3871  1.6860  1.5661
 1418TIP3   OH225812   3.067   4.620   0.402  0.3776 -0.8175  0.4422
 1418TIP3    H125813   3.100   4.652   0.486 -1.1693  0.9397  0.4215
 1418TIP3    H225814   3.111   4.675   0.337  0.1065 -0.8569  0.2236
 1419TIP3   OH225815   2.183   1.841   7.426  0.4375 -0.3249  0.4462
 1419TIP3    H125816   2.146   1.774   7.368  0.4720 -0.9003  1.0820
 1419TIP3    H225817   2.107   1.888   7.461  0.4612  0.7419 -0.9094
 1420TIP3   OH225818   2.484   6.451   6.503  0.1201  0.2772  0.3757
 1420TIP3    H125819   2.538   6.519   6.543  1.4080  0.4462 -1.5999
 1420TIP3    H225820   2.459   6.487   6.418 -0.4492 -1.1007 -0.0526
 1421TIP3   OH225821   4.528   6.990   0.197  0.5992  0.3074 -0.1109
 1421TIP3    H125822   4.570   6.906   0.211 -0.2585 -0.2938 -1.0456
 1421TIP3    H225823   4.528   7.001   0.102 -2.1501 -0.1481 -0.2084
 1422TIP3   OH225824   5.703   2.711   6.546  0.3843  0.0128  0.1963
 1422TIP3    H125825   5.688   2.728   6.639 -0.7681  0.7781 -0.1217
 1422TIP3    H225826   5.616   2.700   6.509  0.7250  1.4729 -1.1224
 1423TIP3   OH225827   6.443   0.652   0.601 -0.1395 -0.4733 -0.0037
 1423TIP3    H125828   6.446   0.559   0.622 -2.3435 -0.8102 -0.9377
 1423TIP3    H225829   6.365   0.660   0.545 -0.3517  2.0383  0.6328
 1424TIP3   OH225830   6.253   5.073   7.876  0.3742  0.1480 -0.4123
 1424TIP3    H125831   6.163   5.071   7.842 -1.0130 -1.6138  3.1747
 1424TIP3    H225832   6.250   5.136   7.948  1.7885 -0.6368  0.3504
 1425TIP3   OH225833   4.543   1.356   7.383 -0.0452 -0.1128  0.0988
 1425TIP3    H125834   4.492   1.427   7.422  0.0638 -0.4807  0.9234
 1425TIP3    H225835   4.619   1.347   7.440 -0.0515 -0.8793 -0.0128
 1426TIP3   OH225836   4.208   0.593   8.144 -0.4460 -0.6016  0.0343
 1426TIP3    H125837   4.159   0.599   8.226 -0.2030 -0.7064  0.1898
 1426TIP3    H225838   4.285   0.648   8.158 -1.2302  0.7033 -0.7345
 1427TIP3   OH225839   1.170   5.815   7.928 -0.0900  0.0137  0.4062
 1427TIP3    H125840   1.106   5.881   7.900  0.8871  1.5364  1.6475
 1427TIP3    H225841   1.118   5.748   7.972 -0.9077  0.9467  0.8800
 1428TIP3   OH225842   4.745   0.589   0.050  0.8196 -0.4231 -0.5033
 1428TIP3    H125843   4.679   0.632   0.104 -0.1091 -1.2081 -0.9969
 1428TIP3    H225844   4.768   0.655  -0.016 -0.4655 -0.6157 -1.1510
 1429TIP3   OH225845   2.636   3.858   6.861 -0.7412  0.3078 -0.0484
 1429TIP3    H125846   2.566   3.908   6.817  0.5955  0.6541 -1.8421
 1429TIP3    H225847   2.676   3.806   6.791  1.0662  0.4327  0.8629
 1430TIP3   OH225848   2.564   1.629   7.887  0.2456  0.3604  0.4213
 1430TIP3    H125849   2.529   1.693   7.949  0.8196 -0.0871  1.2145
 1430TIP3    H225850   2.496   1.562   7.881  0.1139  0.4921  0.4274
 1431TIP3   OH225851   4.973   3.351   6.901 -0.5562  0.1844  0.4012
 1431TIP3    H125852   5.022   3.409   6.843 -0.7811 -0.3070 -0.2843
 1431TIP3    H225853   4.976   3.395   6.986  1.3992 -0.0302  0.4710
 1432TIP3   OH225854   6.593   0.760   7.108 -0.0911  1.1135 -0.7263
 1432TIP3    H125855   6.585   0.726   7.019 -0.1348 -0.1791 -0.2391
 1432TIP3    H225856   6.509   0.741   7.149  0.0073  1.4999 -0.3360
 1433TIP3   OH225857   2.154   3.365   7.440  0.4079 -0.7916 -0.2171
 1433TIP3    H125858   2.173   3.377   7.533  1.7408 -1.0334 -0.4585
 1433TIP3    H225859   2.060   3.346   7.437  0.6145 -2.0926  1.1891
 1434TIP3   OH225860   4.191   3.023   6.197  0.3359  0.0140  0.3838
 1434TIP3    H125861   4.111   3.002   6.245 -0.6397  3.9971  0.6716
 1434TIP3    H225862   4.251   3.056   6.264  0.9642  0.3425 -0.3313
 1435TIP3   OH225863   4.233   1.729   8.111 -0.3823 -0.0232 -0.0624
 1435TIP3    H125864   4.193   1.645   8.091 -1.4551  0.1331  1.3843
 1435TIP3    H225865   4.177   1.768   8.178  0.7409  1.3420  0.1212
 1436TIP3   OH225866   5.014   3.787   6.488  0.0690  0.6188 -0.1012
 1436TIP3    H125867   5.012   3.814   6.396  2.0461  0.9439 -0.0616
 1436TIP3    H225868   5.016   3.691   6.485 -0.5890  0.6085 -0.3689
 1437TIP3   OH225869   6.004   5.874   1.812 -0.4467 -0.0650  0.5713
 1437TIP3    H125870   6.064   5.802   1.832 -1.5233 -0.0514  4.3394
 1437TIP3    H225871   6.057   5.953   1.823 -0.6122 -0.1248  1.8954
 1438TIP3   OH225872   4.060   6.357   7.420  0.3338 -0.5461 -0.2134
 1438TIP3    H125873   4.118   6.357   7.344  0.0961 -0.3066 -0.3944
 1438TIP3    H225874   4.087   6.433   7.471  0.8806 -1.0441  0.2375
 1439TIP3   OH225875   3.431   1.601   6.110 -0.4306 -0.3532  0.7829
 1439TIP3    H125876   3.395   1.526   6.159 -0.2214 -0.2195  1.1383
 1439TIP3    H225877   3.501   1.563   6.057  0.4872 -0.1934  1.8804
 1440TIP3   OH225878   3.823   4.972   7.928  0.2671  0.3850  1.0181
 1440TIP3    H125879   3.800   5.017   7.847 -1.8724 -0.3009  1.2127
 1440TIP3    H225880   3.909   4.933   7.911 -0.6291 -0.6438 -1.2814
 1441TIP3   OH225881   3.192   0.008   7.045 -0.1124  0.1044  0.1336
 1441TIP3    H125882   3.216  -0.073   7.090  0.3442 -0.8202 -1.7132
 1441TIP3    H225883   3.205  -0.012   6.952  0.2761  2.4018 -0.3268
 1442TIP3   OH225884   4.382   1.572   7.546 -0.1475  0.0667 -0.0778
 1442TIP3    H125885   4.453   1.616   7.592  0.3751 -0.2907 -0.5379
 1442TIP3    H225886   4.303   1.617   7.576  0.1649 -0.2995  1.3259
 1443TIP3   OH225887   2.904   3.038   6.583  0.2133  0.3896  0.2710
 1443TIP3    H125888   2.838   3.038   6.515 -0.8396  1.1719  1.2784
 1443TIP3    H225889   2.977   2.988   6.546 -0.7104  0.0090 -1.0542
 1444TIP3   OH225890   3.532   1.708   8.170 -0.0910 -0.5838 -0.3237
 1444TIP3    H125891   3.602   1.703   8.235 -1.1751 -2.1099  0.7542
 1444TIP3    H225892   3.577   1.706   8.086  1.2327 -0.2001  0.3663
 1445TIP3   OH225893   4.232   0.669   7.287  0.1139  0.2151 -0.3029
 1445TIP3    H125894   4.186   0.749   7.263 -0.1375  0.0450 -0.3894
 1445TIP3    H225895   4.316   0.675   7.242  0.1011  0.4369 -0.2957
 1446TIP3   OH225896   3.777   5.829   6.129 -0.7485  0.4121 -0.5546
 1446TIP3    H125897   3.816   5.786   6.205 -1.3987 -0.5632 -0.7696
 1446TIP3    H225898   3.765   5.758   6.065  0.0180  1.2520 -1.6671
 1447TIP3   OH225899   1.497   5.526   0.343 -0.0796 -0.2297 -1.0654
 1447TIP3    H125900   1.421   5.585   0.339 -0.2240 -0.4335 -1.3167
 1447TIP3    H225901   1.557   5.558   0.276  0.8603  1.0391  0.3428
 1448TIP3   OH225902   2.387   2.785   6.824 -0.0117 -0.0987 -0.0145
 1448TIP3    H125903   2.415   2.873   6.798 -2.5103  1.2096  1.5386
 1448TIP3    H225904   2.329   2.756   6.754 -2.0569  1.0110  1.1763
 1449TIP3   OH225905   6.461   3.217   6.510  0.4824  0.1831 -0.1055
 1449TIP3    H125906   6.394   3.176   6.455  0.4677  0.6872 -0.4657
 1449TIP3    H225907   6.419   3.229   6.595  1.0181 -2.0805  0.5140
 1450TIP3   OH225908   4.777   6.189   8.069 -0.0052  0.0295  0.1987
 1450TIP3    H125909   4.797   6.225   7.983 -0.9455  0.1978  0.0452
 1450TIP3    H225910   4.694   6.231   8.094 -0.2586 -0.7809  0.7376
 1451TIP3   OH225911   4.212   1.051   7.492  0.0445 -0.0578  0.3988
 1451TIP3    H125912   4.286   0.991   7.505  0.1662  0.1861  0.8131
 1451TIP3    H225913   4.229   1.124   7.551  1.1209  1.5395 -1.8180
 1452TIP3   OH225914   6.088   0.912   7.339 -0.7151  0.1124 -0.1177
 1452TIP3    H125915   6.119   0.844   7.399  1.2440  0.2126 -0.9846
 1452TIP3    H225916   6.110   0.994   7.383  0.9366  0.1887 -1.0347
 1453TIP3   OH225917   6.257   4.124   6.681 -0.2097  0.3563 -0.0438
 1453TIP3    H125918   6.324   4.060   6.656 -0.3281  0.4595 -0.6466
 1453TIP3    H225919   6.291   4.208   6.650 -0.9306  0.3124 -0.9809
 1454TIP3   OH225920   6.765   1.307   1.568 -0.1077  0.8609 -0.2153
 1454TIP3    H125921   6.726   1.394   1.556 -1.3862 -0.0821 -3.3705
 1454TIP3    H225922   6.824   1.297   1.493 -1.0993 -1.5480 -0.7298
 1455TIP3   OH225923   2.906   4.801   7.851  0.4154 -0.2942  0.0902
 1455TIP3    H125924   2.825   4.845   7.877  0.4598 -0.6201  0.7666
 1455TIP3    H225925   2.910   4.813   7.756 -0.4165 -0.2675  0.0586
 1456TIP3   OH225926   5.062   0.758   7.245 -0.5111 -0.2371 -0.5363
 1456TIP3    H125927   4.967   0.759   7.255 -0.8251 -0.7504 -3.0292
 1456TIP3    H225928   5.093   0.826   7.304 -2.5952  1.2225 -1.0661
 1457TIP3   OH225929   1.879   2.061   0.049 -0.0331 -0.1027  0.2929
 1457TIP3    H125930   1.896   1.966   0.046  1.0519  0.0803  0.2534
 1457TIP3    H225931   1.927   2.095  -0.026 -1.3039  0.3526 -0.3114
 1458TIP3   OH225932   5.519   5.357   0.723  0.5838 -0.3307  0.3238
 1458TIP3    H125933   5.507   5.262   0.733 -1.4845  0.0357  1.7263
 1458TIP3    H225934   5.563   5.383   0.804 -0.6197  0.1557  0.8429
 1459TIP3   OH225935   2.908   2.545   0.318  0.6257 -0.1189  0.1352
 1459TIP3    H125936   3.002   2.535   0.300  0.7887  0.5488  0.6040
 1459TIP3    H225937   2.901   2.538   0.413  0.4129  1.4434  0.2497
 1460TIP3   OH225938   2.216   3.441   7.178  0.0347 -0.1736  0.2132
 1460TIP3    H125939   2.188   3.531   7.194 -0.0727 -0.1667 -0.0107
 1460TIP3    H225940   2.194   3.395   7.259  2.0813  0.4673  1.1679
 1461TIP3   OH225941   2.826   4.701   6.653 -0.1963  0.1716  0.0461
 1461TIP3    H125942   2.817   4.629   6.591 -0.0752 -0.0734  0.3112
 1461TIP3    H225943   2.904   4.748   6.624  0.2316 -0.3193  0.3886
 1462TIP3   OH225944   3.226   1.675   7.488  0.4269 -0.0887 -0.2038
 1462TIP3    H125945   3.131   1.663   7.480  0.4941 -0.3950 -0.5922
 1462TIP3    H225946   3.262   1.591   7.459  0.8105 -0.0060  0.0455
 1463TIP3   OH225947   4.229   2.758   6.010  0.3332 -0.1714 -0.4976
 1463TIP3    H125948   4.271   2.805   5.938  0.3471  1.9387  0.8372
 1463TIP3    H225949   4.144   2.732   5.976  0.2297  1.0539 -1.1721
 1464TIP3   OH225950   4.828   2.135   7.363  0.4254 -0.1962  0.0790
 1464TIP3    H125951   4.754   2.188   7.391  0.2799 -0.7544  0.7641
 1464TIP3    H225952   4.873   2.111   7.444  0.3894 -1.2655 -0.2097
 1465TIP3   OH225953   4.826   5.795   7.918 -0.2965  0.7967  0.2101
 1465TIP3    H125954   4.751   5.806   7.859 -0.5436 -2.4713 -0.1703
 1465TIP3    H225955   4.902   5.795   7.859 -0.2200  1.2845  0.3058
 1466TIP3   OH225956   5.954   5.651   1.643  0.3252 -0.3367  0.5222
 1466TIP3    H125957   6.023   5.714   1.665 -0.0758  0.0965  0.5547
 1466TIP3    H225958   5.989   5.601   1.570  0.0179  0.9794 -0.5341
 1467TIP3   OH225959   5.152   6.548   1.097 -0.3063 -0.4291 -0.1161
 1467TIP3    H125960   5.194   6.539   1.182 -0.4242 -0.4832 -0.0631
 1467TIP3    H225961   5.197   6.486   1.041  0.0802 -0.0645 -0.2127
 1468TIP3   OH225962   3.967   4.588   6.806  0.3701 -0.5078  0.8542
 1468TIP3    H125963   3.941   4.499   6.830  0.1179 -1.3360 -2.2313
 1468TIP3    H225964   4.047   4.604   6.856  1.5233 -3.2559 -0.0152
 1469TIP3   OH225965   3.537   4.195   6.035  0.0494 -0.1117 -0.0321
 1469TIP3    H125966   3.451   4.237   6.025 -0.2207 -0.7639 -0.5108
 1469TIP3    H225967   3.600   4.267   6.030 -0.4433  0.3202 -0.1030
 1470TIP3   OH225968   5.951   4.645   6.752  0.3190 -0.3022  0.0088
 1470TIP3    H125969   5.965   4.651   6.657  0.7473  0.8693  0.1444
 1470TIP3    H225970   5.940   4.551   6.768  0.4413 -0.5292 -1.1742
 1471TIP3   OH225971   2.233   4.619   6.806 -0.2548 -0.0079  0.3210
 1471TIP3    H125972   2.189   4.648   6.726  1.6859  2.3482  0.0620
 1471TIP3    H225973   2.182   4.658   6.877 -0.4905  0.0142  0.1408
 1472TIP3   OH225974   2.409   3.018   6.327 -0.6307  0.0007  0.1375
 1472TIP3    H125975   2.446   3.042   6.242 -2.5519  0.9938 -0.4322
 1472TIP3    H225976   2.431   3.092   6.384 -1.6246  0.5647 -0.1878
 1473TIP3   OH225977   1.494   2.855   7.152 -0.4182 -0.3318  0.0907
 1473TIP3    H125978   1.411   2.888   7.116  0.8147  2.2149 -0.5136
 1473TIP3    H225979   1.553   2.852   7.077  0.6569 -0.0813  0.9249
 1474TIP3   OH225980   2.746   0.036   7.215 -0.0454  0.0036 -0.6215
 1474TIP3    H125981   2.838   0.065   7.216 -0.3504  1.0152 -0.5883
 1474TIP3    H225982   2.716   0.049   7.305  0.3380 -2.2226 -0.1529
 1475TIP3   OH225983   5.871   7.062   7.424 -0.7404  0.5155 -1.0082
 1475TIP3    H125984   5.865   7.139   7.479  0.5057 -0.6749  0.8312
 1475TIP3    H225985   5.917   7.092   7.345  1.2802  1.2673  0.4221
 1476TIP3   OH225986   4.720   0.005   6.699  0.2768 -0.2680 -0.3477
 1476TIP3    H125987   4.793   0.005   6.637 -0.3047  0.3616 -1.0460
 1476TIP3    H225988   4.749  -0.052   6.770  1.5091  0.1029 -0.5369
 1477TIP3   OH225989   2.318   0.035   0.263 -0.4809 -0.2799  0.2245
 1477TIP3    H125990   2.399   0.086   0.263 -0.1904 -0.7418  0.2952
 1477TIP3    H225991   2.346  -0.055   0.276 -1.1144 -0.2683  1.9066
 1478TIP3   OH225992   4.260   1.753   6.032 -0.8555  0.4783  0.3577
 1478TIP3    H125993   4.337   1.801   6.065 -0.9526  2.3778 -2.0204
 1478TIP3    H225994   4.187   1.814   6.044 -0.9323  1.1699 -2.9943
 1479TIP3   OH225995   2.557   2.382   0.407 -0.3882 -0.5737  0.0203
 1479TIP3    H125996   2.553   2.416   0.496  0.6852 -0.5206  0.0556
 1479TIP3    H225997   2.582   2.290   0.418  0.1933 -0.4490 -0.2437
 1480TIP3   OH225998   3.289   0.876   0.529  0.3922 -0.3937  0.0562
 1480TIP3    H125999   3.200   0.844   0.543 -0.3914  1.6423 -0.0516
 1480TIP3    H226000   3.286   0.916   0.442  1.1000  0.6609  0.5085
 1481TIP3   OH226001   1.125   4.709   7.522  0.6294  0.0595 -0.4120
 1481TIP3    H126002   1.189   4.679   7.587  2.3494 -0.4435 -2.3152
 1481TIP3    H226003   1.139   4.803   7.516  0.5362  0.0922 -0.1364
 1482TIP3   OH226004   2.613   0.758   6.584 -0.1123  0.5730  0.1661
 1482TIP3    H126005   2.549   0.820   6.549 -0.1207  0.0693 -0.7230
 1482TIP3    H226006   2.695   0.779   6.539 -0.2055 -0.3137 -0.4289
 1483TIP3   OH226007   3.249   6.118   6.851 -0.2560 -0.3732  0.7119
 1483TIP3    H126008   3.225   6.070   6.931  0.3106 -2.7440 -0.4886
 1483TIP3    H226009   3.176   6.101   6.790 -0.3190  0.7846  0.4579
 1484TIP3   OH226010   3.132   2.828   6.634 -0.4989  0.1792 -0.3840
 1484TIP3    H126011   3.050   2.785   6.659 -0.6681  2.1738  2.7030
 1484TIP3    H226012   3.190   2.817   6.710  2.6400 -2.3283 -2.9951
 1485TIP3   OH226013   3.403   5.166   6.172  0.1754  0.4625  0.1552
 1485TIP3    H126014   3.350   5.219   6.112 -0.1936  0.5418  0.5476
 1485TIP3    H226015   3.491   5.168   6.135  0.1274  1.2082  0.0758
 1486TIP3   OH226016   5.383   1.911   2.050 -0.6461  0.1850 -0.0645
 1486TIP3    H126017   5.319   1.898   1.980 -1.0369  0.1990  0.2955
 1486TIP3    H226018   5.411   2.002   2.040 -1.2379  0.4020  0.2520
 1487TIP3   OH226019   6.349   2.258   6.371 -0.2571 -0.5410 -0.3524
 1487TIP3    H126020   6.326   2.206   6.294  0.3224  1.3084 -1.7974
 1487TIP3    H226021   6.443   2.271   6.364 -0.5350  1.5381 -0.5569
 1488TIP3   OH226022   3.933   2.297   6.978  0.4116 -0.2811 -0.2989
 1488TIP3    H126023   3.883   2.297   6.896  0.5224  1.1478 -0.3773
 1488TIP3    H226024   3.869   2.319   7.045  0.3059 -1.5276  0.0131
 1489TIP3   OH226025   4.061   7.228   1.215 -0.7207  0.6499 -0.3460
 1489TIP3    H126026   4.147   7.192   1.194 -1.2420 -0.3590 -0.7912
 1489TIP3    H226027   4.052   7.215   1.309 -0.7100  0.0407 -0.4278
 1490TIP3   OH226028   3.290   4.671   6.589 -0.1900  0.0985  0.0013
 1490TIP3    H126029   3.229   4.637   6.524 -0.3661  0.9128 -0.2730
 1490TIP3    H226030   3.366   4.700   6.537 -0.0758  0.1906  0.2168
 1491TIP3   OH226031   1.959   2.705   6.923 -0.0262 -0.0940  0.0324
 1491TIP3    H126032   2.021   2.737   6.988 -0.4258 -1.0781  0.9100
 1491TIP3    H226033   2.009   2.642   6.871  0.2712  0.6362 -0.5854
 1492TIP3   OH226034   4.650   2.367   6.809  0.5484 -0.0913 -0.0178
 1492TIP3    H126035   4.579   2.399   6.865  1.5035 -0.9814  1.7777
 1492TIP3    H226036   4.721   2.429   6.824  0.8002 -0.3248 -0.2647
 1493TIP3   OH226037   4.567   1.975   7.132  0.0752  0.0739 -0.1007
 1493TIP3    H126038   4.574   1.990   7.226 -0.9263  0.5037 -0.0813
 1493TIP3    H226039   4.606   2.053   7.092 -0.1210  0.2061 -0.0355
 1494TIP3   OH226040   2.446   2.583   6.373 -0.0160 -0.0021  0.0484
 1494TIP3    H126041   2.492   2.592   6.456  1.4258  1.3263 -0.8659
 1494TIP3    H226042   2.354   2.600   6.394  0.4704  1.2014  1.2170
 1495TIP3   OH226043   3.895   1.877   7.730 -0.1653 -0.0795  0.4745
 1495TIP3    H126044   3.983   1.894   7.697 -0.5883  0.4321 -0.4033
 1495TIP3    H226045   3.909   1.837   7.816  0.9412 -1.4814 -0.3415
 1496TIP3   OH226046   1.577   3.705   0.731  0.5637  0.0911 -0.5535
 1496TIP3    H126047   1.485   3.705   0.704  0.3629  0.6150  0.1174
 1496TIP3    H226048   1.614   3.784   0.691  1.3082 -1.3192 -2.7415
 1497TIP3   OH226049   4.190   1.780   7.365  0.1667  0.0956 -0.0514
 1497TIP3    H126050   4.169   1.690   7.340  0.5818  0.2582 -0.9984
 1497TIP3    H226051   4.264   1.804   7.310 -0.5411  1.3533 -0.4807
 1498TIP3   OH226052   2.409   1.825   0.499  0.6434 -0.2962 -0.4922
 1498TIP3    H126053   2.494   1.806   0.459  0.3541 -1.5455 -0.5178
 1498TIP3    H226054   2.431   1.870   0.581  1.3517 -1.0030 -0.2849
 1499TIP3   OH226055   2.745   4.085   8.111 -0.1848 -0.2272 -0.3785
 1499TIP3    H126056   2.754   4.168   8.158 -2.4689  0.4964 -1.1664
 1499TIP3    H226057   2.780   4.103   8.024 -1.9021  0.3097 -0.9681
 1500TIP3   OH226058   1.764   2.304   0.035  0.5158 -0.3250  0.0016
 1500TIP3    H126059   1.849   2.349   0.026  0.8350 -0.8885  0.1654
 1500TIP3    H226060   1.787   2.213   0.052 -0.1399 -0.6491 -0.8141
 1501TIP3   OH226061   0.289   2.797   6.921 -0.0509 -0.2156 -0.0744
 1501TIP3    H126062   0.223   2.833   6.979 -0.1893 -3.0216  1.5988
 1501TIP3    H226063   0.362   2.859   6.925 -0.8593  0.6492  1.4796
 1502TIP3   OH226064   5.128   5.193   7.254  0.3491 -0.0566 -0.3404
 1502TIP3    H126065   5.060   5.247   7.212 -0.8110 -0.5874  0.8033
 1502TIP3    H226066   5.080   5.140   7.317  1.7314 -1.1295 -0.1780
 1503TIP3   OH226067   4.696   2.564   7.224 -0.2420  0.0272  0.3270
 1503TIP3    H126068   4.674   2.634   7.285 -1.4337  1.1360 -1.3353
 1503TIP3    H226069   4.780   2.591   7.186  0.1690 -0.3397  0.9486
 1504TIP3   OH226070   4.321   3.173   1.668  0.0562  0.1001  0.3775
 1504TIP3    H126071   4.322   3.256   1.716 -0.0704  0.3214  0.0034
 1504TIP3    H226072   4.411   3.160   1.640  0.7300 -1.4867  3.1343
 1505TIP3   OH226073   4.433   2.841   6.496 -0.7420  0.5338  0.2236
 1505TIP3    H126074   4.355   2.878   6.537  0.4169  0.6440  2.3996
 1505TIP3    H226075   4.454   2.764   6.549  2.3604  2.2106  1.5708
 1506TIP3   OH226076   4.275   4.151   6.660 -0.6833 -0.3973 -0.4221
 1506TIP3    H126077   4.350   4.189   6.707 -0.1164 -2.8608  0.7371
 1506TIP3    H226078   4.199   4.175   6.713 -0.6225  1.2530 -1.0576
 1507TIP3   OH226079   3.582   3.344   6.648 -0.3343  0.1046 -0.3547
 1507TIP3    H126080   3.541   3.349   6.561 -0.4433  3.3456 -0.1430
 1507TIP3    H226081   3.675   3.354   6.631 -0.2639 -0.1971 -0.1557
 1508TIP3   OH226082   4.834   2.565   6.846  0.0932 -0.3608 -0.2552
 1508TIP3    H126083   4.824   2.660   6.833  3.3263  0.1621  0.4017
 1508TIP3    H226084   4.845   2.556   6.940  2.4962 -1.0315 -0.5698
 1509TIP3   OH226085   0.117   4.071   8.096 -0.0161 -0.4901 -0.1314
 1509TIP3    H126086   0.212   4.059   8.094  0.2838  1.7656 -0.4640
 1509TIP3    H226087   0.082   3.995   8.049  1.6684 -0.7478 -1.0082
 1510TIP3   OH226088   2.958   5.154   0.526  0.7031 -0.2542  0.2436
 1510TIP3    H126089   2.943   5.247   0.546  1.7600 -0.6444  2.9829
 1510TIP3    H226090   2.878   5.110   0.555 -0.0550 -0.1797 -1.6189
 1511TIP3   OH226091   2.509   3.610   1.038  0.0528  0.8451 -0.7635
 1511TIP3    H126092   2.576   3.675   1.017  3.9394 -1.4058  3.5696
 1511TIP3    H226093   2.546   3.526   1.009 -0.6971 -0.4867  1.9375
 1512TIP3   OH226094   4.423   2.082   6.640 -0.7072 -0.2115  1.0649
 1512TIP3    H126095   4.513   2.114   6.640 -1.0628  0.8540 -0.6539
 1512TIP3    H226096   4.409   2.051   6.550 -1.8007 -1.1196  1.5332
 1513TIP3   OH226097   4.406   5.291   7.997 -0.5264 -0.2382  1.5218
 1513TIP3    H126098   4.335   5.321   8.054 -0.1975 -1.1173  2.3957
 1513TIP3    H226099   4.429   5.204   8.030  0.1392 -0.4703  0.4827
 1514TIP3   OH226100   1.131   1.911   1.585  0.1823 -0.1362 -0.4762
 1514TIP3    H126101   1.036   1.904   1.598  0.0802  0.6746 -0.7892
 1514TIP3    H226102   1.141   1.932   1.493  0.8062 -3.1127 -1.1457
 1515TIP3   OH226103   5.039   0.657   6.398 -0.5202  0.6621  0.1055
 1515TIP3    H126104   5.037   0.610   6.314  1.0326 -0.2630  0.5549
 1515TIP3    H226105   4.954   0.700   6.404 -1.6386 -1.3627 -0.7649
 1516TIP3   OH226106   5.949   0.067   7.863  0.0132 -0.7192  0.1859
 1516TIP3    H126107   5.975  -0.012   7.910 -0.4991 -0.7831  0.3636
 1516TIP3    H226108   5.884   0.109   7.920 -1.3891 -1.3354 -0.9190
 1517TIP3   OH226109   4.391   1.652   7.894 -0.1050  0.3919 -0.7294
 1517TIP3    H126110   4.318   1.645   7.833 -0.2563  2.9224 -0.9113
 1517TIP3    H226111   4.351   1.682   7.976  0.6556  1.4493 -0.7272
 1518TIP3   OH226112   4.283   6.569   8.236 -0.1018  0.6614  0.1709
 1518TIP3    H126113   4.356   6.631   8.233  0.8077 -0.4505 -1.1041
 1518TIP3    H226114   4.244   6.583   8.323  1.1901  1.7389  0.6079
 1519TIP3   OH226115   1.207   0.008   7.657  0.0288  0.1006  0.1280
 1519TIP3    H126116   1.158   0.088   7.635  0.4378 -0.2582 -2.2171
 1519TIP3    H226117   1.279   0.039   7.713 -0.4176  1.2169  0.1048
 1520TIP3   OH226118   2.664   3.769   7.802  0.0468  0.2035  0.0255
 1520TIP3    H126119   2.750   3.783   7.762 -0.2999  2.4079 -0.0341
 1520TIP3    H226120   2.679   3.786   7.895 -0.1416 -0.2629  0.1403
 1521TIP3   OH226121   7.105   0.528   6.802  0.2407  0.3238 -0.0523
 1521TIP3    H126122   7.083   0.507   6.893  1.4108 -3.8004 -0.6324
 1521TIP3    H226123   7.021   0.525   6.756 -0.0074 -0.2569  0.4297
 1522TIP3   OH226124   3.835   2.193   6.457  0.0087 -0.4630 -0.6616
 1522TIP3    H126125   3.924   2.222   6.436 -0.3095  1.7853  0.8871
 1522TIP3    H226126   3.785   2.209   6.377  0.4802  0.6259 -0.7455
 1523TIP3   OH226127   4.624   3.975   6.302  0.5182 -0.3666 -0.3998
 1523TIP3    H126128   4.566   3.905   6.272  1.5708 -1.0758 -0.7721
 1523TIP3    H226129   4.656   4.017   6.222  2.4300 -1.5373 -0.2821
 1524TIP3   OH226130   3.116   4.620   7.216  0.1222  0.4400  0.1332
 1524TIP3    H126131   3.064   4.543   7.191 -0.7764  1.0956 -0.0183
 1524TIP3    H226132   3.056   4.675   7.266  0.5880  1.3457 -0.2955
 1525TIP3   OH226133   2.518   2.379   6.222  0.1444 -0.5827  0.0231
 1525TIP3    H126134   2.461   2.410   6.151 -0.5398 -1.5516  0.1402
 1525TIP3    H226135   2.517   2.449   6.287  2.1438  1.0919 -1.6648
 1526TIP3   OH226136   4.504   4.332   6.108  0.3489 -0.0029 -0.2665
 1526TIP3    H126137   4.522   4.260   6.047 -0.4559  0.4118 -1.0092
 1526TIP3    H226138   4.583   4.339   6.161  1.1732 -0.1718 -1.4617
 1527TIP3   OH226139   2.290   4.086   6.505 -0.1232  0.2525 -0.7175
 1527TIP3    H126140   2.261   4.171   6.473 -0.9585  0.2565  0.0218
 1527TIP3    H226141   2.299   4.032   6.426 -5.4855 -0.7753 -0.8587
 1528TIP3   OH226142   3.101   3.214   0.940  0.2575  0.3997  0.6053
 1528TIP3    H126143   3.094   3.263   0.857  0.2566 -0.1077  0.3041
 1528TIP3    H226144   3.018   3.167   0.946  0.0382  0.8569  1.1659
 1529TIP3   OH226145   7.070   2.653   1.860 -0.2336 -0.0508 -0.4082
 1529TIP3    H126146   6.991   2.659   1.913 -0.3208 -0.2705 -0.5178
 1529TIP3    H226147   7.046   2.694   1.776  0.4492  2.0017  0.3639
 1530TIP3   OH226148   0.848   4.736   1.759  0.0633  0.0016 -0.3501
 1530TIP3    H126149   0.938   4.735   1.729  0.2315  0.3079  0.1366
 1530TIP3    H226150   0.797   4.764   1.683  0.3375 -0.5067 -0.7230
 1531TIP3   OH226151   2.580   2.462   5.800 -0.1314 -0.0833 -0.0218
 1531TIP3    H126152   2.665   2.429   5.829 -0.1264  0.6370  0.8153
 1531TIP3    H226153   2.542   2.501   5.879 -0.0374  2.1285 -1.0482
 1532TIP3   OH226154   6.704   5.237   6.698  0.0792 -0.2237 -0.9991
 1532TIP3    H126155   6.789   5.194   6.693 -0.2434 -1.0785  0.4787
 1532TIP3    H226156   6.722   5.325   6.729  0.3190 -0.8087  0.5499
 1533TIP3   OH226157   3.267   1.704   8.161  0.3166  0.3677  0.1241
 1533TIP3    H126158   3.359   1.728   8.171  0.1212  0.5639  1.5126
 1533TIP3    H226159   3.222   1.750   8.232 -1.2854  2.5967 -2.2230
 1534TIP3   OH226160   5.025   4.103   6.816  0.3960 -0.0250  0.0210
 1534TIP3    H126161   4.973   4.111   6.736 -0.0830  0.9733  0.4145
 1534TIP3    H226162   5.067   4.017   6.810 -1.4049 -0.9096 -0.2405
 1535TIP3   OH226163   3.117   2.179   7.479  0.0349 -0.4616  0.5177
 1535TIP3    H126164   3.174   2.119   7.430 -0.0369 -1.2345  1.3624
 1535TIP3    H226165   3.173   2.210   7.551  0.5806  1.7402 -0.8309
 1536TIP3   OH226166   1.152   1.002   0.322  0.5661 -0.0189  0.5616
 1536TIP3    H126167   1.227   1.014   0.263  0.4955  0.6145  0.5940
 1536TIP3    H226168   1.076   1.023   0.268  0.5009  0.5640  0.8720
 1537TIP3   OH226169   3.221   0.449   6.806  0.0236  0.0881 -0.0443
 1537TIP3    H126170   3.209   0.530   6.856 -0.3244 -1.6928  2.9246
 1537TIP3    H226171   3.132   0.421   6.785 -0.0306 -0.9391  1.4267
 1538TIP3   OH226172   2.286   3.361   6.139  0.3372 -0.3619  0.2870
 1538TIP3    H126173   2.230   3.291   6.104 -0.2210 -0.1341  0.7089
 1538TIP3    H226174   2.257   3.439   6.092  0.1240 -0.1967  0.6946
 1539TIP3   OH226175   3.667   4.280   2.300 -0.5502  0.0097  0.1442
 1539TIP3    H126176   3.732   4.210   2.289 -0.3066  0.4192 -1.0815
 1539TIP3    H226177   3.589   4.247   2.257 -0.6404  0.2255  0.1447
 1540TIP3   OH226178   1.971   1.957   7.532  0.0588  0.1096 -0.0720
 1540TIP3    H126179   1.988   1.963   7.626  0.9938 -1.9709 -0.0740
 1540TIP3    H226180   1.952   2.047   7.505 -0.7243  0.6621  2.1853
 1541TIP3   OH226181   2.872   3.086   6.867 -0.2238  0.0565 -0.2181
 1541TIP3    H126182   2.879   3.047   6.780  0.6667 -0.2063 -0.0300
 1541TIP3    H226183   2.940   3.043   6.919 -0.2136  0.7950  0.3932
 1542TIP3   OH226184   3.644   1.732   6.991  0.0545 -0.0411  0.2945
 1542TIP3    H126185   3.727   1.696   6.961 -0.4849  0.0858 -1.4165
 1542TIP3    H226186   3.630   1.693   7.076  1.2769 -0.9985  0.0707
 1543TIP3   OH226187   4.079   0.900   7.273  0.5400  0.4132 -0.1405
 1543TIP3    H126188   3.994   0.939   7.254  0.5606  1.6232  2.1667
 1543TIP3    H226189   4.121   0.961   7.334  2.8789 -0.3913 -0.8783
 1544TIP3   OH226190   6.233   1.526   1.876  0.6171 -0.1968 -0.2164
 1544TIP3    H126191   6.319   1.562   1.898  0.2465  0.5771 -0.0183
 1544TIP3    H226192   6.252   1.439   1.841  1.4924  0.0376 -0.3426
 1545TIP3   OH226193   6.618   1.019   1.633  0.0902 -0.5337 -0.2870
 1545TIP3    H126194   6.635   1.113   1.626 -0.7084 -0.4324 -0.8424
 1545TIP3    H226195   6.677   0.980   1.568 -0.2506 -0.3377 -0.7224
 1546TIP3   OH226196   5.186   0.892   8.090  0.2897  0.0860  0.0365
 1546TIP3    H126197   5.249   0.845   8.144  0.6101  2.4473  1.7872
 1546TIP3    H226198   5.211   0.871   8.000  3.2367  0.5202  0.7065
 1547TIP3   OH226199   4.859   0.393   7.743 -0.0952 -0.3998  0.0098
 1547TIP3    H126200   4.919   0.335   7.790  1.3156 -0.4231 -1.7952
 1547TIP3    H226201   4.911   0.430   7.672 -1.3259  2.1063  0.3581
 1548TIP3   OH226202   3.134   3.521   8.045  0.3052 -0.1528 -0.4487
 1548TIP3    H126203   3.170   3.474   7.969  1.7054  0.1440  0.0071
 1548TIP3    H226204   3.122   3.454   8.111 -0.0754 -0.2731 -0.6435
 1549TIP3   OH226205   5.227   4.854   6.229 -0.2643  0.0988 -0.2845
 1549TIP3    H126206   5.232   4.857   6.133 -1.6618  0.0958 -0.3623
 1549TIP3    H226207   5.285   4.782   6.253 -0.1859 -0.1439 -1.1497
 1550TIP3   OH226208   6.810   3.267   6.978  0.0326  0.1719  0.0148
 1550TIP3    H126209   6.831   3.358   6.959  1.1759 -0.1069 -0.0776
 1550TIP3    H226210   6.725   3.252   6.935 -0.1523  1.1800  0.0227
 1551TIP3   OH226211   5.383   6.701   8.179 -0.1355 -0.0113  0.3144
 1551TIP3    H126212   5.438   6.768   8.139  1.0536 -0.7317  0.7205
 1551TIP3    H226213   5.294   6.731   8.163  0.3561  0.7824 -1.0203
 1552TIP3   OH226214   2.926   5.014   1.694  0.2459  0.2278 -0.1306
 1552TIP3    H126215   2.873   5.053   1.625 -0.2301 -0.3818 -0.1091
 1552TIP3    H226216   2.867   4.955   1.740  0.7586  0.0657  0.3252
 1553TIP3   OH226217   4.878   4.211   7.077 -0.4541  0.0536 -0.2737
 1553TIP3    H126218   4.796   4.223   7.030 -0.7253 -1.9046 -0.3556
 1553TIP3    H226219   4.935   4.165   7.016 -0.1954 -0.9110  0.6694
 1554TIP3   OH226220   5.329   3.038   6.578  0.6876 -0.4197  0.5401
 1554TIP3    H126221   5.311   3.129   6.556 -0.8518 -0.8127  0.1081
 1554TIP3    H226222   5.253   2.990   6.545  0.9191 -1.7036  1.8253
 1555TIP3   OH226223   6.488   5.878   7.258 -0.4428  0.3420  0.1547
 1555TIP3    H126224   6.486   5.801   7.202  1.9357  0.0447  0.4287
 1555TIP3    H226225   6.416   5.865   7.320  0.1568 -1.8643  0.4431
 1556TIP3   OH226226   3.769   4.014   6.780  0.3096  0.0500 -0.1683
 1556TIP3    H126227   3.832   3.969   6.835  2.8890  1.7966 -1.6164
 1556TIP3    H226228   3.792   3.988   6.691 -0.6441  1.1559 -0.7492
 1557TIP3   OH226229   6.066   0.969   6.577 -0.4152 -0.2090 -0.6487
 1557TIP3    H126230   6.088   0.888   6.623 -2.4961 -0.7078 -0.4449
 1557TIP3    H226231   6.043   0.941   6.488 -0.8991  0.1648 -0.6473
 1558TIP3   OH226232   3.360   1.286   8.341 -0.2806  0.2855 -0.1800
 1558TIP3    H126233   3.312   1.280   8.259 -1.7411  0.8944  0.6190
 1558TIP3    H226234   3.360   1.197   8.376  1.8997 -0.3384 -1.6900
 1559TIP3   OH226235   5.907   0.438   1.655 -0.6141  0.3373  0.4786
 1559TIP3    H126236   5.883   0.474   1.570  0.4051 -1.9566 -0.8115
 1559TIP3    H226237   5.841   0.371   1.673 -0.4202  0.3203  1.1723
 1560TIP3   OH226238   6.565   4.471   7.342  0.4663 -0.2148  0.1611
 1560TIP3    H126239   6.588   4.563   7.338  0.6735 -0.3224 -1.0417
 1560TIP3    H226240   6.517   4.454   7.261  0.5845 -1.2061  0.2903
 1561TIP3   OH226241   3.499   4.386   8.410 -0.0616 -0.7276  0.0434
 1561TIP3    H126242   3.520   4.456   8.349 -0.5234 -0.9110 -0.3280
 1561TIP3    H226243   3.523   4.306   8.363 -0.1216 -0.8501  0.2210
 1562TIP3   OH226244   3.222   3.026   6.454 -0.1499 -1.0489  0.1955
 1562TIP3    H126245   3.142   3.032   6.403 -0.4466 -0.8816  0.6734
 1562TIP3    H226246   3.202   2.962   6.523 -0.7569  0.8884  1.8819
 1563TIP3   OH226247   5.865   6.379   7.908 -0.4359  0.1433 -0.4088
 1563TIP3    H126248   5.928   6.333   7.963 -0.2377  1.0102  0.1001
 1563TIP3    H226249   5.917   6.443   7.860 -0.7319 -0.0506 -0.9962
 1564TIP3   OH226250   3.200   6.948   1.401  0.5389 -0.2243  0.0034
 1564TIP3    H126251   3.234   7.037   1.390 -1.0167  0.2831 -0.7221
 1564TIP3    H226252   3.148   6.952   1.482 -1.2208  0.0528 -1.1235
 1565TIP3   OH226253   4.595   5.389   1.350 -0.3881 -0.5084 -0.6396
 1565TIP3    H126254   4.555   5.326   1.410  0.3610  0.2777  0.7225
 1565TIP3    H226255   4.685   5.400   1.382 -0.5006  1.2371 -0.8425
 1566TIP3   OH226256   0.294   2.272   1.155 -0.3874  0.0047  0.0707
 1566TIP3    H126257   0.377   2.318   1.171  0.8180 -2.1899  0.2750
 1566TIP3    H226258   0.296   2.196   1.213 -1.0095 -1.9105 -2.3062
 1567TIP3   OH226259   3.846   2.446   6.282 -0.2393 -0.4945  0.0440
 1567TIP3    H126260   3.921   2.388   6.278 -0.0934 -0.2076 -2.1555
 1567TIP3    H226261   3.882   2.533   6.263 -0.7213  0.0695  1.6249
 1568TIP3   OH226262   2.393   2.749   6.094  0.4434 -0.2697 -0.2344
 1568TIP3    H126263   2.398   2.657   6.068  2.9974 -0.6354  1.3882
 1568TIP3    H226264   2.424   2.750   6.185  1.7062  2.3405 -0.6376
 1569TIP3   OH226265   0.667   0.441   8.293  0.7116 -0.0661  0.6972
 1569TIP3    H126266   0.673   0.399   8.379  0.5266 -0.1621  0.6627
 1569TIP3    H226267   0.738   0.401   8.242  0.9453  0.1331  0.8651
 1570TIP3   OH226268   1.816   4.045   7.472 -0.3431  0.0057 -0.0552
 1570TIP3    H126269   1.852   4.098   7.542  0.9948 -0.7480 -0.1435
 1570TIP3    H226270   1.771   4.107   7.415  1.4150  1.1043 -0.3060
 1571TIP3   OH226271   4.387   4.702   0.313  0.3655  0.6255  0.1832
 1571TIP3    H126272   4.448   4.757   0.362 -1.1731  1.6106  1.0518
 1571TIP3    H226273   4.379   4.744   0.228  3.0014 -1.0560 -0.9591
 1572TIP3   OH226274   4.207   2.250   6.897 -0.0712 -0.0847  0.1539
 1572TIP3    H126275   4.125   2.286   6.932 -1.0329  0.0532 -2.1408
 1572TIP3    H226276   4.184   2.161   6.870 -0.2054  0.8280 -2.9322
 1573TIP3   OH226277   2.604   2.496   2.357  0.4861  0.2183  0.1153
 1573TIP3    H126278   2.607   2.592   2.365 -0.6645  0.1032  2.0757
 1573TIP3    H226279   2.623   2.464   2.445 -1.4201 -1.3118 -0.0144
 1574TIP3   OH226280   3.713   5.487   0.636  0.2428  0.0025  0.3734
 1574TIP3    H126281   3.626   5.484   0.598 -0.3266  1.3548  1.5207
 1574TIP3    H226282   3.707   5.434   0.715  0.9094 -1.2097 -0.3592
 1575TIP3   OH226283   6.892   5.766   0.793 -0.0055 -0.0673  0.1718
 1575TIP3    H126284   6.809   5.775   0.746  1.1631 -0.4958 -2.0788
 1575TIP3    H226285   6.889   5.678   0.830 -0.0726 -0.5278 -0.9101
 1576TIP3   OH226286   1.699   1.625   0.936 -0.0251  0.0286 -0.6864
 1576TIP3    H126287   1.774   1.590   0.984 -0.9678 -2.3210 -0.8339
 1576TIP3    H226288   1.664   1.694   0.992  2.4485  1.4099 -0.7904
 1577TIP3   OH226289   3.506   2.132   0.703  0.3130  0.5512  0.0518
 1577TIP3    H126290   3.501   2.212   0.650 -0.7324  0.0031 -0.6860
 1577TIP3    H226291   3.419   2.124   0.742 -0.3413 -1.4828 -1.7310
 1578TIP3   OH226292   3.832   2.864   7.440  0.6812  0.5098 -0.2110
 1578TIP3    H126293   3.737   2.863   7.444  0.6740  2.8123  1.0466
 1578TIP3    H226294   3.852   2.856   7.347 -0.8236  2.0817 -0.7086
 1579TIP3   OH226295   4.105   3.662   6.711 -0.3787  0.1988  0.5866
 1579TIP3    H126296   4.142   3.679   6.625  1.1716  0.5526  1.3048
 1579TIP3    H226297   4.149   3.724   6.769 -1.3625 -0.0738  1.6536
 1580TIP3   OH226298   0.081   5.956   0.719 -0.2100  0.2984  0.0829
 1580TIP3    H126299   0.098   5.980   0.810 -1.1501 -0.9078  0.5864
 1580TIP3    H226300   0.005   5.899   0.723  0.4798 -0.7446 -1.3472
 1581TIP3   OH226301   1.712   2.754   0.217 -0.2533 -0.3525  0.2729
 1581TIP3    H126302   1.626   2.720   0.241  0.2240 -0.9305  1.1958
 1581TIP3    H226303   1.752   2.780   0.300 -0.1851  1.4875 -0.3150
 1582TIP3   OH226304   5.979   0.271   1.928  0.1174 -0.2689  0.1623
 1582TIP3    H126305   5.973   0.178   1.949  0.5423 -0.6754 -1.4184
 1582TIP3    H226306   5.944   0.277   1.839 -0.8617  1.2361  0.6280
 1583TIP3   OH226307   4.395   0.845   8.007 -0.0263  0.1412  0.3670
 1583TIP3    H126308   4.418   0.915   8.069 -0.4364  1.2638 -0.7244
 1583TIP3    H226309   4.370   0.891   7.927  0.1213 -1.2841 -0.5206
 1584TIP3   OH226310   4.331   6.026   5.904 -0.0505  0.2899 -0.0147
 1584TIP3    H126311   4.340   5.968   5.979 -4.0998 -2.3030 -1.3846
 1584TIP3    H226312   4.284   6.102   5.937 -1.9911 -0.9272  0.1154
 1585TIP3   OH226313   3.473   5.191   7.439  0.6846  0.4212 -0.0301
 1585TIP3    H126314   3.443   5.102   7.419  3.0028 -0.3911 -0.1219
 1585TIP3    H226315   3.506   5.225   7.356  1.8214  0.5173  0.4444
 1586TIP3   OH226316   0.381   1.115   1.178  0.4047 -0.5054 -0.1355
 1586TIP3    H126317   0.459   1.170   1.186  0.3755 -0.1331 -2.0974
 1586TIP3    H226318   0.377   1.094   1.085 -0.8388 -2.0005  0.2496
 1587TIP3   OH226319   2.460   2.565   6.967  0.2772 -0.3339  0.4121
 1587TIP3    H126320   2.454   2.602   7.055  0.8245  1.0157 -0.0943
 1587TIP3    H226321   2.433   2.637   6.910 -2.4666 -1.9624 -0.3937
 1588TIP3   OH226322   6.966   2.338   7.250  0.7632 -0.1230  0.1640
 1588TIP3    H126323   7.036   2.327   7.186  1.2857 -1.2653  0.9161
 1588TIP3    H226324   6.888   2.352   7.197  1.8945  3.6606 -0.6663
 1589TIP3   OH226325   2.428   1.971   7.570  0.0548 -0.0553  0.7435
 1589TIP3    H126326   2.408   1.880   7.590 -1.9331  0.3567  0.6897
 1589TIP3    H226327   2.385   1.987   7.486  0.0959  1.0261  0.9190
 1590TIP3   OH226328   6.443   0.157   7.294 -0.0881 -0.3713  0.1817
 1590TIP3    H126329   6.491   0.095   7.349 -0.7267  0.5552  1.8063
 1590TIP3    H226330   6.365   0.109   7.265  1.2539 -1.5336 -1.6215
 1591TIP3   OH226331   3.637   0.736   7.778 -0.4268  0.3800 -0.3272
 1591TIP3    H126332   3.582   0.658   7.763 -0.9489  0.0632  2.8570
 1591TIP3    H226333   3.576   0.809   7.772 -1.2846  0.0290  3.1873
 1592TIP3   OH226334   3.844   0.669   7.620  0.7802 -0.3104  0.2754
 1592TIP3    H126335   3.773   0.697   7.678 -0.1109 -0.5272 -0.6973
 1592TIP3    H226336   3.844   0.734   7.550  0.1652 -1.4799 -0.8250
 1593TIP3   OH226337   6.331   1.248   6.713  0.4133 -0.3888  0.1816
 1593TIP3    H126338   6.335   1.343   6.725  2.7660 -0.4619  0.3122
 1593TIP3    H226339   6.380   1.212   6.787 -3.1131 -1.9006  1.8801
 1594TIP3   OH226340   5.908   0.896   6.910  0.1390  0.5338  0.4237
 1594TIP3    H126341   5.860   0.836   6.967  0.5025 -0.3467 -0.1828
 1594TIP3    H226342   5.902   0.857   6.823  1.5255  0.6657  0.2457
 1595TIP3   OH226343   4.224   3.601   5.964  0.0082 -0.5768 -0.0501
 1595TIP3    H126344   4.294   3.543   5.995  1.1391  0.2676 -0.9940
 1595TIP3    H226345   4.237   3.682   6.013 -0.6635 -0.5952  0.1714
 1596TIP3   OH226346   4.265   5.400   6.096 -0.2288  0.7585 -0.1300
 1596TIP3    H126347   4.235   5.349   6.172 -2.0442  3.0625  0.7607
 1596TIP3    H226348   4.216   5.482   6.102  0.2645  1.3392 -3.3203
 1597TIP3   OH226349   5.067   6.116   0.320 -0.3744 -0.1224 -0.2088
 1597TIP3    H126350   5.138   6.075   0.369  1.5488  0.8902 -2.1110
 1597TIP3    H226351   5.009   6.043   0.297  0.5269 -1.0956  0.5290
 1598TIP3   OH226352   3.083   0.770   6.471  0.3699  0.1947  0.2691
 1598TIP3    H126353   2.992   0.741   6.463  0.4414  0.2813 -0.9996
 1598TIP3    H226354   3.134   0.691   6.455  0.5221  0.1284  1.0692
 1599TIP3   OH226355   3.920   1.743   6.838 -0.4183  0.0865  0.0365
 1599TIP3    H126356   4.008   1.782   6.836 -0.3029 -0.1134  1.0873
 1599TIP3    H226357   3.864   1.811   6.800  0.3910 -0.3408 -2.0171
 1600TIP3   OH226358   4.368   4.940   7.339 -0.2420 -0.3126 -0.2256
 1600TIP3    H126359   4.427   4.977   7.405 -0.1537  1.9019 -1.4880
 1600TIP3    H226360   4.402   4.973   7.255 -1.4601 -1.5332 -1.2229
 1601TIP3   OH226361   6.919   0.768   6.546 -0.7015 -0.0518 -0.0599
 1601TIP3    H126362   6.843   0.820   6.520 -0.6001  0.5424  0.7870
 1601TIP3    H226363   6.990   0.800   6.490 -0.7937  0.2599  0.0002
 1602TIP3   OH226364   1.022   2.928   1.112  0.2632 -0.1997 -0.0804
 1602TIP3    H126365   1.046   2.836   1.104  0.5732  0.0232 -1.9003
 1602TIP3    H226366   1.100   2.976   1.086 -0.0353  0.5868  0.4354
 1603TIP3   OH226367   5.104   3.858   6.735  0.3254 -0.2501 -0.1491
 1603TIP3    H126368   5.084   3.835   6.644 -0.3077  0.2091 -0.1250
 1603TIP3    H226369   5.149   3.781   6.770  2.1456  0.2295 -1.3591
 1604TIP3   OH226370   7.100   4.624   7.572  0.0246  0.9157  0.1733
 1604TIP3    H126371   7.061   4.584   7.495  0.4368  2.9371 -1.1150
 1604TIP3    H226372   7.026   4.644   7.629 -0.3608  0.2309 -0.0806
 1605TIP3   OH226373   1.864   3.378   7.404 -0.4019 -0.5977  0.5788
 1605TIP3    H126374   1.776   3.367   7.368 -0.6567 -1.1221  1.3549
 1605TIP3    H226375   1.855   3.448   7.469 -0.4436 -1.2929  1.3260
 1606TIP3   OH226376   5.086   2.960   6.167  0.6060  0.4556 -0.6097
 1606TIP3    H126377   5.107   2.890   6.105 -0.2842  0.3609 -0.8205
 1606TIP3    H226378   5.022   2.920   6.226  2.9250 -0.0817  1.6232
 1607TIP3   OH226379   4.647   4.093   6.770  0.2690  0.0563  0.2236
 1607TIP3    H126380   4.686   4.167   6.724  0.5644  0.5220  1.1922
 1607TIP3    H226381   4.563   4.126   6.802 -0.0980 -0.3740 -0.2918
 1608TIP3   OH226382   7.209   4.808   7.057  0.4257  0.0392  0.4686
 1608TIP3    H126383   7.124   4.774   7.027 -0.0144  1.2846  0.2777
 1608TIP3    H226384   7.227   4.760   7.138 -0.3822 -0.3424  0.4297
 1609TIP3   OH226385   5.508   5.026   6.833  0.1413  0.7046  0.0935
 1609TIP3    H126386   5.486   4.935   6.851  0.8236  0.8195  1.6762
 1609TIP3    H226387   5.442   5.056   6.771  0.7277 -1.2600 -1.5124
 1610TIP3   OH226388   0.677   3.236   0.442  0.1658 -0.8197  0.0869
 1610TIP3    H126389   0.617   3.310   0.458  0.8442  0.5779 -3.3863
 1610TIP3    H226390   0.738   3.238   0.515  0.3516  2.3066 -0.0945
 1611TIP3   OH226391   0.686   2.312   6.813 -0.1414 -0.1809 -0.1775
 1611TIP3    H126392   0.604   2.287   6.771  1.1083 -0.2220 -2.6842
 1611TIP3    H226393   0.690   2.407   6.805  0.1299 -0.1928 -0.2059
 1612TIP3   OH226394   5.251   0.617   6.617 -0.2204  0.0583  0.4468
 1612TIP3    H126395   5.262   0.678   6.544 -0.9510 -2.5044 -1.8927
 1612TIP3    H226396   5.317   0.644   6.681  1.7762  1.1505 -1.9887
 1613TIP3   OH226397   2.209   3.921   7.015 -0.3636  0.3351 -0.2206
 1613TIP3    H126398   2.269   3.993   6.995 -0.5372  0.5338 -0.0280
 1613TIP3    H226399   2.141   3.961   7.069  0.8224 -0.4804  1.9542
 1614TIP3   OH226400   5.979   5.542   7.583  0.1512 -0.2920 -0.0459
 1614TIP3    H126401   6.011   5.463   7.540  0.0148  0.1063 -0.8961
 1614TIP3    H226402   5.992   5.526   7.677  1.9986 -0.4909 -0.3206
 1615TIP3   OH226403   2.164   2.448   6.983 -0.0988  0.4503 -0.0957
 1615TIP3    H126404   2.228   2.377   6.995 -0.3509  0.3801  0.8643
 1615TIP3    H226405   2.115   2.422   6.905  0.1159 -0.2045 -0.0230
 1616TIP3   OH226406   7.186   2.482   6.119 -0.0824 -0.1242 -0.2620
 1616TIP3    H126407   7.193   2.577   6.126 -0.2453 -0.2158  1.3579
 1616TIP3    H226408   7.268   2.450   6.157 -1.0597 -0.6854  1.4040
 1617TIP3   OH226409   6.437   4.850   7.611  0.1371  0.8599  0.1354
 1617TIP3    H126410   6.511   4.868   7.669  0.9364 -1.8013 -0.0028
 1617TIP3    H226411   6.478   4.827   7.527 -0.9338  1.3395 -0.5368
 1618TIP3   OH226412   2.210   2.003   6.695  0.6253 -0.4068 -0.2760
 1618TIP3    H126413   2.300   2.026   6.719 -0.1462  2.1322  0.3064
 1618TIP3    H226414   2.201   2.034   6.604 -0.2422  1.0787  0.3088
 1619TIP3   OH226415   1.878   4.528   7.322 -0.1605  0.0862  0.2903
 1619TIP3    H126416   1.797   4.516   7.371 -0.1485 -1.1039  0.0154
 1619TIP3    H226417   1.876   4.620   7.295 -1.9862 -0.2474 -0.7487
 1620TIP3   OH226418   0.440   1.881   8.325 -0.1344 -0.2132 -0.6103
 1620TIP3    H126419   0.481   1.815   8.381  0.3931 -0.5037 -1.3321
 1620TIP3    H226420   0.512   1.938   8.299 -0.3270 -0.2443 -1.2136
 1621TIP3   OH226421   5.959   2.927   6.175 -0.3691 -0.9301 -0.1049
 1621TIP3    H126422   6.045   2.967   6.165 -1.0647  0.4543 -0.5734
 1621TIP3    H226423   5.897   2.992   6.143 -1.7309 -1.2928  1.6654
 1622TIP3   OH226424   6.919   3.519   6.886  0.3648  0.4415  0.0188
 1622TIP3    H126425   6.892   3.538   6.797  1.0607  0.6797 -0.1443
 1622TIP3    H226426   6.935   3.605   6.925 -1.1580  0.4029  0.7684
 1623TIP3   OH226427   6.471   7.045   0.289 -0.1413  0.3101 -0.1944
 1623TIP3    H126428   6.477   7.127   0.337 -0.5249 -0.7893  1.7816
 1623TIP3    H226429   6.556   7.003   0.301 -0.4635 -0.2711  0.0557
 1624TIP3   OH226430   5.938   2.918   6.552 -0.5384  0.4450 -0.4395
 1624TIP3    H126431   5.975   2.907   6.640 -0.3093  0.5707 -0.5205
 1624TIP3    H226432   5.895   2.834   6.535 -0.0651  0.1975 -0.4499
 1625TIP3   OH226433   6.706   3.136   6.402 -0.0103 -0.4559 -0.2347
 1625TIP3    H126434   6.675   3.121   6.313 -0.7697  0.1092 -0.0649
 1625TIP3    H226435   6.628   3.158   6.452  0.0472 -3.0856  1.0977
 1626TIP3   OH226436   6.139   3.111   6.492 -0.5076  0.4810 -0.1644
 1626TIP3    H126437   6.066   3.051   6.506  0.7619 -0.6868  1.5212
 1626TIP3    H226438   6.168   3.093   6.402 -1.8809  0.5413 -0.6367
 1627TIP3   OH226439   0.342   5.059   7.108  0.4973  0.4154 -0.4316
 1627TIP3    H126440   0.272   4.993   7.109  0.3120  0.6004  1.4272
 1627TIP3    H226441   0.296   5.141   7.089  0.5449  0.2008 -1.4867
 1628TIP3   OH226442   4.790   5.309   6.782  0.3263 -0.0545  0.6844
 1628TIP3    H126443   4.817   5.345   6.697  0.8540  0.2933  0.9978
 1628TIP3    H226444   4.799   5.214   6.771  0.9562  0.0216  0.5391
 1629TIP3   OH226445   6.552   3.096   7.139 -0.0465 -0.2663 -0.0451
 1629TIP3    H126446   6.520   3.168   7.084  0.3754 -0.5433 -0.6523
 1629TIP3    H226447   6.554   3.132   7.227  1.0817  0.7613 -0.4931
 1630TIP3   OH226448   6.897   4.050   6.604  0.5701 -0.1479 -0.3397
 1630TIP3    H126449   6.954   3.980   6.573  0.9391  0.4058 -0.9294
 1630TIP3    H226450   6.937   4.130   6.569  0.6005  0.4288  0.9938
 1631TIP3   OH226451   2.444   3.275   0.130  0.3389 -0.6728 -0.4771
 1631TIP3    H126452   2.522   3.310   0.086  1.2873 -1.3236  0.6461
 1631TIP3    H226453   2.444   3.317   0.216 -0.1555 -1.2225 -0.2027
 1632TIP3   OH226454   6.198   6.993   7.206 -0.0194 -0.1957  0.6576
 1632TIP3    H126455   6.231   7.010   7.118 -0.1743  0.2369  0.6816
 1632TIP3    H226456   6.246   7.054   7.262  0.2044 -0.5910  0.8968
 1633TIP3   OH226457   6.402   4.916   6.843 -0.0034  0.0956 -0.0059
 1633TIP3    H126458   6.347   4.850   6.800 -1.0857  0.8145  0.2485
 1633TIP3    H226459   6.340   4.982   6.873  0.8471  0.1467  1.6835
 1634TIP3   OH226460   0.228   3.542   8.097  0.4059 -0.3166  0.2381
 1634TIP3    H126461   0.197   3.612   8.039 -1.0314 -1.3114 -0.2282
 1634TIP3    H226462   0.320   3.562   8.112  0.5044  0.5921 -1.4810
 1635TIP3   OH226463   6.660   6.522   0.288  0.4570  0.0349  0.1660
 1635TIP3    H126464   6.665   6.432   0.258  2.1944  0.1716  0.0231
 1635TIP3    H226465   6.726   6.569   0.237 -0.3439  1.3665  0.3241
 1636TIP3   OH226466   3.545   2.283   6.978  0.2885 -0.2963 -0.5960
 1636TIP3    H126467   3.515   2.209   7.031 -1.1963  0.8596  0.2210
 1636TIP3    H226468   3.557   2.246   6.890  0.9957 -1.8192  0.1237
 1637TIP3   OH226469   5.912   2.422   6.865  0.5916 -0.1364  0.3365
 1637TIP3    H126470   5.921   2.343   6.812  0.1156 -0.9203  1.3855
 1637TIP3    H226471   5.978   2.482   6.832  0.8424 -0.9216 -0.5893
 1638TIP3   OH226472   4.806   4.099   6.124 -0.1698  0.7288 -0.2210
 1638TIP3    H126473   4.796   4.181   6.173  0.1327  0.7722 -0.2333
 1638TIP3    H226474   4.805   4.125   6.032 -1.1137  0.6073 -0.2532
 1639TIP3   OH226475   1.785   1.745   7.486 -0.3953  0.3616 -0.4861
 1639TIP3    H126476   1.777   1.769   7.393 -1.2298  2.1111  0.0131
 1639TIP3    H226477   1.862   1.795   7.516  1.3322 -2.0435 -0.7892
 1640TIP3   OH226478   6.728   2.381   7.070  0.1539 -0.1095 -0.6686
 1640TIP3    H126479   6.695   2.385   6.981  1.1374  0.9946 -1.0017
 1640TIP3    H226480   6.728   2.472   7.100 -3.0647 -0.7420  1.5547
 1641TIP3   OH226481   4.282   3.623   6.504  0.2039 -0.1723 -0.3462
 1641TIP3    H126482   4.346   3.680   6.463 -1.0134  1.2423 -0.3049
 1641TIP3    H226483   4.311   3.534   6.482  3.6190  0.3506  1.8583
 1642TIP3   OH226484   0.826   4.052   6.414  0.2430  0.6457  0.0121
 1642TIP3    H126485   0.757   3.986   6.423  1.8642 -1.0996 -0.0899
 1642TIP3    H226486   0.855   4.044   6.323  2.3619 -0.4791  0.7403
 1643TIP3   OH226487   1.530   5.174   6.993 -0.0506 -0.1098 -0.3652
 1643TIP3    H126488   1.452   5.205   7.038  0.3986 -0.4865  0.6787
 1643TIP3    H226489   1.576   5.122   7.058  0.5370 -0.7699 -1.3049
 1644TIP3   OH226490   6.605   4.739   7.336 -0.7815 -0.2871 -0.0563
 1644TIP3    H126491   6.576   4.828   7.318 -2.3011 -1.2492 -2.6165
 1644TIP3    H226492   6.699   4.741   7.319 -0.5228  1.1423  1.3613
 1645TIP3   OH226493   5.455   5.355   6.596  0.3026 -0.6124 -0.1052
 1645TIP3    H126494   5.399   5.362   6.518 -0.6506 -0.6101  0.5778
 1645TIP3    H226495   5.440   5.266   6.628  0.4757 -0.5172  0.2398
 1646TIP3   OH226496   4.575   4.208   6.442  0.2980 -0.3235 -0.2524
 1646TIP3    H126497   4.586   4.113   6.442 -1.5308 -0.5694  0.9292
 1646TIP3    H226498   4.597   4.235   6.353 -0.7417 -2.0580 -1.0634
 1647TIP3   OH226499   5.940   7.146   1.048 -0.4921  0.1605 -0.4242
 1647TIP3    H126500   6.026   7.186   1.060 -0.6222  0.0376  0.9660
 1647TIP3    H226501   5.955   7.075   0.986 -0.0020  1.4694 -1.8450
 1648TIP3   OH226502   1.444   2.462   1.165  0.7856  0.0003 -0.2684
 1648TIP3    H126503   1.445   2.507   1.249  0.5706 -1.7111  0.6666
 1648TIP3    H226504   1.376   2.507   1.115  0.8203  0.9376  0.5150
 1649TIP3   OH226505   5.821   5.182   0.375 -0.6823 -0.1617  0.3772
 1649TIP3    H126506   5.837   5.181   0.469 -0.3146  0.2185  0.3204
 1649TIP3    H226507   5.761   5.255   0.362  0.3872  0.6920  0.1452
 1650TIP3   OH226508   5.878   2.661   6.165 -0.4618 -0.2856 -0.0555
 1650TIP3    H126509   5.880   2.635   6.258 -3.1323  0.0916  0.1497
 1650TIP3    H226510   5.908   2.751   6.164  2.4951 -1.2283  0.0440
 1651TIP3   OH226511   7.218   7.221   6.907 -0.0533  0.2946 -0.0359
 1651TIP3    H126512   7.153   7.276   6.950  0.3131  1.3749 -0.8245
 1651TIP3    H226513   7.243   7.271   6.829  0.1337 -1.0990 -0.8825
 1652TIP3   OH226514   6.921   1.391   6.535  0.3171  0.0132 -0.3211
 1652TIP3    H126515   6.849   1.330   6.552  0.8395 -0.4397  0.2879
 1652TIP3    H226516   7.000   1.337   6.540  0.6091  0.1918 -2.5878
 1653TIP3   OH226517   6.188   1.692   7.325  0.7054 -0.4151 -0.3620
 1653TIP3    H126518   6.194   1.638   7.404  1.7835  0.0288 -0.1299
 1653TIP3    H226519   6.267   1.670   7.275  0.2810 -0.3176 -1.0795
 1654TIP3   OH226520   2.529   1.802   6.650 -0.0432 -0.3455 -1.0005
 1654TIP3    H126521   2.485   1.886   6.646  0.9938  0.2987  0.5096
 1654TIP3    H226522   2.487   1.756   6.723  0.4269 -0.5071 -0.8231
 1655TIP3   OH226523   0.835   3.641   6.060 -0.4224  0.4613 -0.6300
 1655TIP3    H126524   0.747   3.607   6.074  0.4307 -0.6333  2.8453
 1655TIP3    H226525   0.864   3.602   5.978 -1.9477 -1.8560 -0.0983
 1656TIP3   OH226526   6.701   3.887   6.486 -0.3904 -0.7464  0.4631
 1656TIP3    H126527   6.742   3.953   6.542 -0.3345 -0.5779  0.2190
 1656TIP3    H226528   6.774   3.836   6.451 -0.3028  0.3819 -1.0292
 1657TIP3   OH226529   0.618   4.062   6.626  0.7387 -0.0159  0.2548
 1657TIP3    H126530   0.541   4.084   6.678 -0.7294 -3.9543 -0.0924
 1657TIP3    H226531   0.585   4.011   6.553  3.5896 -1.0757 -0.3787
 1658TIP3   OH226532   1.202   3.231   7.029 -0.0632 -0.3166 -0.1809
 1658TIP3    H126533   1.238   3.300   6.973 -0.3987 -0.0389 -0.0473
 1658TIP3    H226534   1.108   3.248   7.032 -0.0816 -0.4922  0.2486
 1659TIP3   OH226535   6.327   1.691   6.909 -0.0888  0.4777 -0.6457
 1659TIP3    H126536   6.243   1.645   6.914 -0.9970  2.2896  3.7238
 1659TIP3    H226537   6.391   1.623   6.891 -2.0831 -1.5634 -0.2359
 1660TIP3   OH226538   3.479   6.046   0.767  0.3965  0.2400 -0.2945
 1660TIP3    H126539   3.462   6.111   0.699  0.7442 -1.2889 -1.8619
 1660TIP3    H226540   3.542   5.985   0.728 -1.8077 -2.4648  0.1925
 1661TIP3   OH226541   5.953   3.604   6.543 -0.7059  0.0839 -0.3471
 1661TIP3    H126542   5.992   3.517   6.541 -0.4341  0.2204 -1.8864
 1661TIP3    H226543   5.950   3.631   6.451 -0.5303  1.8135  0.1327
 1662TIP3   OH226544   4.962   4.563   7.238  0.0671  0.3633  0.0699
 1662TIP3    H126545   4.969   4.469   7.251  0.1022  0.5951  1.8870
 1662TIP3    H226546   5.050   4.591   7.212 -0.1429 -0.2113 -1.2848
 1663TIP3   OH226547   2.020   6.365   1.107  0.3529  0.1496 -1.0302
 1663TIP3    H126548   1.944   6.395   1.157  0.8791  1.1802 -0.8353
 1663TIP3    H226549   1.998   6.383   1.016 -1.2284 -3.0782 -1.3707
 1664TIP3   OH226550   5.533   6.148   0.148  0.0053  0.0391 -0.3841
 1664TIP3    H126551   5.516   6.222   0.206 -0.7767  0.7337 -1.4651
 1664TIP3    H226552   5.621   6.119   0.171  0.2797  1.2417  0.1208
 1665TIP3   OH226553   1.028   3.539   7.010  0.0696  0.4919  0.0682
 1665TIP3    H126554   1.058   3.551   7.101  1.6509 -1.0706 -0.2176
 1665TIP3    H226555   0.933   3.535   7.017  0.0495  2.4925  1.3961
 1666TIP3   OH226556   4.222   2.327   6.576  0.1570 -0.2497  0.4411
 1666TIP3    H126557   4.209   2.400   6.636  1.8463  1.0375 -0.6985
 1666TIP3    H226558   4.249   2.254   6.632  0.2903  0.5137  1.3830
 1667TIP3   OH226559   5.724   0.761   1.347 -0.1608  0.0018 -0.9781
 1667TIP3    H126560   5.695   0.808   1.425 -0.2437 -0.0496 -0.9785
 1667TIP3    H226561   5.788   0.820   1.305  0.2555 -0.1818 -0.6072
 1668TIP3   OH226562   5.867   0.374   6.748 -0.5133 -0.4196  0.2263
 1668TIP3    H126563   5.836   0.333   6.667  0.9959  1.8593 -1.5980
 1668TIP3    H226564   5.927   0.311   6.785 -0.6302 -1.1927 -0.8627
 1669TIP3   OH226565   5.586   3.328   6.405 -0.2041  0.6482 -0.3342
 1669TIP3    H126566   5.538   3.319   6.322 -1.8694  0.8742  0.5842
 1669TIP3    H226567   5.551   3.408   6.444  0.1530  0.2301  0.8659
 1670TIP3   OH226568   3.173   5.120   7.854 -0.3803  0.2272 -0.3174
 1670TIP3    H126569   3.099   5.121   7.916  0.1540  0.3562  0.3189
 1670TIP3    H226570   3.186   5.212   7.831 -0.4665  0.1967 -0.4848
 1671TIP3   OH226571   6.306   4.681   0.676 -0.0793 -0.1843 -0.0410
 1671TIP3    H126572   6.287   4.761   0.627 -0.2999  0.2929  0.8037
 1671TIP3    H226573   6.375   4.638   0.626 -0.7503 -0.0320 -1.1076
 1672TIP3   OH226574   0.889   1.409   7.359  0.0997 -0.2849 -0.2535
 1672TIP3    H126575   0.861   1.478   7.299 -1.3576 -2.3530 -2.0810
 1672TIP3    H226576   0.930   1.343   7.302  1.3811 -0.9730  1.4127
 1673TIP3   OH226577   6.373   1.286   7.034 -0.5260 -0.1701 -0.1450
 1673TIP3    H126578   6.421   1.338   7.097 -2.6580 -1.7009  2.8704
 1673TIP3    H226579   6.428   1.209   7.019 -0.4958 -0.3040  0.6614
 1674TIP3   OH226580   5.237   5.627   7.791 -0.1639  0.3525 -0.7345
 1674TIP3    H126581   5.188   5.588   7.864  0.2661 -0.9275 -1.1154
 1674TIP3    H226582   5.268   5.552   7.740  0.5548  1.2050 -1.5741
 1675TIP3   OH226583   4.264   0.179   2.298 -0.0168  0.2019 -0.0369
 1675TIP3    H126584   4.302   0.259   2.335 -0.9089  0.4998  0.2501
 1675TIP3    H226585   4.183   0.208   2.256 -0.5033 -0.5922  0.3418
 1676TIP3   OH226586   6.292   3.426   6.658  0.2435  0.3752 -0.0239
 1676TIP3    H126587   6.295   3.344   6.706  0.6158  0.6722  0.4592
 1676TIP3    H226588   6.217   3.416   6.598 -1.2817  0.6597  1.7753
 1677TIP3   OH226589   6.693   2.896   5.941 -0.7893 -0.0434  0.4713
 1677TIP3    H126590   6.782   2.890   5.905 -0.5848  2.7297  0.4480
 1677TIP3    H226591   6.646   2.824   5.899  1.2189 -1.0191 -0.1850
 1678TIP3   OH226592   2.750   3.463   6.805 -0.3210  0.0507  0.1935
 1678TIP3    H126593   2.824   3.440   6.862 -0.1499 -0.3979 -0.2047
 1678TIP3    H226594   2.721   3.379   6.769 -0.9223  0.2465  0.2182
 1679TIP3   OH226595   1.390   3.494   6.909 -0.1128  0.3361 -0.1585
 1679TIP3    H126596   1.320   3.546   6.870 -0.8152 -0.3748  0.1577
 1679TIP3    H226597   1.396   3.526   6.999 -0.8105 -0.3966  0.1510
 1680TIP3   OH226598   6.128   2.506   6.699  0.4253 -0.7236  0.1334
 1680TIP3    H126599   6.194   2.440   6.677 -0.0633 -1.2616  0.2845
 1680TIP3    H226600   6.048   2.474   6.658  0.3333  0.1171 -0.3653
 1681TIP3   OH226601   2.476   5.393   7.020  0.3345 -0.2682 -0.0167
 1681TIP3    H126602   2.390   5.353   7.004  0.5155 -1.0727  1.0217
 1681TIP3    H226603   2.529   5.364   6.946 -0.5260  0.9889 -1.1670
 1682TIP3   OH226604   7.201   2.706   8.036  0.1524  0.5196  0.4751
 1682TIP3    H126605   7.210   2.611   8.047  1.5982  0.5425 -0.3615
 1682TIP3    H226606   7.107   2.722   8.042 -0.2498 -1.1717 -0.8232
 1683TIP3   OH226607   7.061   6.279   7.168 -0.5012 -0.3247  0.4599
 1683TIP3    H126608   7.050   6.342   7.097 -1.0516 -1.7044 -0.7189
 1683TIP3    H226609   6.977   6.281   7.214 -0.6114 -0.3709  0.2646
 1684TIP3   OH226610   0.628   2.352   0.770 -0.1154  0.6329 -0.0475
 1684TIP3    H126611   0.544   2.311   0.790 -0.0418 -0.3221 -1.6433
 1684TIP3    H226612   0.682   2.335   0.847 -0.4656 -1.2535 -0.1991
 1685TIP3   OH226613   6.528   4.787   6.190 -0.7960 -0.2090 -0.3965
 1685TIP3    H126614   6.544   4.847   6.117 -0.9004 -1.4232 -1.4459
 1685TIP3    H226615   6.581   4.822   6.262  0.8428 -0.0522 -1.6332
 1686TIP3   OH226616   0.154   4.708   6.179  0.1694  0.2158  0.4800
 1686TIP3    H126617   0.066   4.677   6.155 -0.0907  1.8029 -0.6905
 1686TIP3    H226618   0.213   4.638   6.152 -0.6945 -0.7093  0.9536
 1687TIP3   OH226619   6.569   2.670   5.835 -0.0914  0.8594  0.3947
 1687TIP3    H126620   6.489   2.655   5.784  0.0594 -0.1650  0.4463
 1687TIP3    H226621   6.616   2.586   5.831 -0.2512  0.6489  2.5447
 1688TIP3   OH226622   6.400   3.532   6.366 -0.0559  0.7896 -0.1192
 1688TIP3    H126623   6.488   3.517   6.329  0.4648  0.0798  1.3811
 1688TIP3    H226624   6.342   3.479   6.312  0.3140  1.9013 -1.6436
 1689TIP3   OH226625   7.039   1.501   7.567  0.1376 -0.3432 -0.1047
 1689TIP3    H126626   7.098   1.429   7.544  0.2003 -0.3351  0.0308
 1689TIP3    H226627   6.993   1.522   7.486  0.2548 -0.4124 -0.1881
 1690TIP3   OH226628   5.889   2.572   6.412  0.3493  0.3945  0.6484
 1690TIP3    H126629   5.817   2.614   6.460  0.5297  0.3609  0.9528
 1690TIP3    H226630   5.888   2.481   6.441 -0.3870  0.0480 -0.4242
 1691TIP3   OH226631   5.001   3.078   6.891 -0.4395  0.5573  0.7149
 1691TIP3    H126632   5.092   3.049   6.891 -0.2772  1.0417 -0.3083
 1691TIP3    H226633   5.006   3.173   6.900 -0.7086  0.8996 -2.2605
 1692TIP3   OH226634   7.148   2.153   0.073 -0.3328  0.2915 -0.1440
 1692TIP3    H126635   7.098   2.116   0.146  1.2557 -0.6897  0.4584
 1692TIP3    H226636   7.177   2.077   0.023  1.7654  0.7581  0.3206
 1693TIP3   OH226637   6.101   4.743   6.957  0.0101 -0.7716 -0.9227
 1693TIP3    H126638   6.150   4.661   6.954 -0.3037 -0.9149 -2.4726
 1693TIP3    H226639   6.045   4.740   6.879  0.4557  1.2006 -1.3352
 1694TIP3   OH226640   6.705   2.718   6.665  0.1446  0.5847 -0.1285
 1694TIP3    H126641   6.739   2.725   6.576  2.6831  1.0409  0.8350
 1694TIP3    H226642   6.625   2.666   6.656  0.2656  0.7827 -2.6827
 1695TIP3   OH226643   6.552   0.763   0.855 -0.2760  0.4260 -0.7629
 1695TIP3    H126644   6.596   0.683   0.883 -1.8032  0.0417  0.6330
 1695TIP3    H226645   6.482   0.732   0.797 -0.2296  0.8266 -1.0315
 1696TIP3   OH226646   5.979   3.189   5.720 -0.4044  0.2855  0.2027
 1696TIP3    H126647   5.884   3.201   5.713 -0.3963 -0.6160 -1.9412
 1696TIP3    H226648   5.990   3.097   5.743 -0.0510  0.3103  0.1349
 1697TIP3   OH226649   1.173   4.976   7.539 -0.0389  0.6465  1.0717
 1697TIP3    H126650   1.263   4.956   7.564 -0.0865 -0.1140  0.6479
 1697TIP3    H226651   1.159   5.066   7.570  0.3531  0.2221  2.5050
 1698TIP3   OH226652   7.142   1.306   7.413 -0.1553 -0.0425 -0.2870
 1698TIP3    H126653   7.067   1.248   7.423  0.3623 -0.5344  0.8898
 1698TIP3    H226654   7.217   1.253   7.439  0.5859  0.4965 -1.2765
 1699TIP3   OH226655   5.467   4.657   7.637 -0.1472 -0.1487 -0.1417
 1699TIP3    H126656   5.557   4.677   7.663  0.0790 -2.5370  1.0418
 1699TIP3    H226657   5.476   4.592   7.567 -0.9361  0.0648 -0.4500
 1700TIP3   OH226658   4.428   5.609   7.038 -0.0811  0.0674  0.0727
 1700TIP3    H126659   4.448   5.612   7.132 -0.4999  1.4692  0.1318
 1700TIP3    H226660   4.512   5.623   6.995 -0.2616  1.9112  0.2771
 1701TIP3   OH226661   0.318   6.217   7.415  0.1467  0.2712 -0.0423
 1701TIP3    H126662   0.361   6.241   7.497 -2.7568 -1.5237  2.1277
 1701TIP3    H226663   0.282   6.299   7.382 -1.4422  0.5279  2.2158
 1702TIP3   OH226664   0.635   2.084   8.330 -0.1553 -0.5147 -0.2514
 1702TIP3    H126665   0.681   2.168   8.336 -0.1511 -0.6341  1.5822
 1702TIP3    H226666   0.613   2.062   8.421  0.6104 -2.9310 -0.6270
 1703TIP3   OH226667   1.490   4.224   6.227  0.3534 -1.0106  0.1644
 1703TIP3    H126668   1.554   4.201   6.159  1.3046 -1.3336  1.1610
 1703TIP3    H226669   1.542   4.260   6.299 -0.9462  2.9720 -0.7403
 1704TIP3   OH226670   3.577   0.697   6.634  0.4457 -0.3829  0.4517
 1704TIP3    H126671   3.555   0.606   6.654  2.2365 -1.0359 -0.4273
 1704TIP3    H226672   3.610   0.694   6.544  2.1000  0.8696  0.9956
 1705TIP3   OH226673   5.942   4.392   6.737 -0.3427 -0.4527  0.0747
 1705TIP3    H126674   6.004   4.437   6.679  0.6330  0.0190  1.4511
 1705TIP3    H226675   5.911   4.317   6.686  0.5162 -0.0632 -1.0408
 1706TIP3   OH226676   6.517   1.701   6.446 -0.1570  0.0197 -0.0053
 1706TIP3    H126677   6.453   1.730   6.381 -0.4825  0.7278  0.6227
 1706TIP3    H226678   6.570   1.778   6.464 -0.6425  0.0780  1.2291
 1707TIP3   OH226679   1.527   0.038   8.275 -0.8639 -0.4092  0.5120
 1707TIP3    H126680   1.571   0.049   8.190 -1.2323  0.5015  0.4374
 1707TIP3    H226681   1.558  -0.047   8.307  1.5672  0.5624  0.8312
 1708TIP3   OH226682   4.777   0.437   6.221  0.3631  0.6892 -0.2082
 1708TIP3    H126683   4.692   0.414   6.185  0.9401 -1.3955 -0.3052
 1708TIP3    H226684   4.764   0.522   6.262 -1.7333  0.4509 -0.3430
 1709TIP3   OH226685   7.262   1.673   6.907 -0.2123 -0.1200 -0.3674
 1709TIP3    H126686   7.230   1.716   6.828 -1.9431 -1.6300 -0.5160
 1709TIP3    H226687   7.314   1.740   6.951  1.6224  0.4354 -3.2571
 1710TIP3   OH226688   4.899   1.697   7.231 -0.3822 -0.0578 -0.6993
 1710TIP3    H126689   4.837   1.645   7.281 -0.6325  0.1962 -0.7427
 1710TIP3    H226690   4.846   1.738   7.162 -0.4388  1.3102  0.1331
 1711TIP3   OH226691   1.676   4.975   7.204 -0.8677 -0.1383  0.0227
 1711TIP3    H126692   1.599   4.919   7.196 -0.5857 -0.4524 -0.5723
 1711TIP3    H226693   1.652   5.041   7.269 -1.4744 -0.5000  0.1674
 1712TIP3   OH226694   0.799   1.322   6.570 -0.2758  0.6654 -0.1009
 1712TIP3    H126695   0.808   1.391   6.637 -1.6377  0.3569  0.4135
 1712TIP3    H226696   0.888   1.310   6.537  0.0822  2.2567  0.2232
 1713TIP3   OH226697   5.585   2.151   6.875  0.4876 -0.0835 -0.1191
 1713TIP3    H126698   5.584   2.237   6.833 -0.7057  0.2074  0.5021
 1713TIP3    H226699   5.610   2.168   6.965  0.7009 -0.4418 -0.1097
 1714TIP3   OH226700   0.153   6.991   1.198 -0.1064  0.8653  0.3780
 1714TIP3    H126701   0.146   7.075   1.153  0.2003  0.2434 -0.8602
 1714TIP3    H226702   0.062   6.968   1.221 -0.2250  1.3560  0.3911
 1715TIP3   OH226703   0.940   2.549   0.558  0.0962  0.6460 -0.7464
 1715TIP3    H126704   0.854   2.512   0.540  0.6450 -1.2685  0.3850
 1715TIP3    H226705   0.926   2.608   0.631 -0.3055  0.5110 -0.7125
 1716TIP3   OH226706   6.551   2.274   6.625 -0.3997  0.0913  0.1634
 1716TIP3    H126707   6.583   2.256   6.537  0.4058  2.7135 -0.1020
 1716TIP3    H226708   6.574   2.195   6.675 -0.1668 -1.0960 -1.7561
 1717TIP3   OH226709   0.299   0.668   0.092 -0.2100 -0.1674 -0.3512
 1717TIP3    H126710   0.331   0.692   0.005 -0.6227 -0.8002 -0.6784
 1717TIP3    H226711   0.260   0.582   0.081 -0.0526 -0.3548  0.5146
 1718TIP3   OH226712   6.826   1.002   0.501 -0.2293  0.0909  0.2387
 1718TIP3    H126713   6.798   1.086   0.464 -1.9570 -0.2418  0.7655
 1718TIP3    H226714   6.750   0.945   0.491  0.9378 -1.4212 -0.1208
 1719TIP3   OH226715   5.678   0.655   8.471  0.3015 -0.0131 -0.4604
 1719TIP3    H126716   5.699   0.633   8.380  0.0405 -0.2574 -0.4633
 1719TIP3    H226717   5.585   0.634   8.479 -0.1034  1.6542 -0.6238
 1720TIP3   OH226718   5.338   0.190   0.339 -0.1455 -0.0092  0.0959
 1720TIP3    H126719   5.396   0.115   0.326 -1.8241 -1.4308  0.4771
 1720TIP3    H226720   5.381   0.242   0.407  0.9716 -0.7151 -0.0538
 1721TIP3   OH226721   2.739   7.149   7.007  0.0087 -0.0306 -0.3631
 1721TIP3    H126722   2.644   7.135   7.018 -0.1709  1.7137  0.5519
 1721TIP3    H226723   2.765   7.197   7.086  1.0794  2.1660 -1.9942
 1722TIP3   OH226724   1.948   4.286   7.503 -0.4234  0.2987 -0.3718
 1722TIP3    H126725   1.967   4.255   7.415 -2.3614  1.1806 -1.1505
 1722TIP3    H226726   1.972   4.379   7.501 -0.9603  0.4460 -0.1505
 1723TIP3   OH226727   7.123   0.925   8.074  0.0847  0.6560  0.0141
 1723TIP3    H126728   7.177   0.955   8.147  1.9898  1.5305 -1.7346
 1723TIP3    H226729   7.180   0.930   7.998 -2.1685  0.6748 -1.7179
 1724TIP3   OH226730   6.110   1.422   6.352 -0.0678 -0.1427  0.1721
 1724TIP3    H126731   6.153   1.419   6.266  0.4162 -0.6353  0.4256
 1724TIP3    H226732   6.137   1.341   6.395 -0.1172  0.2087  0.8787
 1725TIP3   OH226733   0.123   3.760   7.469 -0.0433  0.8340  0.2990
 1725TIP3    H126734   0.141   3.717   7.385 -1.1370  0.1619  0.4009
 1725TIP3    H226735   0.048   3.712   7.505  1.7713 -0.3159  2.6830
 1726TIP3   OH226736   0.669   1.954   7.594 -0.2544 -0.1428 -0.6183
 1726TIP3    H126737   0.585   1.914   7.616 -0.1815  0.2057  0.3117
 1726TIP3    H226738   0.726   1.881   7.573 -0.9123 -0.3573 -1.6949
 1727TIP3   OH226739   5.453   0.884   7.261  0.9975  0.3727  0.2900
 1727TIP3    H126740   5.432   0.792   7.251  1.2027  0.2880  0.6333
 1727TIP3    H226741   5.525   0.886   7.324  0.4517  0.8192  0.9080
 1728TIP3   OH226742   1.080   4.289   7.207  0.6677  0.1127 -0.2326
 1728TIP3    H126743   1.033   4.295   7.124 -0.2557 -1.6979  0.1227
 1728TIP3    H226744   1.048   4.364   7.258 -0.9353 -0.3820 -0.4715
 1729TIP3   OH226745   6.790   1.591   1.404  0.1367  0.1222  0.2488
 1729TIP3    H126746   6.867   1.616   1.353  1.2698 -2.6844  0.5202
 1729TIP3    H226747   6.735   1.542   1.344 -0.0568 -0.4169  0.8579
 1730TIP3   OH226748   1.130   3.938   6.883  0.0684  0.3615  0.6889
 1730TIP3    H126749   1.144   3.875   6.812 -1.8908  0.1716  0.4347
 1730TIP3    H226750   1.042   3.973   6.867  0.2852  1.5897  2.0496
 1731TIP3   OH226751   6.935   0.984   6.757  0.0126  0.7020  0.2534
 1731TIP3    H126752   6.848   0.972   6.717 -0.4849 -2.5196  2.1388
 1731TIP3    H226753   6.985   0.908   6.728  0.9107  0.4371  2.3889
 1732TIP3   OH226754   7.186   4.684   7.286 -0.0690 -0.4711  0.0114
 1732TIP3    H126755   7.151   4.691   7.375  0.1047  2.2030 -0.0906
 1732TIP3    H226756   7.194   4.590   7.271  0.2035 -0.9704  2.9447
 1733TIP3   OH226757   5.426   1.069   6.760  0.0427 -0.2606 -0.2523
 1733TIP3    H126758   5.412   1.018   6.840 -0.2015  1.3550  0.7789
 1733TIP3    H226759   5.521   1.083   6.757  0.1375 -0.9578 -0.6673
 1734TIP3   OH226760   4.682   2.139   6.962  0.3674  0.6692 -0.0275
 1734TIP3    H126761   4.768   2.169   6.931  0.1617 -0.3344 -1.5945
 1734TIP3    H226762   4.620   2.200   6.922  0.2248  0.4103 -0.1968
 1735TIP3   OH226763   7.263   1.693   7.501  0.1752  0.0278 -0.3271
 1735TIP3    H126764   7.182   1.730   7.538 -0.1887  0.2201 -1.2946
 1735TIP3    H226765   7.233   1.645   7.424  0.7914 -1.3162  0.2684
 1736TIP3   OH226766   1.364   6.790   0.694  0.2851 -0.5730 -0.1295
 1736TIP3    H126767   1.402   6.878   0.692 -0.1213 -0.3883  0.0128
 1736TIP3    H226768   1.294   6.793   0.629 -0.6575 -0.3496  0.8816
 1737TIP3   OH226769   4.469   7.241   7.698 -0.0587  0.4640 -0.0661
 1737TIP3    H126770   4.426   7.302   7.639  0.2390  0.7134 -0.0277
 1737TIP3    H226771   4.443   7.154   7.667  1.2592  0.5378 -1.4653
 1738TIP3   OH226772   5.884   6.262   8.485  0.4241 -0.5465 -0.0112
 1738TIP3    H126773   5.973   6.252   8.518  0.2608 -0.6223  0.4114
 1738TIP3    H226774   5.836   6.189   8.523 -0.2681  0.5920  1.3402
 1739TIP3   OH226775   5.267   5.098   6.677  0.2019  0.4648 -0.2815
 1739TIP3    H126776   5.268   5.068   6.587  1.4722  0.2295 -0.2016
 1739TIP3    H226777   5.175   5.118   6.695 -0.0842  0.3336 -1.5572
 1740TIP3   OH226778   2.551   4.472   1.561  0.1180 -0.3256  0.5996
 1740TIP3    H126779   2.507   4.465   1.645 -0.1447 -3.5970  0.2525
 1740TIP3    H226780   2.615   4.542   1.573 -2.8054  2.2018  2.1541
 1741TIP3   OH226781   4.230   5.553   0.307 -0.5141 -0.0642  0.1343
 1741TIP3    H126782   4.236   5.513   0.394  1.5270 -2.1977 -0.9645
 1741TIP3    H226783   4.270   5.639   0.318  0.8639 -0.8093  1.0138
 1742TIP3   OH226784   1.053   4.226   8.306 -0.3683  0.0574 -0.2747
 1742TIP3    H126785   1.072   4.138   8.337 -1.0483  0.0920  0.2732
 1742TIP3    H226786   1.050   4.219   8.211 -0.5960 -0.5473 -0.2244
 1743TIP3   OH226787   0.198   4.816   6.999 -0.1401  0.1368  0.5438
 1743TIP3    H126788   0.104   4.827   7.007 -0.3902 -0.8984 -0.8758
 1743TIP3    H226789   0.210   4.738   6.945  1.5500 -0.9191  2.3556
 1744TIP3   OH226790   1.925   3.282   7.115  0.4844 -0.1095 -0.3385
 1744TIP3    H126791   1.956   3.319   7.198  0.5028  0.9763 -0.8220
 1744TIP3    H226792   1.989   3.214   7.094  0.0642 -0.8879  0.9074
 1745TIP3   OH226793   7.136   1.975   8.317  0.2563  0.1147 -0.2187
 1745TIP3    H126794   7.149   1.884   8.289  2.3138  0.5566 -0.7863
 1745TIP3    H226795   7.041   1.988   8.313  0.1556 -1.1120 -2.9773
 1746TIP3   OH226796   3.003   4.326   7.538  0.2100 -0.6100  0.2740
 1746TIP3    H126797   3.024   4.316   7.631 -0.6072 -2.8516  0.2458
 1746TIP3    H226798   3.088   4.319   7.494  0.4904 -0.4957  0.7884
 1747TIP3   OH226799   3.284   4.932   7.385 -0.2987 -0.1520  0.4094
 1747TIP3    H126800   3.263   4.923   7.292  0.2630  0.8091  0.1799
 1747TIP3    H226801   3.364   4.881   7.397  0.5233  1.0311  0.0164
 1748TIP3   OH226802   1.831   5.020   7.947  0.5740  0.2242  0.3688
 1748TIP3    H126803   1.851   4.935   7.987  1.6759 -0.8993 -2.4847
 1748TIP3    H226804   1.831   5.081   8.021  0.2594 -2.1502  2.4084
 1749TIP3   OH226805   1.364   2.142   7.069 -0.0600 -0.1512 -0.6693
 1749TIP3    H126806   1.397   2.170   6.984 -0.8482  0.8420 -0.6661
 1749TIP3    H226807   1.440   2.145   7.127  0.9574 -2.8878 -1.7761
 1750TIP3   OH226808   6.290   5.199   7.275  0.1084 -0.2455  0.0468
 1750TIP3    H126809   6.215   5.236   7.229 -0.7281 -0.2626  1.4020
 1750TIP3    H226810   6.253   5.139   7.339  1.1600  1.4971  2.3313
 1751TIP3   OH226811   0.935   0.636   7.958  0.1780  0.2489 -0.3692
 1751TIP3    H126812   1.007   0.600   8.009  2.4941  1.8176 -2.3975
 1751TIP3    H226813   0.960   0.727   7.943 -2.1578  0.7686 -1.2907
 1752TIP3   OH226814   4.553   0.498   8.219  0.1197  0.1125  0.5900
 1752TIP3    H126815   4.616   0.560   8.256  1.3731 -0.3718 -0.7121
 1752TIP3    H226816   4.544   0.430   8.287  1.1550  0.0749  0.6873
 1753TIP3   OH226817   0.182   2.101   7.507  0.2420  0.6724 -0.3007
 1753TIP3    H126818   0.224   2.041   7.569  0.7267 -0.2965 -1.5382
 1753TIP3    H226819   0.244   2.173   7.497  1.6410 -0.7277 -2.0830
 1754TIP3   OH226820   5.985   2.378   6.147 -0.1082  0.5249  0.1640
 1754TIP3    H126821   5.967   2.472   6.149 -0.4817  0.4513  0.2565
 1754TIP3    H226822   6.047   2.367   6.075  0.5849  0.9545  0.6908
 1755TIP3   OH226823   7.036   0.419   7.823 -0.0533 -0.0728  0.2154
 1755TIP3    H126824   6.957   0.452   7.866 -0.1310  0.0317 -0.0077
 1755TIP3    H226825   7.108   0.462   7.869 -0.1972  1.4268 -0.9347
 1756TIP3   OH226826   6.068   2.161   6.319  0.1603  0.4696  0.0975
 1756TIP3    H126827   6.149   2.122   6.287 -0.8714 -1.1301 -0.6279
 1756TIP3    H226828   6.042   2.223   6.251 -0.5005 -0.8131 -0.8446
 1757TIP3   OH226829   4.536   7.037   8.388  0.3931 -0.8255 -0.0990
 1757TIP3    H126830   4.529   6.948   8.352 -1.3052 -0.7653  0.0012
 1757TIP3    H226831   4.593   7.083   8.328  1.1918 -1.9621 -0.2295
 1758TIP3   OH226832   5.756   1.784   6.458 -0.4083  0.1994 -0.1896
 1758TIP3    H126833   5.808   1.704   6.448 -0.3699  0.3134 -0.9251
 1758TIP3    H226834   5.666   1.754   6.465 -0.1292 -0.0812  2.4052
 1759TIP3   OH226835   7.085   7.278   1.365  0.2355 -0.4811 -0.1550
 1759TIP3    H126836   7.064   7.316   1.279  1.5299 -1.3272 -0.8556
 1759TIP3    H226837   7.066   7.185   1.355 -1.2802 -0.3249  1.0305
 1760TIP3   OH226838   2.813   3.695   1.218 -0.4487 -0.0772  0.0414
 1760TIP3    H126839   2.804   3.787   1.192 -0.8761  0.2107  1.1529
 1760TIP3    H226840   2.861   3.699   1.302  0.5100 -0.9376 -0.4476
 1761TIP3   OH226841   2.881   3.819   6.185  1.0344 -0.0362 -0.1089
 1761TIP3    H126842   2.967   3.860   6.199  0.7534  0.0380  1.4697
 1761TIP3    H226843   2.825   3.858   6.252 -0.0397 -0.6672 -0.6340
 1762TIP3   OH226844   1.959   1.536   1.048 -0.5250  0.2356  0.1342
 1762TIP3    H126845   2.026   1.536   0.979  0.2714  3.0774  0.8247
 1762TIP3    H226846   1.993   1.596   1.114 -0.6181 -3.4454  3.7361
 1763TIP3   OH226847   6.696   4.485   7.617 -0.2588  0.1906 -0.2133
 1763TIP3    H126848   6.637   4.560   7.607  1.7985  1.6422 -1.8187
 1763TIP3    H226849   6.668   4.424   7.549 -0.0858  0.7506 -0.7894
 1764TIP3   OH226850   0.661   2.809   2.261  0.5646 -0.6617 -0.6604
 1764TIP3    H126851   0.693   2.869   2.193 -0.5899 -0.7857 -1.3173
 1764TIP3    H226852   0.602   2.863   2.314 -0.4833 -1.2227 -1.2592
 1765TIP3   OH226853   0.124   6.036   8.039  0.1226  0.3589  0.2246
 1765TIP3    H126854   0.137   6.025   8.134  0.8681  0.8484  0.1858
 1765TIP3    H226855   0.205   6.003   8.000 -0.0893  0.3708 -0.2254
 1766TIP3   OH226856   0.959   4.027   8.027  0.1233 -0.7468  0.7696
 1766TIP3    H126857   0.891   4.005   8.090 -1.9371  0.5406 -0.9454
 1766TIP3    H226858   0.926   3.995   7.943  1.6010 -0.0022 -0.1244
 1767TIP3   OH226859   0.210   4.948   7.687  0.2680 -0.0119  0.1992
 1767TIP3    H126860   0.236   4.971   7.598  1.1659 -0.5938  0.3022
 1767TIP3    H226861   0.142   4.882   7.676 -2.2936  2.5464 -0.1019
 1768TIP3   OH226862   0.406   4.237   6.479 -0.4771 -0.0102 -0.0453
 1768TIP3    H126863   0.413   4.177   6.404  0.1150  0.2017 -0.1582
 1768TIP3    H226864   0.471   4.305   6.461  0.1807 -0.3537  1.0320
 1769TIP3   OH226865   6.840   4.262   1.462 -0.1514  0.4796 -0.0764
 1769TIP3    H126866   6.917   4.238   1.410 -1.7724  1.1049 -2.8659
 1769TIP3    H226867   6.799   4.178   1.484  1.4624  0.1278  1.6921
 1770TIP3   OH226868   0.025   6.252   6.397  0.0018  0.3328  0.5288
 1770TIP3    H126869  -0.032   6.327   6.383 -0.4428 -0.0390  0.3656
 1770TIP3    H226870   0.064   6.235   6.311 -1.0919 -0.6023  0.2110
 1771TIP3   OH226871   7.062   5.791   7.726 -0.4229  0.0692 -0.2721
 1771TIP3    H126872   7.034   5.777   7.817  0.3903 -0.9415 -0.1721
 1771TIP3    H226873   6.984   5.826   7.683 -0.7908  0.6728  0.8383
 1772TIP3   OH226874   0.582   4.769   1.497  0.0050 -0.0598  0.1123
 1772TIP3    H126875   0.555   4.680   1.519 -1.5949  0.1413 -0.9227
 1772TIP3    H226876   0.500   4.818   1.492  0.8661  1.4491  0.5526
 1773TIP3   OH226877   2.841   1.751   1.216  0.0518 -0.2086 -0.2452
 1773TIP3    H126878   2.927   1.755   1.258 -0.3570 -0.3270  0.6113
 1773TIP3    H226879   2.780   1.732   1.287 -0.7462  0.3570 -0.7709
 1774TIP3   OH226880   4.400   6.647   1.016  0.1617  0.5787  0.0073
 1774TIP3    H126881   4.479   6.675   0.969  0.6348 -0.0712  0.4046
 1774TIP3    H226882   4.357   6.729   1.042  1.4058  0.9573  0.9524
 1775TIP3   OH226883   1.013   5.806   7.095  0.2714 -0.3197  0.1987
 1775TIP3    H126884   1.070   5.793   7.019 -0.7814 -1.8498 -0.3401
 1775TIP3    H226885   0.926   5.816   7.059  0.4756  4.9285  0.8261
 1776TIP3   OH226886   4.241   2.181   7.439  0.3057  0.9071  0.1536
 1776TIP3    H126887   4.325   2.213   7.405  0.4099  0.4485 -0.0233
 1776TIP3    H226888   4.175   2.228   7.387  0.4631  0.5316 -0.3863
 1777TIP3   OH226889   6.762   4.461   1.688  0.0765 -0.3273 -0.0997
 1777TIP3    H126890   6.801   4.390   1.637 -1.1029 -0.8663 -0.2566
 1777TIP3    H226891   6.749   4.425   1.776 -1.4919 -0.6612 -0.4511
 1778TIP3   OH226892   2.177   4.408   0.861 -0.0042 -0.2694 -0.1896
 1778TIP3    H126893   2.226   4.381   0.783  0.4053 -0.7573  0.2368
 1778TIP3    H226894   2.123   4.482   0.831  0.3349 -0.2978 -0.8722
 1779TIP3   OH226895   0.846   4.818   0.640  0.0474 -0.1423  0.0882
 1779TIP3    H126896   0.764   4.848   0.601 -0.3326 -0.7681  0.4027
 1779TIP3    H226897   0.912   4.882   0.610 -0.3818 -0.1744 -0.9224
 1780TIP3   OH226898   0.468   2.804   7.397  0.1851  0.7304  0.2369
 1780TIP3    H126899   0.470   2.714   7.365  1.0838  0.4846  0.9720
 1780TIP3    H226900   0.500   2.799   7.487 -0.9192  1.6140  0.7004
 1781TIP3   OH226901   0.775   4.679   7.331  0.0670 -0.0553 -0.1676
 1781TIP3    H126902   0.742   4.757   7.287  2.2991 -0.2577 -2.2937
 1781TIP3    H226903   0.826   4.713   7.405  1.1594  0.5129 -1.1752
 1782TIP3   OH226904   0.302   5.361   7.780 -0.5975  0.3532 -0.6227
 1782TIP3    H126905   0.261   5.440   7.814 -0.8719  0.6784 -1.6855
 1782TIP3    H226906   0.242   5.330   7.712  0.3845  0.2199 -1.4348
 1783TIP3   OH226907   6.115   6.796   7.707  0.1881 -0.1338 -0.3056
 1783TIP3    H126908   6.158   6.832   7.629 -1.4095 -1.4287 -1.8241
 1783TIP3    H226909   6.026   6.830   7.703 -0.2084 -1.0841  0.3738
 1784TIP3   OH226910   3.521   5.304   6.897 -0.0426  0.4004 -0.2537
 1784TIP3    H126911   3.551   5.345   6.815 -1.0732  0.4086 -0.6357
 1784TIP3    H226912   3.535   5.211   6.883  0.5874  0.4671 -0.0981
 1785TIP3   OH226913   0.503   3.127   6.665 -0.0883  0.9029 -0.0528
 1785TIP3    H126914   0.454   3.103   6.586  0.4399  1.9124 -0.7034
 1785TIP3    H226915   0.590   3.090   6.651  0.2194  1.6864 -0.2892
 1786TIP3   OH226916   2.590   5.901   7.347  0.1323 -0.2969  0.1812
 1786TIP3    H126917   2.523   5.875   7.284  0.0098 -0.4668  0.3804
 1786TIP3    H226918   2.673   5.893   7.299  0.1777 -1.8744  0.4700
 1787TIP3   OH226919   7.124   6.022   6.193 -0.6625  0.0799  0.1940
 1787TIP3    H126920   7.214   6.030   6.162 -1.4607  0.6823 -2.0769
 1787TIP3    H226921   7.120   5.936   6.234  0.9037 -0.0161  0.1674
 1788TIP3   OH226922   1.180   4.188   1.651 -0.4730 -0.1251  0.1800
 1788TIP3    H126923   1.268   4.154   1.633  0.2810  1.9240 -0.1620
 1788TIP3    H226924   1.184   4.217   1.742 -1.0453 -0.7672  0.4077
 1789TIP3   OH226925   3.238   3.397   7.836 -0.5941  0.1481  0.0185
 1789TIP3    H126926   3.301   3.424   7.769 -2.5032  0.6842 -1.6198
 1789TIP3    H226927   3.223   3.304   7.818 -1.8185  0.5133 -0.9367
 1790TIP3   OH226928   2.177   5.133   7.832 -0.2559  0.0334 -0.3622
 1790TIP3    H126929   2.090   5.124   7.793 -0.5061  0.9255 -0.0407
 1790TIP3    H226930   2.237   5.096   7.767 -0.6941  1.1679 -1.4345
 1791TIP3   OH226931   6.952   5.081   6.619  0.6482 -0.1303 -0.0672
 1791TIP3    H126932   6.970   5.098   6.712 -0.1518 -0.2380  0.1142
 1791TIP3    H226933   6.998   5.151   6.572 -0.0224  0.7009  0.4921
 1792TIP3   OH226934   2.622   5.307   6.195 -0.0812  0.3655  0.6853
 1792TIP3    H126935   2.651   5.324   6.105 -2.1245  0.9719  0.1218
 1792TIP3    H226936   2.703   5.298   6.245  1.1247 -1.8203 -1.5537
 1793TIP3   OH226937   2.598   3.865   1.771 -0.1971 -0.4233 -0.7564
 1793TIP3    H126938   2.519   3.860   1.717  0.5605 -1.8444 -1.7650
 1793TIP3    H226939   2.655   3.795   1.737  1.1620  0.0569  0.4826
 1794TIP3   OH226940   1.947   3.471   7.793 -0.0636  0.1674  0.5708
 1794TIP3    H126941   1.946   3.529   7.869 -0.0724 -0.1101  0.7794
 1794TIP3    H226942   1.903   3.521   7.724 -0.0233  0.4301  0.7366
 1795TIP3   OH226943   7.190   5.373   0.467 -0.1246 -0.3732  0.2337
 1795TIP3    H126944   7.168   5.413   0.383 -0.0192 -0.2366  0.2698
 1795TIP3    H226945   7.249   5.300   0.445 -2.7903 -2.4883 -0.1034
 1796TIP3   OH226946   5.087   4.754   7.457  0.4601 -0.0436  0.5062
 1796TIP3    H126947   5.165   4.776   7.508  0.1128  0.3485  0.8713
 1796TIP3    H226948   5.120   4.698   7.387  1.3190  1.4231 -0.2835
 1797TIP3   OH226949   0.293   5.893   7.764 -0.0715 -0.2729  0.6528
 1797TIP3    H126950   0.308   5.803   7.737 -0.2115 -0.1621  0.1996
 1797TIP3    H226951   0.203   5.912   7.735  0.8648  0.8802 -1.6507
 1798TIP3   OH226952   1.372   2.859   8.388 -0.6134  0.1902 -0.0800
 1798TIP3    H126953   1.364   2.936   8.331 -0.8527  0.7467  0.6962
 1798TIP3    H226954   1.466   2.850   8.403 -0.6734  1.1838  0.9631
 1799TIP3   OH226955   0.501   2.113   0.549  0.0529 -0.2930 -0.4383
 1799TIP3    H126956   0.546   2.083   0.627  0.9999  0.3531 -0.7212
 1799TIP3    H226957   0.411   2.082   0.559  0.1495 -0.1625  0.9338
 1800TIP3   OH226958   2.295   4.561   6.403 -0.7201 -0.1834 -0.0904
 1800TIP3    H126959   2.285   4.648   6.442  1.2520  0.3423 -0.6949
 1800TIP3    H226960   2.260   4.570   6.314 -1.0914 -0.2007  0.0500
 1801TIP3   OH226961   1.450   3.446   6.473  0.5044  0.4093  0.2265
 1801TIP3    H126962   1.398   3.393   6.533  1.1388  1.4933  1.7894
 1801TIP3    H226963   1.496   3.383   6.418 -1.8356 -0.5743 -0.6733
 1802TIP3   OH226964   2.781   6.677   5.876 -0.5105 -0.2087 -0.3251
 1802TIP3    H126965   2.762   6.713   5.962  0.5975  0.4910 -0.3594
 1802TIP3    H226966   2.747   6.588   5.878  0.3979 -0.5356  1.1848
 1803TIP3   OH226967   6.119   5.388   7.151  0.0341  0.6347  0.1098
 1803TIP3    H126968   6.201   5.356   7.113 -0.1528  2.1554 -1.6633
 1803TIP3    H226969   6.050   5.352   7.095 -0.5182 -0.6062  1.5698
 1804TIP3   OH226970   0.081   5.014   7.288 -0.2742  0.0005  0.0768
 1804TIP3    H126971   0.163   5.052   7.321 -0.3813  0.0829  0.2460
 1804TIP3    H226972   0.038   5.085   7.242 -0.2028 -0.0692 -0.1002
 1805TIP3   OH226973   0.564   6.438   7.148 -0.1854 -0.5403  0.0055
 1805TIP3    H126974   0.501   6.482   7.207 -0.3950 -0.9608  0.0993
 1805TIP3    H226975   0.649   6.458   7.185 -0.3655 -1.6560  1.0528
 1806TIP3   OH226976   0.921   0.581   0.787 -0.7264  0.0012  0.2514
 1806TIP3    H126977   0.878   0.663   0.811  0.3640  0.6606 -0.0120
 1806TIP3    H226978   0.941   0.539   0.870 -0.8118  0.2560  0.4010
 1807TIP3   OH226979   1.423   6.633   6.912  0.5151 -0.1792  0.1642
 1807TIP3    H126980   1.508   6.660   6.878  0.7959 -2.4061 -1.0587
 1807TIP3    H226981   1.360   6.664   6.846  0.3715  1.4611  1.0651
 1808TIP3   OH226982   7.195   0.433   0.726  0.0665  0.3075  0.3092
 1808TIP3    H126983   7.205   0.526   0.703  0.3137  0.3651  0.6356
 1808TIP3    H226984   7.141   0.433   0.804 -3.3052 -0.0583 -1.9163
 1809TIP3   OH226985   2.509   5.099   0.659 -0.2566  0.1450  0.2108
 1809TIP3    H126986   2.538   5.017   0.620  0.4932 -0.1343  1.3274
 1809TIP3    H226987   2.442   5.073   0.723 -0.4401  0.4672  0.1533
 1810TIP3   OH226988   1.455   5.239   7.437  0.4065  0.7682 -0.4001
 1810TIP3    H126989   1.524   5.273   7.379  0.5062 -0.0303 -0.7519
 1810TIP3    H226990   1.377   5.236   7.382  0.0582  1.7720  0.0278
 1811TIP3   OH226991   3.545   4.748   6.504  0.4522  0.0106  0.2171
 1811TIP3    H126992   3.591   4.691   6.566  0.2877 -0.6987 -0.3137
 1811TIP3    H226993   3.573   4.718   6.418 -1.2022 -0.5877 -0.1158
 1812TIP3   OH226994   7.203   6.619   7.923 -0.4338 -0.3167 -0.2052
 1812TIP3    H126995   7.279   6.569   7.894  1.0020  1.0277  1.0863
 1812TIP3    H226996   7.206   6.614   8.019 -1.6151  0.2764 -0.1243
 1813TIP3   OH226997   2.148   5.588   6.433 -0.4814  0.1295 -0.0765
 1813TIP3    H126998   2.176   5.510   6.386 -1.5749 -0.4796  0.2744
 1813TIP3    H226999   2.217   5.605   6.497 -0.1210 -0.3976 -0.3303
 1814TIP3   OH227000   1.467   5.270   8.021 -0.3307 -0.1444 -0.2750
 1814TIP3    H127001   1.428   5.328   8.086 -2.4607 -1.9783  0.1270
 1814TIP3    H227002   1.471   5.184   8.064 -0.4058 -1.0548 -2.0189
 1815TIP3   OH227003   7.197   5.359   6.556  0.7127 -0.4681  0.9493
 1815TIP3    H127004   7.236   5.301   6.491  0.5087  2.2271 -1.7040
 1815TIP3    H227005   7.102   5.351   6.541  0.7147  1.1147  0.0123
 1816TIP3   OH227006   2.707   3.432   1.235  0.2264  1.1049 -0.2825
 1816TIP3    H127007   2.770   3.364   1.210 -1.5654 -0.6267 -0.2507
 1816TIP3    H227008   2.756   3.514   1.228  1.8795  0.0055 -2.2870
 1817TIP3   OH227009   1.309   3.074   1.284 -0.2649  0.2286 -0.7717
 1817TIP3    H127010   1.326   2.982   1.266  2.3904  0.6056 -0.3797
 1817TIP3    H227011   1.366   3.096   1.358 -1.6409  1.9152 -0.1748
 1818TIP3   OH227012   1.016   4.839   7.022  0.2924  0.1831  0.3240
 1818TIP3    H127013   1.054   4.824   7.108  0.2772 -0.4843  0.2200
 1818TIP3    H227014   0.922   4.844   7.037  0.2481 -0.4507  0.2834
 1819TIP3   OH227015   3.902   4.375   1.296 -0.3347 -0.3597  0.0834
 1819TIP3    H127016   3.952   4.294   1.286 -1.0442 -0.5558 -2.1074
 1819TIP3    H227017   3.965   4.445   1.279  0.2926 -0.4314  2.0371
 1820TIP3   OH227018   1.552   1.850   0.995 -0.4019  0.4926 -0.0322
 1820TIP3    H127019   1.604   1.903   1.056 -0.1832  1.2286 -0.8402
 1820TIP3    H227020   1.505   1.914   0.941  0.5514 -0.1072 -1.6149
 1821TIP3   OH227021   2.316   5.433   0.426  0.4897 -0.6256  0.3026
 1821TIP3    H127022   2.393   5.415   0.372  0.6844  3.2657 -0.8506
 1821TIP3    H227023   2.242   5.416   0.367  0.6177  0.2894 -0.1336
 1822TIP3   OH227024   2.019   4.061   7.973 -0.4246 -0.1464  0.3110
 1822TIP3    H127025   2.047   4.145   7.936 -0.6036 -0.2139  0.0212
 1822TIP3    H227026   1.927   4.075   7.997  0.3000  0.5959  2.7931
 1823TIP3   OH227027   6.540   6.718   6.510 -0.2341  0.3458 -0.2962
 1823TIP3    H127028   6.517   6.670   6.589  0.3640 -1.0088 -0.9303
 1823TIP3    H227029   6.526   6.655   6.439 -0.7167  1.5252 -1.2652
 1824TIP3   OH227030   0.373   6.512   6.946 -0.0971  0.2887 -0.0860
 1824TIP3    H127031   0.412   6.579   7.003 -1.7424  0.6727  0.6186
 1824TIP3    H227032   0.341   6.446   7.007 -2.0326  0.7851 -0.5527
 1825TIP3   OH227033   6.034   5.024   7.048  0.3932 -0.5703 -0.2353
 1825TIP3    H127034   5.939   5.012   7.042  0.5666 -1.5192 -1.2238
 1825TIP3    H227035   6.066   4.947   7.093  0.6964 -0.1990  0.1922
 1826TIP3   OH227036   0.328   3.421   7.631 -0.2993 -0.0647  0.3596
 1826TIP3    H127037   0.367   3.384   7.552  0.5183  0.5587  0.4608
 1826TIP3    H227038   0.331   3.516   7.617 -0.8603  0.0214  0.8034
 1827TIP3   OH227039   6.969   1.656   7.128 -0.2865 -0.2591  0.2223
 1827TIP3    H127040   6.948   1.740   7.089  2.3718  0.0898 -0.5640
 1827TIP3    H227041   6.971   1.595   7.054  1.5521 -0.2314  0.2187
 1828TIP3   OH227042   1.291   4.583   7.978 -0.4830 -0.2290 -0.3733
 1828TIP3    H127043   1.291   4.500   8.027 -0.9189 -0.0325 -0.0308
 1828TIP3    H227044   1.305   4.650   8.045 -3.8382  0.2731 -0.0734
 1829TIP3   OH227045   0.973   4.059   0.413  0.3199  0.0853  0.5339
 1829TIP3    H127046   0.913   4.132   0.399  1.0827  0.2524 -2.0479
 1829TIP3    H227047   1.061   4.097   0.402  0.7774 -0.8684  0.8139
 1830TIP3   OH227048   0.196   4.190   6.659  0.0801 -0.5127 -0.6564
 1830TIP3    H127049   0.260   4.184   6.588  1.3156  1.0962  0.2995
 1830TIP3    H227050   0.144   4.268   6.637 -0.1754 -0.5858 -0.3131
 1831TIP3   OH227051   0.326   1.374   1.313  0.0248  0.4316  0.3866
 1831TIP3    H127052   0.330   1.443   1.247 -1.8297  0.3682  0.1968
 1831TIP3    H227053   0.309   1.294   1.263  1.5527 -0.0871  0.6674
 1832TIP3   OH227054   5.270   3.805   6.318  0.3313  0.3426 -0.4199
 1832TIP3    H127055   5.364   3.826   6.321  0.7639 -1.3465 -1.8730
 1832TIP3    H227056   5.247   3.811   6.226 -0.2456 -2.3380 -0.4886
 1833TIP3   OH227057   1.321   3.981   6.643  0.0127  0.3398 -0.3171
 1833TIP3    H127058   1.410   4.010   6.665 -0.1318  0.8769 -0.4243
 1833TIP3    H227059   1.332   3.892   6.611  0.6365  0.7325 -1.2271
 1834TIP3   OH227060   1.278   6.146   0.697 -0.2967  0.3806 -0.1366
 1834TIP3    H127061   1.264   6.118   0.787  0.0064 -0.1580 -0.2621
 1834TIP3    H227062   1.362   6.109   0.672 -1.5877 -1.7090 -1.5272
 1835TIP3   OH227063   0.497   4.085   6.236  0.0488  0.0550 -0.4421
 1835TIP3    H127064   0.575   4.041   6.203 -0.1373 -0.3450 -0.3539
 1835TIP3    H227065   0.501   4.173   6.199 -0.1359 -0.3749 -1.5054
 1836TIP3   OH227066   2.156   5.867   6.580 -0.6589 -0.4740  0.1400
 1836TIP3    H127067   2.207   5.932   6.628  0.9836 -1.8972  0.3415
 1836TIP3    H227068   2.122   5.808   6.647 -2.4437  0.3473 -0.0067
 1837TIP3   OH227069   2.236   3.456   6.893  0.1646  0.0696 -0.0171
 1837TIP3    H127070   2.256   3.452   6.986  0.7533  2.3409 -0.0169
 1837TIP3    H227071   2.167   3.521   6.886 -0.1281 -0.3454 -1.1317
 1838TIP3   OH227072   2.488   6.052   2.400  0.3696 -0.5245  0.2318
 1838TIP3    H127073   2.557   6.116   2.417 -0.8836  0.4901  1.7292
 1838TIP3    H227074   2.509   5.978   2.457  0.0831 -0.0984  0.8980
 1839TIP3   OH227075   1.402   3.724   6.596  0.3603  0.0010  0.0269
 1839TIP3    H127076   1.328   3.676   6.633 -0.5578  0.4140 -1.2317
 1839TIP3    H227077   1.454   3.659   6.550  1.2805 -0.4440  1.6398
 1840TIP3   OH227078   2.748   7.120   0.556  0.2390 -0.2284 -0.1345
 1840TIP3    H127079   2.763   7.026   0.568  1.3324 -0.0039  0.3109
 1840TIP3    H227080   2.677   7.140   0.617  1.0037 -0.4792  0.8525
 1841TIP3   OH227081   0.880   0.463   0.535 -0.5585  0.5573 -0.3342
 1841TIP3    H127082   0.894   0.499   0.622 -1.1454 -0.2231  0.0952
 1841TIP3    H227083   0.803   0.510   0.502 -1.2337 -0.1904  0.1649
 1842TIP3   OH227084   2.206   4.697   1.159 -0.3230  0.3948 -0.1406
 1842TIP3    H127085   2.111   4.709   1.153 -0.3676  1.4229  1.9329
 1842TIP3    H227086   2.216   4.622   1.218  0.1522  0.8876  0.4096
 1843TIP3   OH227087   2.831   2.701   8.473 -0.0551  0.4236 -0.0193
 1843TIP3    H127088   2.913   2.658   8.500 -0.5412 -0.9422 -0.6398
 1843TIP3    H227089   2.860   2.774   8.418  0.8436  1.8237  2.2369
 1844TIP3   OH227090   1.699   5.245   7.322  0.1754  0.1150 -0.4735
 1844TIP3    H127091   1.744   5.315   7.275  0.1402  1.0811  0.9061
 1844TIP3    H227092   1.761   5.216   7.389 -0.0689 -0.7182 -0.5947
 1845TIP3   OH227093   0.043   6.068   7.491 -0.7703 -0.2604  0.0184
 1845TIP3    H127094  -0.025   6.060   7.425  0.4216  0.6164 -1.3394
 1845TIP3    H227095   0.102   6.135   7.457  0.6923 -0.8866  1.2427
 1846TIP3   OH227096   1.013   4.164   7.710 -0.3571 -0.5462 -0.1905
 1846TIP3    H127097   1.092   4.216   7.701  1.4909 -3.2330  0.0823
 1846TIP3    H227098   0.997   4.128   7.623 -0.8821 -0.6031 -0.0771
 1847TIP3   OH227099   3.384   2.418   6.466 -0.0705 -0.5275 -0.3154
 1847TIP3    H127100   3.428   2.338   6.437  1.4003 -0.2394  1.0485
 1847TIP3    H227101   3.303   2.420   6.415  1.5296 -0.9928 -3.0328
 1848TIP3   OH227102   6.462   6.762   0.817  0.1163  0.6786  0.3925
 1848TIP3    H127103   6.541   6.795   0.860 -0.4537  2.6484 -0.0340
 1848TIP3    H227104   6.391   6.814   0.854 -0.8496 -0.2586 -0.1195
 1849TIP3   OH227105   0.239   0.800   7.743 -0.2648 -0.2202  0.1233
 1849TIP3    H127106   0.229   0.743   7.667  0.8305  1.5455 -1.3702
 1849TIP3    H227107   0.317   0.766   7.788  0.5137  0.2193 -0.8802
 1850TIP3   OH227108   0.733   5.688   8.474 -0.0964 -0.1310 -0.1427
 1850TIP3    H127109   0.688   5.770   8.494 -0.4177 -1.0342  3.1824
 1850TIP3    H227110   0.679   5.646   8.408 -0.1908  2.1060 -1.5234
 1851TIP3   OH227111   6.510   7.297   1.083 -0.3477 -0.1165 -0.3236
 1851TIP3    H127112   6.431   7.243   1.074 -1.4225  1.1701  1.1423
 1851TIP3    H227113   6.482   7.384   1.054 -0.0413  0.8179  2.0868
 1852TIP3   OH227114   0.203   5.855   7.480 -0.3676 -0.1050 -0.6445
 1852TIP3    H127115   0.180   5.815   7.396  0.1442  0.2390 -0.9573
 1852TIP3    H227116   0.134   5.919   7.496 -0.2055  0.1715 -1.0473
 1853TIP3   OH227117   0.310   4.649   2.024 -0.0658  0.3965  0.6569
 1853TIP3    H127118   0.339   4.580   1.964 -2.6793  1.1742 -1.5895
 1853TIP3    H227119   0.297   4.726   1.968 -1.4343  1.4842  2.4146
 1854TIP3   OH227120   0.800   5.117   6.645 -0.2686  0.1254  0.3307
 1854TIP3    H127121   0.714   5.081   6.627 -1.0289  1.2228  1.6143
 1854TIP3    H227122   0.784   5.210   6.665  1.1051  0.1991  1.2334
 1855TIP3   OH227123   6.198   6.771   6.836  0.0370  0.4102 -0.5362
 1855TIP3    H127124   6.144   6.768   6.915  1.7754 -2.6143  0.6733
 1855TIP3    H227125   6.274   6.824   6.861  1.2605 -1.6821  0.3792
 1856TIP3   OH227126   2.211   5.698   7.447  0.3229 -0.0887  0.0650
 1856TIP3    H127127   2.216   5.614   7.492  0.8766 -0.4414 -0.6554
 1856TIP3    H227128   2.296   5.739   7.463  0.1716  0.1998  0.1393
 1857TIP3   OH227129   1.255   6.929   8.169  0.0176  0.2435 -0.5425
 1857TIP3    H127130   1.250   7.001   8.105 -1.7353 -1.5359 -2.4623
 1857TIP3    H227131   1.319   6.869   8.131 -0.8153 -0.6747 -0.5088
 1858TIP3   OH227132   0.059   4.465   6.633 -0.1042 -0.3262  0.0622
 1858TIP3    H127133   0.003   4.477   6.556 -0.1535 -1.3082 -0.0660
 1858TIP3    H227134   0.110   4.546   6.638  0.0907 -0.3628 -1.1604
 1859TIP3   OH227135   5.060   1.267   1.218  0.2913 -0.4349 -0.0150
 1859TIP3    H127136   4.999   1.221   1.275 -1.1220 -1.4783 -2.2919
 1859TIP3    H227137   5.109   1.325   1.277 -2.3370 -0.1508  1.9639
 1860TIP3   OH227138   2.329   2.726   0.407  0.1770  0.2779 -0.0440
 1860TIP3    H127139   2.385   2.699   0.334  0.0913 -0.5990  0.2141
 1860TIP3    H227140   2.272   2.793   0.369  0.8713  0.6136 -0.5096
 1861TIP3   OH227141   1.163   4.685   6.737  0.0863 -0.3687 -0.3584
 1861TIP3    H127142   1.220   4.633   6.681  0.0630 -0.1748 -0.5587
 1861TIP3    H227143   1.113   4.740   6.677  0.8988  0.6886 -0.0856
 1862TIP3   OH227144   0.471   7.129   7.181  0.2714 -0.5901  0.3801
 1862TIP3    H127145   0.530   7.084   7.241 -0.0268  0.5546  1.5676
 1862TIP3    H227146   0.439   7.061   7.122 -1.5897 -2.3057  3.2502
 1863TIP3   OH227147   0.356   6.003   0.655 -0.1273  0.4796  0.3956
 1863TIP3    H127148   0.262   6.023   0.664 -0.2900  0.5341 -1.3289
 1863TIP3    H227149   0.391   6.075   0.603  0.4907 -0.5481 -0.6215
 1864TIP3   OH227150   1.330   2.799   1.303 -0.2588 -0.0895  0.1837
 1864TIP3    H127151   1.413   2.761   1.332  0.4338  1.9790  1.0132
 1864TIP3    H227152   1.283   2.818   1.383 -1.7027 -1.5737 -0.3016
 1865TIP3   OH227153   1.498   3.043   0.340  0.5930  0.4171 -0.1285
 1865TIP3    H127154   1.479   2.960   0.297  1.5871 -0.0236  0.2671
 1865TIP3    H227155   1.415   3.069   0.381 -0.2226  0.5762 -1.8323
 1866TIP3   OH227156   1.706   5.528   6.338 -1.0430 -0.3409 -0.2884
 1866TIP3    H127157   1.761   5.452   6.321  1.2313  1.5239 -1.6315
 1866TIP3    H227158   1.767   5.595   6.370 -2.3439  2.0409 -2.6317
 1867TIP3   OH227159   7.217   0.454   8.198  0.2346  0.1370 -0.0448
 1867TIP3    H127160   7.302   0.425   8.228  0.0323  0.9383  1.3305
 1867TIP3    H227161   7.154   0.413   8.257 -0.1358  2.0649  0.9262
 1868TIP3   OH227162   7.213   4.630   1.448 -0.3766 -0.1490 -0.4775
 1868TIP3    H127163   7.249   4.600   1.365 -0.5389 -1.1421 -0.1927
 1868TIP3    H227164   7.165   4.555   1.482  1.5751 -0.5160  1.6010
 1869TIP3   OH227165   3.394   6.354   8.116 -0.4565 -0.5736  0.4785
 1869TIP3    H127166   3.333   6.382   8.048 -1.0208 -0.2693  1.0915
 1869TIP3    H227167   3.463   6.420   8.115  0.2654 -1.3379 -0.7347
 1870TIP3   OH227168   4.092   5.886   1.060 -0.2700  0.3283  0.0247
 1870TIP3    H127169   4.118   5.978   1.055  0.5394  0.0519 -1.0883
 1870TIP3    H227170   4.072   5.871   1.153  1.1452  1.2035  0.4780
 1871TIP3   OH227171   4.368   3.068   2.113 -0.4553  0.0483  0.1182
 1871TIP3    H127172   4.464   3.063   2.106 -0.5727  0.6899 -2.0460
 1871TIP3    H227173   4.346   3.000   2.176  1.5433  0.7767  1.6826
 1872TIP3   OH227174   7.043   1.316   0.069  0.6017 -0.0254  0.1768
 1872TIP3    H127175   6.959   1.290   0.106  1.4712  0.8936  2.9310
 1872TIP3    H227176   7.049   1.410   0.085  1.1621  0.3357 -2.0576
 1873TIP3   OH227177   1.149   5.700   7.615  0.0024 -0.2677  0.1256
 1873TIP3    H127178   1.070   5.703   7.670  0.6356 -0.6546  1.0642
 1873TIP3    H227179   1.179   5.791   7.612 -1.4290  0.1682 -1.6411
 1874TIP3   OH227180   5.673   3.111   1.373 -0.6442  0.1822 -0.5455
 1874TIP3    H127181   5.577   3.107   1.365 -0.5413  0.3066 -1.9753
 1874TIP3    H227182   5.692   3.202   1.392 -0.9020 -0.1349  1.3915
 1875TIP3   OH227183   0.195   2.349   6.920  0.8672  0.0242 -0.2374
 1875TIP3    H127184   0.216   2.342   7.013 -1.2484 -0.4050  0.2278
 1875TIP3    H227185   0.151   2.433   6.912  2.0101  0.5583 -1.0594
 1876TIP3   OH227186   0.795   4.022   8.264  0.1563 -0.5211  0.0547
 1876TIP3    H127187   0.789   4.116   8.281 -0.7671 -0.0978 -2.3793
 1876TIP3    H227188   0.866   3.992   8.321 -0.2382  1.4327  1.6435
 1877TIP3   OH227189   2.857   3.137   1.042 -0.3520  0.1834  0.1333
 1877TIP3    H127190   2.778   3.083   1.050  0.6047 -1.2068  0.2290
 1877TIP3    H227191   2.900   3.130   1.127  0.1189  0.5769 -0.0688
 1878TIP3   OH227192   3.581   2.809   7.128  0.4769  0.0202  0.8547
 1878TIP3    H127193   3.557   2.720   7.104  2.8889 -0.5638  0.5349
 1878TIP3    H227194   3.579   2.810   7.224  0.6990 -0.4418  0.8605
 1879TIP3   OH227195   2.618   2.317   7.045 -0.8822 -0.0363 -0.3098
 1879TIP3    H127196   2.547   2.376   7.020 -0.1816  0.4599 -1.1813
 1879TIP3    H227197   2.654   2.288   6.961 -0.6823 -1.0568  0.1201
 1880TIP3   OH227198   0.025   5.874   6.639  0.2842  0.1837  0.0208
 1880TIP3    H127199  -0.042   5.918   6.587 -1.2850 -0.0887  1.7601
 1880TIP3    H227200   0.032   5.787   6.600 -0.1652  0.3203 -0.3761
 1881TIP3   OH227201   7.268   4.897   1.565  0.2043  0.2099  0.0628
 1881TIP3    H127202   7.359   4.879   1.540 -0.2243  4.0083 -5.1025
 1881TIP3    H227203   7.218   4.822   1.532  1.0468 -0.0596 -0.6267
 1882TIP3   OH227204   1.671   3.003   8.433  0.1808 -0.2087 -0.4235
 1882TIP3    H127205   1.671   3.083   8.487  1.8886 -1.0408  0.8710
 1882TIP3    H227206   1.696   3.034   8.346  0.2740  0.7641 -0.0663
 1883TIP3   OH227207   6.268   7.035   1.552 -0.4652 -0.1585  0.4218
 1883TIP3    H127208   6.266   6.952   1.599 -0.2157 -0.0793  0.5712
 1883TIP3    H227209   6.200   7.088   1.594 -0.7544 -0.3527  0.2027
 1884TIP3   OH227210   1.131   4.491   8.262 -0.2009  0.3797 -0.1408
 1884TIP3    H127211   1.077   4.458   8.191 -0.8256  1.4053 -0.1516
 1884TIP3    H227212   1.125   4.424   8.330 -2.3954  1.0066  0.3007
 1885TIP3   OH227213   1.691   2.523   6.626  1.0690  0.8438  0.0287
 1885TIP3    H127214   1.734   2.608   6.623  1.7748  0.4620 -0.6554
 1885TIP3    H227215   1.647   2.515   6.542  0.5713  0.7506  0.2941
 1886TIP3   OH227216   0.910   1.906   1.238 -0.2362 -0.0457 -0.6407
 1886TIP3    H127217   0.836   1.891   1.180 -1.7391  0.6132  1.0757
 1886TIP3    H227218   0.886   1.866   1.321  1.4155 -0.0153 -0.1155
 1887TIP3   OH227219   1.602   4.138   6.804 -0.1389 -0.2709  0.3782
 1887TIP3    H127220   1.590   4.052   6.763 -2.3368 -0.2430  0.8983
 1887TIP3    H227221   1.680   4.174   6.763  1.0032 -2.6721  0.4093
 1888TIP3   OH227222   4.830   6.864   7.238 -0.9602  0.2274 -0.1032
 1888TIP3    H127223   4.915   6.866   7.282 -0.7120 -0.7435 -0.5117
 1888TIP3    H227224   4.773   6.819   7.300 -0.3888 -1.9567 -1.1045
 1889TIP3   OH227225   6.747   4.605   8.101 -0.1267  0.1492 -0.1995
 1889TIP3    H127226   6.801   4.553   8.042 -0.0375  0.0369 -0.0191
 1889TIP3    H227227   6.792   4.601   8.185 -0.6657 -0.3327  0.0677
 1890TIP3   OH227228   0.271   5.802   6.865 -0.4722  0.3269  0.7234
 1890TIP3    H127229   0.245   5.719   6.905 -0.8036  0.2844  0.4132
 1890TIP3    H227230   0.367   5.800   6.866 -0.4534 -1.2709 -1.8444
 1891TIP3   OH227231   0.160   3.443   6.039  0.1435  0.2447 -0.1107
 1891TIP3    H127232   0.170   3.380   6.110 -0.3723  0.4968  0.1883
 1891TIP3    H227233   0.101   3.510   6.074  0.6821  0.8923 -0.4260
 1892TIP3   OH227234   7.022   4.846   6.362  0.9093 -0.6199 -0.1202
 1892TIP3    H127235   6.959   4.796   6.311  0.6003 -1.7493  1.3244
 1892TIP3    H227236   7.016   4.935   6.327 -3.2277 -0.1579  1.5201
 1893TIP3   OH227237   0.995   6.031   6.553  0.1123 -0.2434  0.6238
 1893TIP3    H127238   1.054   6.101   6.525  0.4485 -0.5407  0.5747
 1893TIP3    H227239   0.940   6.014   6.477  0.5430 -0.5569  0.3828
 1894TIP3   OH227240   0.340   0.893   6.854  0.1748  0.1732 -0.4043
 1894TIP3    H127241   0.392   0.937   6.920 -0.0335  0.9871 -0.7775
 1894TIP3    H227242   0.374   0.804   6.852  2.1143  0.9106 -1.2394
 1895TIP3   OH227243   0.488   4.373   0.880  0.0359 -0.5538 -0.7009
 1895TIP3    H127244   0.566   4.335   0.839 -0.5680 -2.4906 -0.1081
 1895TIP3    H227245   0.515   4.387   0.971  0.6409  1.6095 -1.1848
 1896TIP3   OH227246   0.892   6.350   7.464  0.1241  0.1440 -0.3831
 1896TIP3    H127247   0.862   6.386   7.380 -2.8925  0.4099  0.7434
 1896TIP3    H227248   0.987   6.357   7.460  0.0538  0.3259 -3.6991
 1897TIP3   OH227249   2.484   4.215   7.921 -1.1471 -1.0035 -0.3250
 1897TIP3    H127250   2.540   4.256   7.987 -0.3488 -2.1745 -0.2488
 1897TIP3    H227251   2.395   4.225   7.956 -1.0597  1.4593 -0.7744
 1898TIP3   OH227252   7.188   5.033   7.602 -0.3875  0.0518  0.6346
 1898TIP3    H127253   7.145   4.979   7.536 -2.5161  1.1617  1.0598
 1898TIP3    H227254   7.198   5.118   7.560 -0.0831  0.2543  1.1179
 1899TIP3   OH227255   0.302   3.274   0.716 -0.2300 -0.1596  0.1959
 1899TIP3    H127256   0.246   3.343   0.681 -0.6670 -0.4622  0.2930
 1899TIP3    H227257   0.353   3.244   0.641 -2.4371 -2.0412 -0.6255
 1900TIP3   OH227258   4.220   5.402   0.078 -0.1039 -0.3887  0.4907
 1900TIP3    H127259   4.181   5.464   0.016  0.9844 -0.9956 -0.8407
 1900TIP3    H227260   4.230   5.452   0.159  0.8487  1.2312 -0.5855
 1901TIP3   OH227261   1.514   5.768   0.596  0.5960 -0.2910  0.0040
 1901TIP3    H127262   1.488   5.755   0.687  1.5211 -0.6759  0.2231
 1901TIP3    H227263   1.432   5.764   0.546  0.1176 -0.3482  0.7891
 1902TIP3   OH227264   3.365   5.265   6.546  0.1230  0.3689 -0.7635
 1902TIP3    H127265   3.357   5.254   6.451 -1.9615 -0.5095 -0.5310
 1902TIP3    H227266   3.313   5.193   6.582 -0.0269  1.3540  1.0284
 1903TIP3   OH227267   5.798   4.566   2.082  0.3710  0.6485  0.5678
 1903TIP3    H127268   5.793   4.516   2.001  0.0851  0.4985  0.6757
 1903TIP3    H227269   5.890   4.563   2.107  0.3171 -0.0197  0.6899
 1904TIP3   OH227270   0.975   4.318   6.248 -0.3026  0.0944 -0.0114
 1904TIP3    H127271   0.928   4.381   6.302  0.1861  0.9057 -0.5128
 1904TIP3    H227272   0.914   4.295   6.178 -0.8219 -0.7163  0.7005
 1905TIP3   OH227273   2.148   0.270   6.990  0.1174  0.0466 -0.7988
 1905TIP3    H127274   2.210   0.215   7.037 -0.0659  0.5467  0.0254
 1905TIP3    H227275   2.203   0.326   6.934  0.4235  0.6901  0.1439
 1906TIP3   OH227276   2.360   4.988   6.706  0.1218  0.2962  0.2273
 1906TIP3    H127277   2.448   4.972   6.742  0.8252  0.7268 -1.2699
 1906TIP3    H227278   2.354   5.083   6.698 -2.0391  0.5990  4.0709
 1907TIP3   OH227279   2.372   4.692   6.166 -0.4480 -1.0982 -0.2159
 1907TIP3    H127280   2.393   4.765   6.107 -1.4390 -0.0809  0.6649
 1907TIP3    H227281   2.446   4.633   6.158 -0.1391 -0.5333 -1.7923
 1908TIP3   OH227282   6.001   6.285   1.775 -0.2511 -0.3676  0.1432
 1908TIP3    H127283   6.021   6.254   1.864 -1.0419 -1.0657  0.0800
 1908TIP3    H227284   6.080   6.266   1.725  0.5905  0.9878  0.9410
 1909TIP3   OH227285   3.750   2.398   7.152 -0.1848 -0.0854  0.3562
 1909TIP3    H127286   3.704   2.316   7.169 -1.4773  0.4531 -0.4529
 1909TIP3    H227287   3.723   2.456   7.224  0.2211 -0.1542  0.5687
 1910TIP3   OH227288   2.702   5.829   7.720 -0.5653 -0.6066 -0.3518
 1910TIP3    H127289   2.611   5.804   7.733 -0.2536 -2.3029 -1.2791
 1910TIP3    H227290   2.752   5.755   7.756  0.4501  0.3635  0.2720
 1911TIP3   OH227291   7.197   4.674   6.125 -0.3594  0.1632 -1.1103
 1911TIP3    H127292   7.186   4.757   6.172 -0.1621  0.1043 -0.9549
 1911TIP3    H227293   7.114   4.627   6.138  0.4322 -0.7347  0.9517
 1912TIP3   OH227294   0.068   4.995   0.831  0.0911  0.0331  0.1783
 1912TIP3    H127295   0.119   5.074   0.853  0.8178 -0.6513  0.9810
 1912TIP3    H227296  -0.018   5.029   0.806  1.0705  1.2645 -1.7197
 1913TIP3   OH227297   6.974   5.237   7.373 -0.0580  0.4647 -0.1808
 1913TIP3    H127298   7.043   5.174   7.389 -1.1438 -1.2583 -2.0166
 1913TIP3    H227299   7.017   5.308   7.325  1.7750  2.5557  4.3329
 1914TIP3   OH227300   6.982   2.424   7.828 -0.5176  0.3729 -0.7370
 1914TIP3    H127301   7.036   2.450   7.753  0.4581  0.7893  0.1075
 1914TIP3    H227302   6.951   2.336   7.806 -0.1058  0.4297 -1.5577
 1915TIP3   OH227303   6.729   4.040   1.543 -0.1478  0.0685 -0.1807
 1915TIP3    H127304   6.636   4.052   1.561 -0.2429  0.6952 -1.0499
 1915TIP3    H227305   6.732   3.984   1.465  0.1665  1.1403 -0.9545
 1916TIP3   OH227306   0.320   4.464   7.627  0.3904  0.2624 -0.2844
 1916TIP3    H127307   0.323   4.559   7.611  0.7155  0.6660  1.9839
 1916TIP3    H227308   0.412   4.439   7.638  0.2584 -0.2047 -0.2412
 1917TIP3   OH227309   0.682   2.440   0.521  0.0694  0.2988  0.3803
 1917TIP3    H127310   0.642   2.421   0.606 -1.0448  0.1434 -0.1726
 1917TIP3    H227311   0.648   2.372   0.463  1.0613  0.2287 -0.1342
 1918TIP3   OH227312   1.652   1.075   7.845  0.5538  0.3696 -0.4167
 1918TIP3    H127313   1.591   1.011   7.882  0.4152  0.9909  0.4645
 1918TIP3    H227314   1.705   1.026   7.783  0.5365 -0.6200  0.3514
 1919TIP3   OH227315   6.400   5.952   0.298  0.4354  0.3984  0.1726
 1919TIP3    H127316   6.399   6.031   0.352 -1.3845  1.8022 -1.8306
 1919TIP3    H227317   6.363   5.884   0.354  0.6974  1.2802  1.4362
 1920TIP3   OH227318   0.207   5.052   1.790 -0.1688 -0.3045 -0.6634
 1920TIP3    H127319   0.245   5.136   1.766  2.2997 -0.7333  1.4971
 1920TIP3    H227320   0.134   5.075   1.848  2.1245  0.3626  2.0884
 1921TIP3   OH227321   5.842   5.750   8.154  0.2718 -0.1479  0.2227
 1921TIP3    H127322   5.748   5.752   8.172 -0.0321 -1.8878 -1.0312
 1921TIP3    H227323   5.850   5.781   8.064  0.9426  0.4160  0.4760
 1922TIP3   OH227324   5.144   4.307   7.129  0.3090  0.0977  0.6139
 1922TIP3    H127325   5.052   4.290   7.113  0.7864 -1.3968 -0.7314
 1922TIP3    H227326   5.189   4.228   7.097  2.0396  0.8182  1.1960
 1923TIP3   OH227327   0.260   3.439   7.259  0.0589  0.8170 -0.1015
 1923TIP3    H127328   0.218   3.353   7.256  1.7251  0.0236 -1.0424
 1923TIP3    H227329   0.233   3.482   7.177  0.7728  0.4580 -0.5234
 1924TIP3   OH227330   6.521   0.085   1.558 -0.0587  0.1896 -0.4918
 1924TIP3    H127331   6.497   0.021   1.491  0.2502 -0.6039  0.1401
 1924TIP3    H227332   6.601   0.126   1.526 -1.0160  1.2548 -1.5575
 1925TIP3   OH227333   2.301   4.950   0.790 -0.6368  0.0915 -0.1278
 1925TIP3    H127334   2.355   4.879   0.825 -0.2590  1.3021  1.8485
 1925TIP3    H227335   2.211   4.921   0.804 -0.5006  0.9984  2.9127
 1926TIP3   OH227336   1.647   6.027   7.783  0.2598  0.0752 -0.2688
 1926TIP3    H127337   1.724   5.970   7.779 -1.8079 -3.0071  1.6511
 1926TIP3    H227338   1.596   6.004   7.706  0.2276  0.5726 -0.3969
 1927TIP3   OH227339   6.692   5.978   8.074 -0.1305  0.0684 -0.3521
 1927TIP3    H127340   6.667   6.068   8.053 -1.2006  0.0496  0.7768
 1927TIP3    H227341   6.788   5.979   8.077 -0.1740  1.6185  1.5533
 1928TIP3   OH227342   0.093   5.117   8.139  0.2302  0.0074  0.9503
 1928TIP3    H127343   0.089   5.077   8.052  0.8825  1.6053  0.1691
 1928TIP3    H227344   0.057   5.050   8.197  0.2082 -1.2633 -0.4762
 1929TIP3   OH227345   4.819   3.884   6.826 -0.1273  0.0424  0.7227
 1929TIP3    H127346   4.905   3.900   6.785 -0.4237 -1.2917 -0.4519
 1929TIP3    H227347   4.763   3.955   6.793  0.1181  0.0308  0.2753
 1930TIP3   OH227348   1.076   3.172   7.794 -0.3487 -0.1615  0.3324
 1930TIP3    H127349   1.125   3.176   7.711 -0.2383  0.1447  0.4128
 1930TIP3    H227350   1.098   3.254   7.838 -2.1831  0.7174 -0.3298
 1931TIP3   OH227351   2.399   5.366   6.366 -0.7265  0.1709  0.5234
 1931TIP3    H127352   2.463   5.387   6.297  1.0281 -1.0692  1.7294
 1931TIP3    H227353   2.341   5.302   6.325 -0.4114  0.3159 -0.1677
 1932TIP3   OH227354   1.822   4.724   8.394  0.3474  0.0240  0.1326
 1932TIP3    H127355   1.846   4.643   8.349 -0.8230  0.5834 -1.5719
 1932TIP3    H227356   1.757   4.765   8.337 -1.0861  0.8543  2.2683
 1933TIP3   OH227357   1.113   2.941   6.581  0.8522  0.4372 -0.1170
 1933TIP3    H127358   1.057   3.013   6.610  2.4597  1.5719  0.2792
 1933TIP3    H227359   1.187   2.985   6.539  1.9761 -0.9937  0.3587
 1934TIP3   OH227360   1.377   3.055   7.918 -0.1378  0.1473 -0.5977
 1934TIP3    H127361   1.423   3.071   7.835 -0.7430  0.9941 -0.7730
 1934TIP3    H227362   1.321   3.132   7.930  1.6404  1.1233  1.7787
 1935TIP3   OH227363   5.216   3.175   1.701  0.7241 -0.1620  0.5611
 1935TIP3    H127364   5.146   3.192   1.764 -1.4496 -0.1224 -1.7979
 1935TIP3    H227365   5.256   3.260   1.686 -0.0372  0.1793  0.4399
 1936TIP3   OH227366   1.323   3.056   6.461  0.1073  0.2587  0.0608
 1936TIP3    H127367   1.417   3.060   6.444 -0.0442  2.2672 -0.4065
 1936TIP3    H227368   1.284   3.034   6.377 -0.0025  1.8381 -0.3219
 1937TIP3   OH227369   6.227   5.685   7.164 -0.7391  0.6693 -0.4312
 1937TIP3    H127370   6.209   5.597   7.129  0.4888  0.3459 -0.2601
 1937TIP3    H227371   6.182   5.686   7.249  2.3757 -1.1796  1.3385
 1938TIP3   OH227372   0.710   6.220   6.164  0.3044 -0.5805  0.6761
 1938TIP3    H127373   0.733   6.144   6.218 -0.0547 -0.1675  1.4205
 1938TIP3    H227374   0.636   6.190   6.111  0.5530 -0.9377  0.5264
 1939TIP3   OH227375   2.793   5.623   6.075 -0.4225  0.1151  0.5903
 1939TIP3    H127376   2.817   5.715   6.068 -2.6432  0.7225  0.6572
 1939TIP3    H227377   2.722   5.612   6.012 -0.7456 -1.3441  1.1906
 1940TIP3   OH227378   6.608   4.654   0.619 -0.0754 -0.1300  0.1386
 1940TIP3    H127379   6.616   4.612   0.705  1.8614 -0.0757  0.0118
 1940TIP3    H227380   6.626   4.746   0.636  0.6575 -0.1764 -0.3688
 1941TIP3   OH227381   1.594   4.668   7.714 -0.3450  0.1982 -0.2803
 1941TIP3    H127382   1.566   4.740   7.771  0.8482 -0.2383  0.8914
 1941TIP3    H227383   1.606   4.594   7.774 -1.1458 -0.8631 -1.4145
 1942TIP3   OH227384   6.946   4.972   8.156 -0.1166 -0.2019 -0.0875
 1942TIP3    H127385   6.914   4.905   8.218 -1.3438  1.5944  1.2710
 1942TIP3    H227386   6.867   5.000   8.109  0.5547 -0.3728 -1.3295
 1943TIP3   OH227387   5.344   4.357   6.888 -0.0490  0.2206  0.1188
 1943TIP3    H127388   5.337   4.275   6.937 -0.5595  0.5194  0.5524
 1943TIP3    H227389   5.259   4.367   6.845 -0.0453  0.6040  0.1993
 1944TIP3   OH227390   4.203   6.404   7.194 -0.2502 -0.3982 -0.0756
 1944TIP3    H127391   4.235   6.483   7.151 -2.8510  0.6578 -0.1645
 1944TIP3    H227392   4.148   6.361   7.128 -0.2429 -1.3908  0.5432
 1945TIP3   OH227393   2.025   4.762   0.087 -0.3520 -0.4248 -0.0502
 1945TIP3    H127394   1.945   4.744   0.038 -0.2039 -2.8615  0.5353
 1945TIP3    H227395   2.017   4.711   0.167  1.2775  0.2111  0.5442
 1946TIP3   OH227396   2.636   6.204   6.722 -0.5027 -0.1839  0.2554
 1946TIP3    H127397   2.631   6.136   6.789 -1.3438 -0.9753 -0.5895
 1946TIP3    H227398   2.560   6.187   6.666  0.1479  0.5177 -0.8437
 1947TIP3   OH227399   6.875   3.047   6.623 -0.9569  0.0801 -0.0831
 1947TIP3    H127400   6.946   3.111   6.615 -1.7396  0.9696 -0.0285
 1947TIP3    H227401   6.817   3.067   6.550 -0.8994 -0.9728 -0.4247
 1948TIP3   OH227402   0.385   2.850   7.823  0.2880 -0.1748 -0.0217
 1948TIP3    H127403   0.320   2.780   7.817 -0.1993  0.1184  1.6185
 1948TIP3    H227404   0.333   2.931   7.824  0.7255  0.1057  0.3506
 1949TIP3   OH227405   1.225   5.863   8.247  0.3082 -0.5780  0.6368
 1949TIP3    H127406   1.283   5.928   8.207 -0.9417  0.7146  0.9014
 1949TIP3    H227407   1.159   5.846   8.180 -0.7779  0.2765  1.4704
 1950TIP3   OH227408   1.666   6.357   6.573  0.3248 -0.1253  0.2340
 1950TIP3    H127409   1.630   6.368   6.661 -0.5152 -1.5867  0.0890
 1950TIP3    H227410   1.757   6.384   6.581  0.3496 -0.5828  1.6383
 1951TIP3   OH227411   3.650   5.542   7.508 -0.5287  0.1987  0.1187
 1951TIP3    H127412   3.638   5.449   7.528  1.0979 -0.4854 -1.8801
 1951TIP3    H227413   3.641   5.547   7.412 -0.1811  2.0282  0.1595
 1952TIP3   OH227414   3.534   5.301   7.189 -0.1693 -0.3105  0.4449
 1952TIP3    H127415   3.439   5.299   7.198 -0.3123 -0.5721 -0.9531
 1952TIP3    H227416   3.549   5.311   7.095  1.1805 -1.6959  0.4791
 1953TIP3   OH227417   5.155   5.430   6.478  0.5788  0.1059 -1.0651
 1953TIP3    H127418   5.147   5.403   6.386  1.8527  0.4784 -1.2922
 1953TIP3    H227419   5.093   5.373   6.525  1.1332 -1.2478 -1.9311
 1954TIP3   OH227420   5.722   4.114   7.357 -0.1295 -0.1372 -0.2616
 1954TIP3    H127421   5.798   4.170   7.343 -0.2995 -0.1665 -1.3592
 1954TIP3    H227422   5.710   4.113   7.452  0.3786  1.0161 -0.1758
 1955TIP3   OH227423   1.780   1.672   6.718  0.4823 -0.3843  0.6021
 1955TIP3    H127424   1.739   1.593   6.682 -1.2225  0.3695  0.8208
 1955TIP3    H227425   1.809   1.647   6.806 -0.2657 -0.6994  0.7607
 1956TIP3   OH227426   0.596   2.980   7.204 -0.1445 -0.4235  0.4203
 1956TIP3    H127427   0.641   2.910   7.157  0.4424  0.7524 -0.7994
 1956TIP3    H227428   0.534   2.935   7.261  0.7662 -1.9617  0.2198
 1957TIP3   OH227429   2.745   4.476   1.235  0.0610  0.6548  0.9694
 1957TIP3    H127430   2.725   4.384   1.250 -0.1559  0.1414 -2.2070
 1957TIP3    H227431   2.840   4.478   1.221  0.0702  0.9284  1.0634
 1958TIP3   OH227432   5.098   4.798   6.993 -0.1313 -0.0241  0.1815
 1958TIP3    H127433   5.123   4.741   7.066  1.8778  1.5840  0.7699
 1958TIP3    H227434   5.018   4.841   7.023 -0.6350 -1.1204  0.4621
 1959TIP3   OH227435   6.874   4.653   7.745 -0.1763 -0.4267  0.0165
 1959TIP3    H127436   6.889   4.608   7.828  0.4664  1.5953  1.0365
 1959TIP3    H227437   6.827   4.589   7.691  1.1819 -2.5000  1.1998
 1960TIP3   OH227438   3.956   4.994   6.381 -0.5684  0.2309  0.0683
 1960TIP3    H127439   3.860   4.993   6.381 -0.5735 -1.5483 -1.2609
 1960TIP3    H227440   3.981   4.924   6.321  1.5675  1.5804 -0.6835
 1961TIP3   OH227441   3.752   2.093   8.339 -0.1598  0.2690  0.6917
 1961TIP3    H127442   3.825   2.038   8.367  0.7282  0.9420 -0.2366
 1961TIP3    H227443   3.767   2.177   8.381  1.3220  1.3686 -1.8788
 1962TIP3   OH227444   3.288   2.858   6.858 -0.8724 -0.1115  0.1062
 1962TIP3    H127445   3.358   2.911   6.896 -0.0192 -0.9641 -0.2569
 1962TIP3    H227446   3.223   2.850   6.929  0.2900 -0.9261  1.0945
 1963TIP3   OH227447   3.260   4.304   6.763  0.0902 -0.2687  0.1741
 1963TIP3    H127448   3.176   4.320   6.720  0.4765  0.0567 -0.4774
 1963TIP3    H227449   3.288   4.391   6.793 -0.1436 -0.4855  1.0180
 1964TIP3   OH227450   1.836   0.237   6.687  0.1873  0.6328  0.1278
 1964TIP3    H127451   1.912   0.188   6.656 -0.2635 -0.4533  0.6994
 1964TIP3    H227452   1.790   0.265   6.608 -0.2151 -0.9390 -0.2107
 1965TIP3   OH227453   1.583   3.678   0.216  0.0943 -0.6569 -0.3662
 1965TIP3    H127454   1.610   3.731   0.291  1.7056 -2.2066  0.1673
 1965TIP3    H227455   1.609   3.730   0.139 -1.3306  0.8157  0.1053
 1966TIP3   OH227456   3.451   3.952   6.166 -0.1632  0.1442 -0.1752
 1966TIP3    H127457   3.456   4.046   6.149  1.3549  0.1820  0.4008
 1966TIP3    H227458   3.407   3.946   6.251 -0.7752  0.3115 -0.4810
 1967TIP3   OH227459   7.098   1.207   0.363 -0.4065  0.0398  0.2628
 1967TIP3    H127460   7.126   1.124   0.402 -0.3518  0.2707  0.7078
 1967TIP3    H227461   7.135   1.205   0.274 -0.6471 -0.5406  0.1719
 1968TIP3   OH227462   2.410   4.834   6.486  0.0526 -0.3270 -0.1071
 1968TIP3    H127463   2.402   4.874   6.572  2.9043 -0.8971  0.4556
 1968TIP3    H227464   2.398   4.906   6.424  2.4252  0.9101  0.8494
 1969TIP3   OH227465   2.971   5.379   7.513  0.1417 -0.1624  0.7708
 1969TIP3    H127466   2.963   5.472   7.495  1.5999 -0.2252 -0.3295
 1969TIP3    H227467   3.050   5.372   7.567  1.7805 -1.0254 -1.6442
 1970TIP3   OH227468   4.023   4.949   7.527 -0.4667 -0.6187  0.5353
 1970TIP3    H127469   4.079   4.923   7.600  2.0251 -1.3883 -1.6121
 1970TIP3    H227470   4.033   5.044   7.521  1.4785 -0.8650 -0.4895
 1971TIP3   OH227471   3.938   5.563   0.307  0.5521 -0.2504  0.4570
 1971TIP3    H127472   3.960   5.587   0.397  2.9523 -1.0863  0.1214
 1971TIP3    H227473   4.002   5.496   0.284  0.2597  0.3084 -2.0439
 1972TIP3   OH227474   4.843   5.069   6.393  0.0282 -0.0494 -0.4770
 1972TIP3    H127475   4.749   5.085   6.399  0.3883  2.1902 -0.1044
 1972TIP3    H227476   4.873   5.125   6.322  1.1868 -0.1786 -0.1097
 1973TIP3   OH227477   2.289   4.344   6.865  0.2226 -0.5450 -0.2288
 1973TIP3    H127478   2.304   4.434   6.835  0.1205 -0.2413  0.6279
 1973TIP3    H227479   2.345   4.290   6.808 -0.6037 -0.0651 -1.5323
 1974TIP3   OH227480   2.601   6.892   6.809  0.1690  0.7362  0.7196
 1974TIP3    H127481   2.642   6.915   6.726  0.7593  0.9317  1.0580
 1974TIP3    H227482   2.641   6.952   6.872  0.4843 -0.1092  1.3264
 1975TIP3   OH227483   3.414   4.916   0.112  0.2223 -0.1859  0.1479
 1975TIP3    H127484   3.488   4.864   0.081 -0.8008 -0.8526 -1.2407
 1975TIP3    H227485   3.416   4.995   0.058 -0.0180 -0.1503  0.1904
 1976TIP3   OH227486   0.047   4.342   0.348  0.4002 -0.3713  0.0067
 1976TIP3    H127487   0.057   4.333   0.253 -0.6018 -1.3465 -0.0178
 1976TIP3    H227488   0.134   4.367   0.379  0.3718  1.4937 -1.3341
 1977TIP3   OH227489   3.145   4.234   7.246 -0.1034  0.6523 -0.4937
 1977TIP3    H127490   3.089   4.160   7.269  0.8111  0.1359  0.0603
 1977TIP3    H227491   3.153   4.230   7.151 -1.4892  1.0798 -0.6448
 1978TIP3   OH227492   2.446   6.777   1.989  0.2056 -0.0042  0.1825
 1978TIP3    H127493   2.478   6.692   1.958  1.8170  0.3819  0.7310
 1978TIP3    H227494   2.361   6.787   1.946  0.4342 -1.4464 -0.6675
 1979TIP3   OH227495   2.467   7.279   2.230  0.1892  0.7805  0.2498
 1979TIP3    H127496   2.548   7.227   2.233  0.8716  1.6882 -1.5632
 1979TIP3    H227497   2.429   7.270   2.317 -0.6198 -4.2219 -0.4567
 1980TIP3   OH227498   3.698   7.006   6.553 -0.1416  0.6119  0.2610
 1980TIP3    H127499   3.789   6.986   6.531 -0.2306  1.1661 -0.6443
 1980TIP3    H227500   3.651   6.997   6.470 -1.1503 -1.0407  1.0005
 1981TIP3   OH227501   2.141   6.613   7.618 -0.2553 -0.2810 -0.2174
 1981TIP3    H127502   2.231   6.587   7.634 -0.3575  0.2456  1.2622
 1981TIP3    H227503   2.106   6.634   7.704 -1.1139  1.7272 -1.0289
 1982TIP3   OH227504   2.862   5.539   6.763  0.5671  0.0979  0.2781
 1982TIP3    H127505   2.916   5.552   6.685  1.1266 -2.1421  0.2644
 1982TIP3    H227506   2.808   5.619   6.768  0.5160  0.2962 -2.3905
 1983TIP3   OH227507   2.107   0.012   1.765 -0.4647 -0.0035 -0.0679
 1983TIP3    H127508   2.197   0.006   1.798 -0.8623  0.1392  1.0475
 1983TIP3    H227509   2.060   0.063   1.831 -1.0325  1.1952 -1.3544
 1984TIP3   OH227510   1.051   4.758   6.368  0.4015 -0.6713 -0.2956
 1984TIP3    H127511   1.017   4.846   6.351 -0.8210 -0.5532  2.5343
 1984TIP3    H227512   0.983   4.699   6.334 -0.1483 -0.4852  0.4725
 1985TIP3   OH227513   3.436   0.931   6.102 -0.5716 -0.5347  0.2098
 1985TIP3    H127514   3.509   0.949   6.043 -0.5397 -0.8565  0.1512
 1985TIP3    H227515   3.441   0.837   6.119 -0.7965 -0.5063  0.4384
 1986TIP3   OH227516   3.953   3.681   6.109  0.6068 -0.0057 -0.5260
 1986TIP3    H127517   4.048   3.695   6.104  0.8953 -2.3802 -2.7431
 1986TIP3    H227518   3.921   3.708   6.023 -0.7224  0.6811  0.1841
 1987TIP3   OH227519   0.210   1.635   7.413  0.1516 -0.1494  0.3893
 1987TIP3    H127520   0.132   1.660   7.463  0.7298 -0.0266  1.2405
 1987TIP3    H227521   0.278   1.694   7.444  0.1137  1.1341 -1.8060
 1988TIP3   OH227522   1.920   2.227   7.534 -0.6427 -0.4035 -0.5087
 1988TIP3    H127523   1.938   2.263   7.621 -1.4122 -0.3381 -0.3693
 1988TIP3    H227524   1.825   2.216   7.532 -0.5491 -1.1504 -1.0576
 1989TIP3   OH227525   4.570   2.616   6.627 -0.5095  0.2464  0.6315
 1989TIP3    H127526   4.602   2.550   6.688 -1.7440 -0.8714  0.0825
 1989TIP3    H227527   4.629   2.611   6.553  0.7128  1.2821  1.5222
 1990TIP3   OH227528   0.187   6.585   6.748  0.2302  0.2161 -0.2670
 1990TIP3    H127529   0.206   6.672   6.714  0.1281  1.2769  2.3061
 1990TIP3    H227530   0.259   6.567   6.809  1.1448 -2.2172 -1.9597
 1991TIP3   OH227531   4.258   5.407   6.949 -0.0697 -0.1678  0.1121
 1991TIP3    H127532   4.305   5.353   6.885 -3.5005  0.8922 -3.4937
 1991TIP3    H227533   4.320   5.476   6.971  2.2191 -2.1649  0.2263
 1992TIP3   OH227534   4.329   6.589   7.040 -0.3640  0.0100  0.3614
 1992TIP3    H127535   4.352   6.538   6.962 -0.8127  0.9358 -0.3758
 1992TIP3    H227536   4.321   6.679   7.009 -0.3238  0.4232  1.5225
 1993TIP3   OH227537   4.570   4.939   6.875  0.2529  0.0176 -0.1734
 1993TIP3    H127538   4.513   4.915   6.802 -0.6906  3.9818 -0.8592
 1993TIP3    H227539   4.649   4.975   6.833  0.0995  1.4549  0.7474
 1994TIP3   OH227540   1.471   3.328   8.383  0.1814  0.4166  0.5782
 1994TIP3    H127541   1.408   3.335   8.455  1.4198 -1.6641  1.9387
 1994TIP3    H227542   1.556   3.342   8.424  0.7654  1.3008 -0.8905
 1995TIP3   OH227543   2.096   4.190   7.110  0.7095 -0.1274  0.1542
 1995TIP3    H127544   2.123   4.275   7.144 -1.0302 -0.7277  3.2069
 1995TIP3    H227545   2.034   4.210   7.040 -1.4893  1.1738  2.4018
 1996TIP3   OH227546   4.610   4.625   6.726 -0.4017 -0.1458 -0.0707
 1996TIP3    H127547   4.645   4.699   6.676  5.0682 -1.7369  1.1198
 1996TIP3    H227548   4.612   4.653   6.817  1.7879 -1.7064  0.3994
 1997TIP3   OH227549   3.560   5.042   6.889 -0.1678  0.1263 -0.1323
 1997TIP3    H127550   3.496   4.970   6.897 -0.7777  0.7675  0.9571
 1997TIP3    H227551   3.644   5.002   6.911 -0.3125 -0.5433 -0.7806
 1998TIP3   OH227552   2.730   2.668   7.337  0.0442 -0.4067  0.4276
 1998TIP3    H127553   2.801   2.732   7.338 -0.2789 -0.0550  1.0082
 1998TIP3    H227554   2.698   2.670   7.246  1.4041 -1.2762 -0.0827
 1999TIP3   OH227555   2.058   0.083   7.563  0.2632 -0.0250 -0.1030
 1999TIP3    H127556   1.988   0.019   7.548 -0.7935  1.7051 -3.0457
 1999TIP3    H227557   2.048   0.108   7.654 -2.0849 -0.8466 -0.0994
 2000TIP3   OH227558   3.272   4.640   7.920  0.0124 -0.5802  0.1324
 2000TIP3    H127559   3.221   4.595   7.853 -0.0379 -0.4316  0.0722
 2000TIP3    H227560   3.282   4.729   7.887  1.2731 -0.9031 -0.3895
 2001TIP3   OH227561   1.567   1.282   0.844  0.2500  0.0782  0.1063
 2001TIP3    H127562   1.518   1.328   0.776  1.0530  2.7442  1.2750
 2001TIP3    H227563   1.503   1.262   0.912  0.0013 -0.0658 -0.1718
 2002TIP3   OH227564   2.327   5.220   2.000 -0.1421 -0.2406  0.0059
 2002TIP3    H127565   2.345   5.314   1.996 -0.1641 -0.2977 -2.8301
 2002TIP3    H227566   2.408   5.179   1.970 -0.3759 -1.1094  0.5408
 2003TIP3   OH227567   4.588   5.841   8.399 -0.4929  0.7059 -0.4168
 2003TIP3    H127568   4.618   5.816   8.312  0.4095  1.4218 -0.3164
 2003TIP3    H227569   4.585   5.937   8.397  0.1221  0.7501  0.5278
 2004TIP3   OH227570   3.307   4.848   7.108 -0.1648 -0.2108  0.0276
 2004TIP3    H127571   3.272   4.761   7.085 -0.9682  0.4508 -1.2984
 2004TIP3    H227572   3.298   4.899   7.028 -1.5838  1.7018  1.3496
 2005TIP3   OH227573   2.215   3.825   6.768 -0.5107  0.0999  0.0715
 2005TIP3    H127574   2.175   3.751   6.813  0.0850 -0.3207 -0.0956
 2005TIP3    H227575   2.276   3.863   6.832 -2.8967  2.2063  1.1972
 2006TIP3   OH227576   2.133   4.527   7.370  0.8782 -0.2547 -0.3633
 2006TIP3    H127577   2.038   4.534   7.358  0.7814  2.6981  1.5691
 2006TIP3    H227578   2.164   4.483   7.290 -1.8150  1.0992 -2.2389
 2007TIP3   OH227579   3.185   2.750   7.091  0.3134 -0.3673  0.2442
 2007TIP3    H127580   3.229   2.673   7.056  2.3532  0.2278  1.4688
 2007TIP3    H227581   3.198   2.746   7.185  0.6136  1.5674  0.3093
 2008TIP3   OH227582   1.558   0.874   8.106  0.3012 -0.7910 -0.3629
 2008TIP3    H127583   1.619   0.882   8.032 -0.2146 -1.1513 -0.8320
 2008TIP3    H227584   1.555   0.962   8.143  1.3899 -0.8474 -0.1041
 2009TIP3   OH227585   1.880   3.331   0.211 -0.2942  0.2934 -0.7409
 2009TIP3    H127586   1.834   3.251   0.236  1.7328 -0.6914 -0.1068
 2009TIP3    H227587   1.895   3.377   0.293  2.1152 -0.6437 -0.6138
 2010TIP3   OH227588   3.852   4.972   6.719 -0.0393  0.2915 -0.0531
 2010TIP3    H127589   3.777   5.008   6.673  0.0064  0.9105  0.3535
 2010TIP3    H227590   3.816   4.938   6.801 -0.1352 -0.8800 -0.5699
 2011TIP3   OH227591   2.462   4.817   1.417  0.3174  0.2602 -0.1383
 2011TIP3    H127592   2.445   4.891   1.359  4.8167  1.0881 -0.5823
 2011TIP3    H227593   2.516   4.757   1.365 -0.8078 -1.9738  1.1714
 2012TIP3   OH227594   3.080   2.490   0.796 -0.0899  0.2413 -0.0472
 2012TIP3    H127595   3.152   2.529   0.746 -0.2619 -0.8218 -1.1360
 2012TIP3    H227596   3.105   2.504   0.888  1.8835 -0.7942 -0.4016
 2013TIP3   OH227597   3.199   3.542   0.556 -0.0514 -0.3310 -0.9502
 2013TIP3    H127598   3.185   3.500   0.471  0.3876  0.4963 -1.4350
 2013TIP3    H227599   3.132   3.610   0.560  0.7336  0.4662 -1.1916
 2014TIP3   OH227600   2.017   2.249   6.822  0.1016 -0.3599  0.1167
 2014TIP3    H127601   2.028   2.324   6.763  1.7106 -0.8392 -0.2214
 2014TIP3    H227602   1.981   2.180   6.765 -2.6472  0.5194  0.7172
 2015TIP3   OH227603   7.125   5.020   1.783 -0.1381  0.3041  0.0100
 2015TIP3    H127604   7.174   4.979   1.712  2.5876 -0.4345  2.2126
 2015TIP3    H227605   7.079   4.948   1.825  0.2087  0.3389  0.4601
 2016TIP3   OH227606   2.314   5.409   7.977  0.6724  0.1548 -0.3152
 2016TIP3    H127607   2.286   5.375   8.062  0.1164  0.8097 -0.2383
 2016TIP3    H227608   2.410   5.412   7.983  0.5666  1.4537  0.7629
 2017TIP3   OH227609   4.874   4.923   7.097 -0.4166 -0.1138 -0.1426
 2017TIP3    H127610   4.898   4.989   7.162 -1.4902  0.9425 -0.7951
 2017TIP3    H227611   4.819   4.861   7.145 -1.1363  0.6141 -0.0215
 2018TIP3   OH227612   2.566   5.878   6.577 -0.7690 -0.6407 -0.3031
 2018TIP3    H127613   2.522   5.954   6.617 -0.0081  0.3329 -1.2796
 2018TIP3    H227614   2.569   5.899   6.484  1.6532 -0.7376 -0.2778
 2019TIP3   OH227615   2.998   3.738   8.174  0.0071 -0.1800 -0.4702
 2019TIP3    H127616   3.061   3.684   8.128  1.7455  2.3351 -1.1427
 2019TIP3    H227617   3.051   3.798   8.226 -1.8954 -1.3765  3.0310
 2020TIP3   OH227618   1.005   5.001   0.394 -0.1975  0.7730 -0.4849
 2020TIP3    H127619   1.065   5.054   0.342  0.3535  0.1490 -0.4938
 2020TIP3    H227620   0.918   5.032   0.369  0.1482  3.0236  0.9687
 2021TIP3   OH227621   1.364   4.997   1.869 -0.2317 -0.0396  0.2475
 2021TIP3    H127622   1.332   4.935   1.934  2.8331  1.5943  3.4232
 2021TIP3    H227623   1.431   4.948   1.821 -0.6524 -0.4240  0.0465
 2022TIP3   OH227624   1.329   7.056   6.826 -0.1930  0.0458  0.1210
 2022TIP3    H127625   1.246   7.044   6.872 -1.5904  1.7606 -1.8418
 2022TIP3    H227626   1.309   7.034   6.735  0.9354  2.4790 -0.7659
 2023TIP3   OH227627   2.185   4.505   0.294 -0.3141 -0.4754  0.4399
 2023TIP3    H127628   2.279   4.523   0.293 -0.3444 -0.3358  0.1798
 2023TIP3    H227629   2.163   4.500   0.387 -0.3251  0.9378  0.5160
 2024TIP3   OH227630   3.399   3.090   7.426  0.4315  0.4767  0.2912
 2024TIP3    H127631   3.357   3.150   7.487 -1.5573 -0.3185 -0.2670
 2024TIP3    H227632   3.482   3.133   7.403 -0.6140  2.6456  0.4845
 2025TIP3   OH227633   5.092   4.501   1.527  0.7894 -1.0588  0.2816
 2025TIP3    H127634   5.082   4.484   1.434 -0.1897  1.0173 -0.0163
 2025TIP3    H227635   5.183   4.530   1.537  0.8639 -1.1873 -0.0440
 2026TIP3   OH227636   1.800   5.825   7.157  0.0205 -0.8128 -0.1693
 2026TIP3    H127637   1.786   5.835   7.251  1.9575  1.4654 -0.0842
 2026TIP3    H227638   1.715   5.796   7.123 -1.7154  1.7928  1.7983
 2027TIP3   OH227639   4.650   5.840   7.707 -0.2563  0.0281 -0.2102
 2027TIP3    H127640   4.682   5.883   7.627  0.4969  0.8901  0.5543
 2027TIP3    H227641   4.689   5.752   7.704  2.5413  1.2098  0.9255
 2028TIP3   OH227642   2.902   6.529   6.130  0.3967  0.1470  0.2297
 2028TIP3    H127643   2.952   6.507   6.051 -0.1152 -0.8250  0.1628
 2028TIP3    H227644   2.813   6.498   6.111  0.1407  0.4366  0.9573
 2029TIP3   OH227645   4.594   6.514   6.770 -0.6454 -0.0722  0.3284
 2029TIP3    H127646   4.612   6.568   6.693 -1.5773 -0.5375 -0.2295
 2029TIP3    H227647   4.500   6.521   6.783 -0.6262 -0.7380  0.8673
 2030TIP3   OH227648   2.529   4.351   6.696  0.4581 -0.0306  0.1033
 2030TIP3    H127649   2.526   4.417   6.627 -0.9481 -0.5817 -0.3748
 2030TIP3    H227650   2.590   4.387   6.761 -0.7430  2.0038  0.1341
 2031TIP3   OH227651   1.560   4.337   6.565 -0.5796 -0.8266  0.3166
 2031TIP3    H127652   1.486   4.356   6.507  1.2725  2.0733 -1.2296
 2031TIP3    H227653   1.543   4.389   6.643 -0.0323  0.1228 -0.1853
 2032TIP3   OH227654   3.192   6.889   1.867  0.2338 -0.3870 -0.0024
 2032TIP3    H127655   3.116   6.925   1.913  1.9453  1.6951  1.3058
 2032TIP3    H227656   3.217   6.957   1.804  2.4618  0.0902  1.3048
 2033TIP3   OH227657   5.427   6.713   0.486 -0.0160  0.0496 -0.1986
 2033TIP3    H127658   5.403   6.670   0.568  2.5491 -1.1195 -0.0345
 2033TIP3    H227659   5.517   6.687   0.470  0.3223  2.2179 -2.1518
 2034TIP3   OH227660   0.789   6.073   7.455  0.8255  0.1169  0.0006
 2034TIP3    H127661   0.811   6.164   7.476 -0.6182  0.1736  1.3153
 2034TIP3    H227662   0.759   6.076   7.364  1.4155  0.8493 -0.1707
 2035TIP3   OH227663   2.335   5.597   6.107  0.0979 -0.2053  0.2142
 2035TIP3    H127664   2.311   5.519   6.158  0.5303 -0.2117  0.4157
 2035TIP3    H227665   2.284   5.668   6.147 -0.1960 -0.3605  0.1174
 2036TIP3   OH227666   2.164   1.577   1.890 -0.4971  0.0654  0.0990
 2036TIP3    H127667   2.110   1.499   1.900 -0.8601  0.3613  0.4577
 2036TIP3    H227668   2.240   1.560   1.945 -0.5927 -0.0178  0.2060
 2037TIP3   OH227669   3.006   5.793   6.200 -0.0541  0.4083 -0.1764
 2037TIP3    H127670   3.075   5.858   6.216  0.1065  0.1529  0.1835
 2037TIP3    H227671   2.929   5.830   6.244 -0.0286  0.4782 -0.1892
 2038TIP3   OH227672   2.508   4.919   7.231  0.2436  0.1165  0.5607
 2038TIP3    H127673   2.596   4.883   7.216  0.2247  0.8533 -1.5128
 2038TIP3    H227674   2.518   5.013   7.214 -0.9687  0.1768  0.1514
 2039TIP3   OH227675   3.279   5.205   0.234 -0.2398  0.8064  0.5355
 2039TIP3    H127676   3.351   5.181   0.176  0.1329  0.0745  1.2902
 2039TIP3    H227677   3.201   5.173   0.189 -0.2344  2.6369 -0.8510
 2040TIP3   OH227678   4.089   5.214   6.280 -0.4563  0.0390 -0.3382
 2040TIP3    H127679   4.007   5.261   6.263 -0.9863 -0.2325  1.2883
 2040TIP3    H227680   4.061   5.128   6.309  0.3686  0.2345  1.0906
 2041TIP3   OH227681   2.722   5.624   0.216  0.3792  0.1305 -0.2791
 2041TIP3    H127682   2.648   5.572   0.186 -0.5204  1.1304  0.1911
 2041TIP3    H227683   2.716   5.706   0.167  0.8938  0.4086  0.1140
 2042TIP3   OH227684   0.981   2.942   7.955 -0.1933 -0.0706  0.2935
 2042TIP3    H127685   1.007   3.016   7.901 -2.2401  0.2641 -0.2395
 2042TIP3    H227686   0.972   2.869   7.893 -0.5275 -0.1884  0.4817
 2043TIP3   OH227687   1.610   3.882   6.665  0.4236 -0.4246  0.3314
 2043TIP3    H127688   1.657   3.911   6.586 -0.4755  1.6097  0.4944
 2043TIP3    H227689   1.539   3.828   6.633 -0.8550  1.6481 -0.3971
 2044TIP3   OH227690   2.382   6.787   6.601 -0.1078  0.2737  0.0270
 2044TIP3    H127691   2.386   6.779   6.506  1.9309  1.9016 -0.0794
 2044TIP3    H227692   2.451   6.728   6.633 -1.3126 -0.8744  0.5635
 2045TIP3   OH227693   2.277   4.759   8.430 -0.4379 -0.1638  0.7213
 2045TIP3    H127694   2.187   4.774   8.458  0.0935 -0.3960  2.6174
 2045TIP3    H227695   2.301   4.837   8.380 -2.0643 -0.6111 -0.7865
 2046TIP3   OH227696   4.618   5.733   6.510 -0.3037 -0.3111 -0.3175
 2046TIP3    H127697   4.657   5.658   6.555 -0.7033  0.9410  2.2526
 2046TIP3    H227698   4.524   5.715   6.512 -0.3371 -0.1562 -0.5055
 2047TIP3   OH227699   3.104   7.132   7.841  0.0929 -0.2729  0.1544
 2047TIP3    H127700   3.153   7.200   7.794  1.8328 -2.0141 -0.6428
 2047TIP3    H227701   3.169   7.090   7.897 -0.8624 -1.5224  0.3528
 2048TIP3   OH227702   1.148   3.476   8.178 -0.2595 -0.8240  0.0731
 2048TIP3    H127703   1.236   3.497   8.208 -0.4422  1.3603 -0.7597
 2048TIP3    H227704   1.090   3.509   8.247 -0.4745 -0.7103 -0.1574
 2049TIP3   OH227705   3.544   4.911   7.228 -0.3476  0.2269 -0.1227
 2049TIP3    H127706   3.469   4.893   7.172  1.2064 -3.6957 -1.1198
 2049TIP3    H227707   3.525   4.863   7.309  0.2916  0.6583  0.2890
 2050TIP3   OH227708   0.765   6.482   6.207  0.3199  0.7679  0.1297
 2050TIP3    H127709   0.759   6.387   6.201 -0.1441  0.7308  1.2405
 2050TIP3    H227710   0.832   6.505   6.142 -0.0201 -0.2454 -0.6054
 2051TIP3   OH227711   2.810   3.695   1.704  0.0095 -0.3818  0.1243
 2051TIP3    H127712   2.845   3.692   1.615 -0.2118 -1.0703  0.0616
 2051TIP3    H227713   2.872   3.751   1.751  1.2990 -1.7098  0.0516
 2052TIP3   OH227714   1.854   2.939   7.575 -0.4723  0.1319 -0.1920
 2052TIP3    H127715   1.918   3.006   7.598 -2.6722  1.8701  1.0553
 2052TIP3    H227716   1.850   2.882   7.652  1.0647 -1.2339 -1.0787
 2053TIP3   OH227717   5.705   6.604   8.173  0.1511 -0.5661 -0.1528
 2053TIP3    H127718   5.766   6.675   8.194  1.0411 -0.9159 -1.5127
 2053TIP3    H227719   5.623   6.649   8.152  0.8049  0.0961 -1.3336
 2054TIP3   OH227720   2.740   6.167   7.487  0.3057 -0.1257  0.3305
 2054TIP3    H127721   2.758   6.141   7.396  0.8673  0.7893  0.1753
 2054TIP3    H227722   2.648   6.193   7.485  0.2021 -0.4940  0.1172
 2055TIP3   OH227723   0.110   3.451   6.845 -0.4812  0.0730  0.4305
 2055TIP3    H127724   0.111   3.519   6.912 -0.2533  0.8110 -0.3153
 2055TIP3    H227725   0.020   3.450   6.813 -0.1532  1.0305 -0.5621
 2056TIP3   OH227726   3.232   3.067   0.622  0.2228 -0.2243 -0.2134
 2056TIP3    H127727   3.168   3.126   0.660  1.1390  0.3620  0.4500
 2056TIP3    H227728   3.317   3.108   0.641  0.7579 -0.5745 -1.7628
 2057TIP3   OH227729   1.805   5.862   8.241 -0.1411  0.1243 -0.3579
 2057TIP3    H127730   1.780   5.916   8.315 -0.4123 -0.5137  0.0248
 2057TIP3    H227731   1.745   5.889   8.171 -0.8794 -0.2984  0.0959
 2058TIP3   OH227732   1.224   4.196   0.913  0.4313 -0.1103 -0.4554
 2058TIP3    H127733   1.159   4.147   0.963 -0.3182  0.2494 -1.0519
 2058TIP3    H227734   1.303   4.143   0.918  0.5014  0.1318  1.4593
 2059TIP3   OH227735   5.768   2.378   1.491  0.0777  0.4278 -0.0210
 2059TIP3    H127736   5.862   2.381   1.510  0.1014  1.1805 -0.2638
 2059TIP3    H227737   5.726   2.392   1.576  0.1813 -0.5844  0.2024
 2060TIP3   OH227738   1.996   5.959   6.812 -0.4765  0.4650 -0.3645
 2060TIP3    H127739   1.928   6.013   6.853 -0.2458  0.1544  0.4486
 2060TIP3    H227740   2.078   6.000   6.840 -0.3238  0.6151 -1.0310
 2061TIP3   OH227741   1.609   2.655   8.433  0.6605  0.3791 -0.4876
 2061TIP3    H127742   1.687   2.653   8.377  1.1250 -2.3422  0.2155
 2061TIP3    H227743   1.641   2.686   8.518  0.7262  0.4316 -0.5318
 2062TIP3   OH227744   2.883   7.014   6.805  0.0191  0.3738  0.1789
 2062TIP3    H127745   2.862   7.093   6.854 -0.2872  0.2323  0.2793
 2062TIP3    H227746   2.831   7.021   6.725  1.3077  1.1071 -0.6147
 2063TIP3   OH227747   6.118   6.609   7.335 -0.5284  0.1049 -0.1533
 2063TIP3    H127748   6.028   6.638   7.353 -0.7972  0.4588 -1.9256
 2063TIP3    H227749   6.172   6.685   7.358 -0.6964 -0.0373  0.7259
 2064TIP3   OH227750   0.189   1.022   7.597 -0.0711 -0.5539  0.4190
 2064TIP3    H127751   0.279   1.053   7.584 -0.2721 -0.2860 -0.3613
 2064TIP3    H227752   0.196   0.959   7.668  1.0794 -2.1028 -1.0206
 2065TIP3   OH227753   4.968   4.607   6.580 -0.0113  0.0688 -0.1704
 2065TIP3    H127754   4.904   4.571   6.519  0.6199  0.3716 -1.0313
 2065TIP3    H227755   4.998   4.688   6.539 -0.8610  1.2045  1.3860
 2066TIP3   OH227756   2.136   2.091   0.302  0.1300  0.1748 -0.4530
 2066TIP3    H127757   2.138   2.183   0.274 -2.3668 -0.0263 -1.3787
 2066TIP3    H227758   2.172   2.043   0.228  2.5671  0.4489  0.4811
 2067TIP3   OH227759   4.299   5.062   0.614  0.1880 -0.1424  0.1203
 2067TIP3    H127760   4.338   5.074   0.527 -1.2655 -0.8886 -0.6592
 2067TIP3    H227761   4.305   4.968   0.630  1.4948  0.1346  1.3553
 2068TIP3   OH227762   0.270   4.689   6.713 -0.4919 -0.4721 -0.1048
 2068TIP3    H127763   0.248   4.746   6.639  1.1285 -1.8370 -1.6768
 2068TIP3    H227764   0.335   4.739   6.763 -0.3710 -0.2211 -0.5110
 2069TIP3   OH227765   1.655   1.561   7.665  0.7662  0.4327  0.4282
 2069TIP3    H127766   1.699   1.563   7.750  0.7917  0.3160  0.4178
 2069TIP3    H227767   1.709   1.615   7.608  0.8339  0.3844  0.4461
 2070TIP3   OH227768   4.283   3.443   6.982  0.5347 -0.2155  0.7342
 2070TIP3    H127769   4.266   3.433   6.889  0.5919  3.5407  0.2491
 2070TIP3    H227770   4.196   3.447   7.022  0.4984 -0.6491  0.7026
 2071TIP3   OH227771   3.909   3.952   7.264 -0.0833  0.1232  0.2412
 2071TIP3    H127772   3.867   3.882   7.214 -0.7353  0.4510  0.3221
 2071TIP3    H227773   3.993   3.916   7.291 -0.1774 -0.4281 -0.1972
 2072TIP3   OH227774   2.550   5.463   2.142  0.4258  0.7092 -0.5693
 2072TIP3    H127775   2.614   5.398   2.171  1.0179  1.3833 -0.3523
 2072TIP3    H227776   2.486   5.467   2.214  0.9101  1.0607 -0.1511
 2073TIP3   OH227777   3.547   2.824   7.428  0.4993 -0.4231 -0.3093
 2073TIP3    H127778   3.479   2.768   7.464 -0.1354  0.9550  0.7061
 2073TIP3    H227779   3.506   2.910   7.419  1.2400 -0.2347 -2.4675
 2074TIP3   OH227780   3.300   0.792   1.555  0.0338  0.5084 -0.3030
 2074TIP3    H127781   3.283   0.886   1.544 -0.6272  0.3847 -0.3566
 2074TIP3    H227782   3.213   0.752   1.559  0.3078 -0.0249  0.3921
 2075TIP3   OH227783   1.921   4.629   7.743 -0.5915  0.3196  0.1031
 2075TIP3    H127784   1.904   4.716   7.781  0.6194  0.1862  0.9908
 2075TIP3    H227785   1.836   4.585   7.745 -0.3577 -0.1099  3.7708
 2076TIP3   OH227786   2.123   6.859   7.494 -0.5243 -0.0391  0.2468
 2076TIP3    H127787   2.099   6.829   7.406 -1.8201  0.8781  0.2828
 2076TIP3    H227788   2.129   6.778   7.546  0.6244 -0.6198 -0.7471
 2077TIP3   OH227789   1.988   3.223   7.683 -1.0324  0.0227  0.2754
 2077TIP3    H127790   1.946   3.178   7.757  0.7311  1.0373  1.9379
 2077TIP3    H227791   1.980   3.316   7.704 -0.8155  0.3352 -0.9841
 2078TIP3   OH227792   2.213   5.356   6.734  0.6990  0.3687 -0.2717
 2078TIP3    H127793   2.205   5.450   6.718  1.4366  0.5921  0.5777
 2078TIP3    H227794   2.131   5.319   6.702 -0.0706  1.4449  0.3806
 2079TIP3   OH227795   4.524   5.036   7.579  0.4083  0.1065  0.4685
 2079TIP3    H127796   4.448   5.048   7.637 -0.2861  1.3038 -0.6376
 2079TIP3    H227797   4.596   5.013   7.637 -0.3307  1.0539  1.7893
 2080TIP3   OH227798   6.432   4.754   6.450  1.1125  0.6308 -0.1468
 2080TIP3    H127799   6.429   4.725   6.359 -0.4805 -0.2459  0.1668
 2080TIP3    H227800   6.349   4.800   6.463  3.3757  5.1195 -0.5171
 2081TIP3   OH227801   3.531   1.753   1.707  0.0580 -0.0946 -0.1130
 2081TIP3    H127802   3.596   1.769   1.776 -0.6578  0.6804  0.3929
 2081TIP3    H227803   3.579   1.708   1.638  1.6565  2.4161 -0.6868
 2082TIP3   OH227804   3.794   7.115   0.780  0.0269  0.2445 -0.4220
 2082TIP3    H127805   3.810   7.176   0.853 -0.7063 -0.9593  0.7529
 2082TIP3    H227806   3.702   7.127   0.758 -0.1214 -0.4511 -0.1828
 2083TIP3   OH227807   4.021   6.344   6.940 -0.4125  1.0402  0.7022
 2083TIP3    H127808   4.019   6.413   6.874 -1.4753  1.7589  1.4809
 2083TIP3    H227809   3.932   6.309   6.942 -0.1733  0.4437  1.1570
 2084TIP3   OH227810   2.971   4.488   6.197 -0.4411  0.1173  0.1933
 2084TIP3    H127811   3.029   4.464   6.125  0.6183  0.1553  1.0249
 2084TIP3    H227812   2.884   4.457   6.170  0.1955 -1.0883 -0.4847
 2085TIP3   OH227813   7.283   4.893   0.227 -0.1872 -1.2573 -0.1260
 2085TIP3    H127814   7.357   4.875   0.170 -0.9645 -1.3405 -1.1259
 2085TIP3    H227815   7.285   4.823   0.292  0.4466 -1.4081 -0.3066
 2086TIP3   OH227816   4.382   1.117   0.796 -0.1083 -0.1458 -0.4192
 2086TIP3    H127817   4.444   1.108   0.723  0.8022  0.7682  0.2156
 2086TIP3    H227818   4.435   1.155   0.867 -1.3449  0.4297  0.2049
 2087TIP3   OH227819   2.170   4.322   6.459  0.2017  0.6299 -0.4305
 2087TIP3    H127820   2.244   4.381   6.442  1.1656 -0.2885  0.5740
 2087TIP3    H227821   2.097   4.381   6.479  0.4878  1.5669 -2.0253
 2088TIP3   OH227822   2.538   0.670   7.069  0.2905  0.5001  0.4581
 2088TIP3    H127823   2.515   0.713   7.152 -0.1865  2.4841 -0.6697
 2088TIP3    H227824   2.586   0.737   7.020  1.8955 -1.1350 -0.2910
 2089TIP3   OH227825   2.941   2.164   6.671 -0.0109  0.0619 -0.3891
 2089TIP3    H127826   3.019   2.116   6.700  0.3135  0.4209 -0.6635
 2089TIP3    H227827   2.869   2.102   6.683  0.2357 -0.0799  0.4052
 2090TIP3   OH227828   1.040   2.470   8.413 -0.2526  0.3277  0.3039
 2090TIP3    H127829   1.077   2.553   8.442 -0.1506  1.2499 -2.3289
 2090TIP3    H227830   1.029   2.481   8.318  0.7635 -3.0526 -0.2458
 2091TIP3   OH227831   3.577   6.419   0.192 -0.4580 -0.4086 -0.3250
 2091TIP3    H127832   3.644   6.390   0.254 -2.9178 -1.6646  1.8032
 2091TIP3    H227833   3.567   6.346   0.131 -0.7547 -0.7180  0.0921
 2092TIP3   OH227834   5.077   6.483   8.028 -0.1313  0.3368  0.1299
 2092TIP3    H127835   5.017   6.472   8.102  0.3641 -0.1206  0.4621
 2092TIP3    H227836   5.164   6.476   8.067  0.1400  0.9340 -0.3632
 2093TIP3   OH227837   2.376   5.102   8.034 -0.6800  0.0190  0.1428
 2093TIP3    H127838   2.307   5.118   7.970 -0.9655 -1.2592  0.1181
 2093TIP3    H227839   2.456   5.137   7.993 -1.4103  2.1748  0.4826
 2094TIP3   OH227840   1.274   2.989   7.091  0.0229 -0.0594  0.8676
 2094TIP3    H127841   1.267   3.082   7.068  0.2063 -0.1760  0.3209
 2094TIP3    H227842   1.184   2.957   7.086  0.0383 -0.0428  0.4905
 2095TIP3   OH227843   3.040   5.559   6.517 -0.2951 -0.4973 -0.4010
 2095TIP3    H127844   3.111   5.555   6.453 -1.1584 -2.4825 -1.2915
 2095TIP3    H227845   2.960   5.565   6.464 -0.8744  0.4818  0.5596
 2096TIP3   OH227846   3.454   1.422   0.207  0.3110  0.0868 -0.5856
 2096TIP3    H127847   3.521   1.472   0.255 -0.9494 -0.2819  1.6292
 2096TIP3    H227848   3.497   1.340   0.185  0.1440 -0.8332  2.2976
 2097TIP3   OH227849   3.841   5.716   7.551  0.5338  0.0254  0.0245
 2097TIP3    H127850   3.753   5.677   7.555  0.1141  0.8696 -0.8882
 2097TIP3    H227851   3.851   5.744   7.460  2.8640 -2.6380 -0.6438
 2098TIP3   OH227852   0.718   5.381   7.906  0.2518 -0.9724  0.3528
 2098TIP3    H127853   0.792   5.396   7.847  0.6188  0.4144  1.1429
 2098TIP3    H227854   0.757   5.373   7.993 -0.5199 -0.1665  0.7863
 2099TIP3   OH227855   4.692   5.558   7.737  0.5046 -0.1560 -0.6290
 2099TIP3    H127856   4.676   5.472   7.699 -0.1966 -1.0443  1.5797
 2099TIP3    H227857   4.730   5.540   7.823  0.3890  1.7388 -0.1450
 2100TIP3   OH227858   2.074   4.982   6.688  0.4326  0.4448  0.3029
 2100TIP3    H127859   2.068   4.886   6.692 -0.1570  0.3309 -2.4087
 2100TIP3    H227860   2.168   4.999   6.682  0.6408  0.1433  2.2713
 2101TIP3   OH227861   4.874   5.550   1.367 -0.3360 -0.5501  0.4784
 2101TIP3    H127862   4.963   5.545   1.401  0.5102  1.2359 -1.3642
 2101TIP3    H227863   4.877   5.502   1.285 -0.4763  1.3441 -0.6784
 2102TIP3   OH227864   0.411   1.301   7.701  0.0511 -0.2509 -0.5219
 2102TIP3    H127865   0.439   1.253   7.779  0.5525 -2.5371 -2.0495
 2102TIP3    H227866   0.433   1.243   7.628 -0.0652  1.9837 -2.4098
 2103TIP3   OH227867   2.112   4.539   8.088 -0.0363  0.3810  1.0112
 2103TIP3    H127868   2.197   4.496   8.100 -0.2068 -0.6633 -1.2604
 2103TIP3    H227869   2.055   4.498   8.153  0.5136 -0.8848  0.7113
 2104TIP3   OH227870   3.464   6.050   1.056 -0.6216 -0.2201 -0.1821
 2104TIP3    H127871   3.549   6.008   1.068 -0.1624  0.8783  0.4228
 2104TIP3    H227872   3.457   6.062   0.961  1.0433  2.0295 -0.0472
 2105TIP3   OH227873   1.567   7.005   6.974 -0.1520 -0.5535  0.5014
 2105TIP3    H127874   1.489   7.009   6.920 -0.2021  2.8511  0.7087
 2105TIP3    H227875   1.622   7.076   6.942  1.2981 -0.6473  2.6861
 2106TIP3   OH227876   3.440   5.949   1.941  0.1586  0.0360  0.1236
 2106TIP3    H127877   3.444   5.912   2.029 -0.4512 -0.2977  0.0111
 2106TIP3    H227878   3.376   6.019   1.947  1.3881  1.1575  0.3591
 2107TIP3   OH227879   3.552   3.472   0.287 -0.3247  0.0177  0.1014
 2107TIP3    H127880   3.527   3.562   0.308 -0.8713  0.1146 -0.9242
 2107TIP3    H227881   3.647   3.476   0.275 -0.0032 -0.0114  2.3166
 2108TIP3   OH227882   1.748   5.573   1.979 -0.3244  0.2140 -0.1154
 2108TIP3    H127883   1.682   5.642   1.973  0.6089  1.0908 -0.5021
 2108TIP3    H227884   1.831   5.620   1.990  0.2533 -0.8670  0.2692
 2109TIP3   OH227885   1.438   3.951   6.345  0.1366  0.0227  0.4442
 2109TIP3    H127886   1.411   4.008   6.273  2.4588 -0.8428 -1.1747
 2109TIP3    H227887   1.518   3.992   6.379  2.4442 -2.7456 -1.4319
 2110TIP3   OH227888   0.429   3.732   7.213 -0.3449  0.2332 -0.2461
 2110TIP3    H127889   0.459   3.735   7.122  1.0623  1.1753  0.2336
 2110TIP3    H227890   0.491   3.674   7.257 -1.0279 -0.2280  0.1225
 2111TIP3   OH227891   1.923   4.378   1.057  0.1581 -0.6860  0.1939
 2111TIP3    H127892   1.990   4.345   0.998 -0.5022 -3.0719  0.7241
 2111TIP3    H227893   1.904   4.305   1.116 -1.6113  0.5347  1.2122
 2112TIP3   OH227894   0.023   7.140   0.692  0.0400 -0.1552  0.7374
 2112TIP3    H127895  -0.049   7.150   0.754  0.0464 -2.5690  1.1750
 2112TIP3    H227896  -0.020   7.120   0.609  0.0942  1.7629  0.2145
 2113TIP3   OH227897   2.662   5.869   0.542  0.4825 -0.0298  0.1526
 2113TIP3    H127898   2.652   5.787   0.590 -1.0000  0.2667  0.3816
 2113TIP3    H227899   2.754   5.893   0.555  1.0186 -1.8130 -0.2070
 2114TIP3   OH227900   1.625   5.207   6.743 -0.2353 -0.1479 -0.2406
 2114TIP3    H127901   1.686   5.269   6.783 -1.3985  0.1325  1.1527
 2114TIP3    H227902   1.551   5.204   6.803 -2.5586  1.1152 -2.9216
 2115TIP3   OH227903   1.196   5.244   7.346  0.6300  0.8969  0.2842
 2115TIP3    H127904   1.146   5.253   7.427  2.3631 -0.1396  1.5120
 2115TIP3    H227905   1.147   5.181   7.294 -0.6575  1.7953  0.3928
 2116TIP3   OH227906   2.978   3.340   6.948  0.4656 -0.3842  0.5317
 2116TIP3    H127907   2.965   3.245   6.949  0.2666 -0.3776 -0.4954
 2116TIP3    H227908   3.029   3.356   6.869  0.8382  0.3314  0.9093
 2117TIP3   OH227909   2.279   5.566   1.644  0.2446 -0.0342  0.0401
 2117TIP3    H127910   2.331   5.574   1.564 -0.1986  0.0075 -0.2477
 2117TIP3    H227911   2.289   5.650   1.689  2.2072 -0.7987  1.0841
 2118TIP3   OH227912   2.205   0.784   7.579 -0.6951  0.3771 -0.1806
 2118TIP3    H127913   2.115   0.811   7.559 -0.8371 -1.4966 -2.2662
 2118TIP3    H227914   2.234   0.738   7.500 -0.0893 -4.6017  2.7575
 2119TIP3   OH227915   0.776   5.400   6.728  0.1134  0.3866 -0.0056
 2119TIP3    H127916   0.726   5.481   6.737  0.6440  0.4183  3.1510
 2119TIP3    H227917   0.864   5.422   6.758 -0.0367 -1.6182  2.0968
 2120TIP3   OH227918   3.273   6.916   6.704  0.3015 -0.3980 -0.3272
 2120TIP3    H127919   3.243   6.939   6.616 -0.3476 -0.5682 -0.1525
 2120TIP3    H227920   3.240   6.827   6.718 -1.6526  0.5197  1.0157
 2121TIP3   OH227921   3.153   2.905   6.207 -0.1514  0.0049 -0.0569
 2121TIP3    H127922   3.108   2.845   6.147  0.0460  0.8429 -1.0723
 2121TIP3    H227923   3.085   2.967   6.233 -0.6281 -1.2728  1.8588
 2122TIP3   OH227924   2.157   3.928   6.213  0.4017  0.2962 -0.1436
 2122TIP3    H127925   2.081   3.957   6.262  0.1506 -0.4436 -0.0877
 2122TIP3    H227926   2.122   3.868   6.147  0.7020  1.4708 -1.3948
 2123TIP3   OH227927   1.137   4.394   6.802 -0.2357 -0.3437  0.2756
 2123TIP3    H127928   1.185   4.449   6.740 -1.7695  0.0499 -0.5957
 2123TIP3    H227929   1.171   4.306   6.787  0.7097  0.0267  0.1743
 2124TIP3   OH227930   1.436   4.949   6.841  0.2670  0.0308  0.5683
 2124TIP3    H127931   1.347   4.977   6.822  0.1639  0.7854  2.1141
 2124TIP3    H227932   1.478   5.027   6.878  0.8170 -1.0380  2.2596
 2125TIP3   OH227933   6.177   6.095   6.528 -0.3162 -0.1123  0.4648
 2125TIP3    H127934   6.125   6.162   6.484  0.3964  0.2175  0.1281
 2125TIP3    H227935   6.251   6.079   6.470  0.8996  0.6928  1.7769
 2126TIP3   OH227936   1.824   2.264   6.396 -0.1737 -0.4266 -0.5375
 2126TIP3    H127937   1.894   2.328   6.412  0.7446 -0.5475 -3.7981
 2126TIP3    H227938   1.745   2.318   6.386 -0.2075 -0.1503  0.9650
 2127TIP3   OH227939   1.941   4.787   7.289 -0.7319  0.1275  0.2000
 2127TIP3    H127940   2.011   4.810   7.350  2.2193 -1.1379 -2.5495
 2127TIP3    H227941   1.940   4.858   7.226  0.2591 -1.3884 -1.5539
 2128TIP3   OH227942   7.247   0.572   7.954 -0.2347 -0.0544  0.3100
 2128TIP3    H127943   7.223   0.522   8.032 -0.8286  2.3637  1.7393
 2128TIP3    H227944   7.325   0.621   7.980 -0.2322  0.5174 -0.7356
 2129TIP3   OH227945   2.150   3.621   8.109 -0.2025  0.7364 -0.6271
 2129TIP3    H127946   2.066   3.635   8.064 -1.0877 -1.0279  0.4075
 2129TIP3    H227947   2.160   3.697   8.166 -1.4278  0.6437 -0.2736
 2130TIP3   OH227948   2.514   5.062   6.355 -0.2523 -0.0410 -0.7272
 2130TIP3    H127949   2.544   5.129   6.417  1.3545  0.5278 -2.0998
 2130TIP3    H227950   2.577   5.065   6.283 -0.8201 -2.2468 -1.3620
 2131TIP3   OH227951   4.705   4.757   6.271  0.0117  0.4417  0.2474
 2131TIP3    H127952   4.719   4.696   6.198 -2.3973  0.0714  0.0528
 2131TIP3    H227953   4.733   4.708   6.348 -0.8044 -0.4923 -0.0358
 2132TIP3   OH227954   1.218   3.436   7.770  0.7638  0.2284 -0.2505
 2132TIP3    H127955   1.130   3.444   7.734  0.5083  0.3516  0.3935
 2132TIP3    H227956   1.245   3.527   7.787  0.7067  0.1438  0.2890
 2133TIP3   OH227957   3.927   5.400   6.894 -0.1061 -0.0323 -1.2739
 2133TIP3    H127958   3.864   5.472   6.894 -1.9447 -1.6073 -1.1621
 2133TIP3    H227959   3.894   5.339   6.828  1.4398 -0.7691 -1.3777
 2134TIP3   OH227960   6.223   6.579   8.168 -0.1605 -0.0076  0.2154
 2134TIP3    H127961   6.238   6.673   8.177 -1.7523  0.2947 -0.0999
 2134TIP3    H227962   6.298   6.538   8.211  0.4913  1.4025  0.4423
 2135TIP3   OH227963   5.599   5.556   6.454 -0.8666 -0.3459 -0.2739
 2135TIP3    H127964   5.638   5.508   6.381 -0.7634 -1.0593  0.2408
 2135TIP3    H227965   5.555   5.489   6.506 -1.4212  0.2360  0.0100
 2136TIP3   OH227966   3.972   3.190   1.319  0.3168 -0.7598 -0.3114
 2136TIP3    H127967   3.889   3.141   1.319  0.3265 -0.7813 -0.8693
 2136TIP3    H227968   4.039   3.124   1.333  0.1942 -0.6476  0.9046
 2137TIP3   OH227969   5.667   5.255   6.943  0.1243 -0.0075 -0.3539
 2137TIP3    H127970   5.756   5.241   6.976  0.2300 -0.3828 -0.7881
 2137TIP3    H227971   5.630   5.167   6.937 -0.6878  0.2276  0.9335
 2138TIP3   OH227972   4.582   3.520   6.983 -0.0192 -0.2374  0.2151
 2138TIP3    H127973   4.491   3.492   6.991 -0.5188  0.2715 -2.8927
 2138TIP3    H227974   4.579   3.614   7.002  0.0948 -0.5090  1.5564
 2139TIP3   OH227975   0.142   6.159   6.802  0.0155  0.5464 -0.2030
 2139TIP3    H127976   0.195   6.169   6.881 -1.3470 -1.2304  0.9852
 2139TIP3    H227977   0.062   6.208   6.820  0.6252  1.9903 -1.3923
 2140TIP3   OH227978   4.296   4.493   0.939 -0.6933  0.1300 -0.2385
 2140TIP3    H127979   4.254   4.474   0.855 -0.3676 -0.2390 -0.3191
 2140TIP3    H227980   4.332   4.409   0.967  2.6260  1.0208 -1.6352
 2141TIP3   OH227981   3.998   1.747   7.938  0.2642 -0.1351 -0.0708
 2141TIP3    H127982   4.002   1.655   7.964  0.7306  0.2701  1.3423
 2141TIP3    H227983   4.054   1.792   8.000 -0.8972  1.2791 -0.0090
 2142TIP3   OH227984   2.506   3.650   8.333  0.3756 -0.3413 -0.5926
 2142TIP3    H127985   2.452   3.629   8.257 -1.1419  0.5540  0.2122
 2142TIP3    H227986   2.579   3.700   8.297 -0.7701  0.8030 -1.3904
 2143TIP3   OH227987   2.525   6.501   7.273 -0.3219  0.3890  0.2791
 2143TIP3    H127988   2.595   6.564   7.260  0.0820 -0.3540 -1.2012
 2143TIP3    H227989   2.570   6.421   7.301 -0.8630  0.8492  2.6070
 2144TIP3   OH227990   6.889   6.537   8.029  0.1000  0.0711 -0.1928
 2144TIP3    H127991   6.820   6.482   8.065 -0.6202  0.3421 -1.1591
 2144TIP3    H227992   6.930   6.577   8.107  1.0975 -2.3151  0.5720
 2145TIP3   OH227993   3.786   5.882   7.319 -0.2978  0.1311 -0.5346
 2145TIP3    H127994   3.758   5.925   7.237 -0.7520  1.2549  0.1893
 2145TIP3    H227995   3.879   5.864   7.306 -0.2214  0.8598 -1.0726
 2146TIP3   OH227996   2.316   3.298   6.425 -0.1949 -0.3387  0.1069
 2146TIP3    H127997   2.297   3.329   6.336  0.0521 -0.2806  0.0738
 2146TIP3    H227998   2.400   3.338   6.447 -0.3476 -0.2005  0.4409
 2147TIP3   OH227999   3.646   6.248   0.978 -0.2150 -0.3118  0.0402
 2147TIP3    H128000   3.587   6.193   1.030 -0.6568 -0.1429 -0.2757
 2147TIP3    H228001   3.729   6.246   1.025 -0.6972  0.0995  0.9209
 2148TIP3   OH228002   2.608   4.519   7.160  0.2888  0.1339 -0.2194
 2148TIP3    H128003   2.686   4.512   7.215 -0.1801  2.4974  0.8042
 2148TIP3    H228004   2.603   4.612   7.136 -1.4035 -0.2471 -1.4627
 2149TIP3   OH228005   3.122   0.585   8.457  0.2447 -0.7109  0.3293
 2149TIP3    H128006   3.131   0.509   8.399  0.5520 -0.7462  0.4186
 2149TIP3    H228007   3.033   0.579   8.491 -0.1819 -0.2750 -0.7072
 2150TIP3   OH228008   3.892   6.025   6.872 -0.2062 -0.2311  0.1261
 2150TIP3    H128009   3.850   5.952   6.918 -1.4970 -0.1433 -0.8588
 2150TIP3    H228010   3.844   6.102   6.902  0.3551  0.0698  0.2483
 2151TIP3   OH228011   2.268   0.531   7.215  0.1371 -0.2244  0.6606
 2151TIP3    H128012   2.326   0.569   7.149 -0.1439  0.2958  0.7144
 2151TIP3    H228013   2.235   0.451   7.175 -1.9210  1.2935 -0.7807
 2152TIP3   OH228014   2.799   2.350   7.240 -0.2684  0.6313  0.3101
 2152TIP3    H128015   2.847   2.428   7.214  1.4751 -0.7760 -0.8140
 2152TIP3    H228016   2.728   2.343   7.176 -0.1728  1.0453  0.1593
 2153TIP3   OH228017   5.243   4.641   6.675  0.8244  0.2790 -0.1151
 2153TIP3    H128018   5.162   4.593   6.656  0.2855  0.8284  0.7699
 2153TIP3    H228019   5.299   4.625   6.599 -0.0497 -0.2431 -0.6523
 2154TIP3   OH228020   1.642   7.103   8.297 -0.1955 -0.0954  0.4292
 2154TIP3    H128021   1.675   7.044   8.229  0.9028 -0.1171  0.9733
 2154TIP3    H228022   1.603   7.045   8.362 -2.7175  0.0050 -0.9294
 2155TIP3   OH228023   1.520   5.061   8.227 -0.7457 -0.2663  0.2048
 2155TIP3    H128024   1.476   5.080   8.310 -0.7542 -0.8417  0.3357
 2155TIP3    H228025   1.611   5.087   8.242 -0.3950 -1.8650  0.9353
 2156TIP3   OH228026   5.578   4.444   6.745  0.5473 -0.4832  0.1611
 2156TIP3    H128027   5.503   4.466   6.690  1.4174 -1.4986 -1.4782
 2156TIP3    H228028   5.556   4.359   6.783  0.6801 -0.5785  0.0238
 2157TIP3   OH228029   5.881   5.555   7.000 -0.9906 -0.2301 -0.3952
 2157TIP3    H128030   5.788   5.558   6.980 -1.0882 -0.9087 -0.0334
 2157TIP3    H228031   5.908   5.466   6.978  0.3231  0.9624 -3.8407
 2158TIP3   OH228032   6.809   4.186   0.918 -0.1532 -0.2148 -0.1893
 2158TIP3    H128033   6.790   4.095   0.942  0.7038 -0.2452  0.4071
 2158TIP3    H228034   6.790   4.190   0.824  1.8537 -1.5972 -0.6969
 2159TIP3   OH228035   5.555   5.029   1.405 -0.0974 -0.2716 -0.2315
 2159TIP3    H128036   5.590   4.967   1.469 -0.1095 -0.5090 -0.4535
 2159TIP3    H228037   5.561   5.114   1.448 -0.8648 -0.5297  0.3998
 2160TIP3   OH228038   2.548   3.515   6.434 -0.1677  0.1169 -0.4522
 2160TIP3    H128039   2.517   3.527   6.524 -1.3552 -1.1487 -0.6708
 2160TIP3    H228040   2.643   3.507   6.442 -0.3324 -0.7687  0.7892
 2161TIP3   OH228041   4.124   4.218   7.328  0.3441 -0.5946 -0.1448
 2161TIP3    H128042   4.129   4.273   7.406  0.6643 -0.9518  0.0878
 2161TIP3    H228043   4.052   4.157   7.346 -0.4294  0.1518 -0.6662
 2162TIP3   OH228044   3.455   4.669   1.008 -0.2118 -0.3805  0.3274
 2162TIP3    H128045   3.428   4.656   0.917 -0.7212 -1.2141  0.5918
 2162TIP3    H228046   3.495   4.586   1.033 -0.7610 -0.4177  1.0955
 2163TIP3   OH228047   4.654   6.583   7.893  0.6827 -0.0004 -0.4780
 2163TIP3    H128048   4.606   6.652   7.846  0.5447  0.6328  0.5732
 2163TIP3    H228049   4.694   6.628   7.968 -0.1118 -1.2157  0.7004
 2164TIP3   OH228050   3.910   4.008   5.990 -0.5701 -0.1634 -0.1746
 2164TIP3    H128051   3.851   3.977   6.058 -1.0324 -1.4798 -1.1439
 2164TIP3    H228052   3.872   3.975   5.909 -0.6841  2.4176 -1.1993
 2165TIP3   OH228053   2.393   4.268   8.394 -0.1336  0.1703 -0.2835
 2165TIP3    H128054   2.426   4.198   8.338  0.3054 -0.1613  0.3734
 2165TIP3    H228055   2.408   4.235   8.483 -0.2660  0.9412  0.0220
 2166TIP3   OH228056   3.110   5.512   6.229 -0.1933  0.3227  0.3492
 2166TIP3    H128057   3.072   5.440   6.177 -1.3177  0.4388  0.9998
 2166TIP3    H228058   3.069   5.591   6.193  0.2023  0.5429  0.3820
 2167TIP3   OH228059   0.899   5.456   2.360  0.3734 -0.3186  0.0091
 2167TIP3    H128060   0.972   5.505   2.400 -0.1090 -1.9998  3.0781
 2167TIP3    H228061   0.930   5.365   2.358 -0.2377 -0.5245 -2.1649
 2168TIP3   OH228062   5.235   5.631   6.045  0.0250 -0.4864 -0.0808
 2168TIP3    H128063   5.202   5.560   6.101  0.8499 -0.8814 -0.0864
 2168TIP3    H228064   5.159   5.687   6.030 -0.5347 -1.1425  0.2795
 2169TIP3   OH228065   5.657   0.287   7.396  0.9789  0.7811 -0.5343
 2169TIP3    H128066   5.722   0.221   7.372  0.7495  0.5136 -0.4315
 2169TIP3    H228067   5.681   0.364   7.345  1.0874  0.5304 -0.8682
 2170TIP3   OH228068   4.065   4.821   6.626  0.3268  0.8459 -0.1682
 2170TIP3    H128069   4.000   4.878   6.666 -0.2441 -0.1922  0.4321
 2170TIP3    H228070   4.044   4.734   6.660  2.5689  0.6171  0.7481
 2171TIP3   OH228071   3.099   3.210   8.113 -0.1182  0.1671  0.3396
 2171TIP3    H128072   3.121   3.163   8.193  0.5915 -0.9784 -0.4960
 2171TIP3    H228073   3.139   3.157   8.043 -0.4819  1.2871 -0.7374
 2172TIP3   OH228074   2.501   4.652   6.677 -0.3067 -0.1097 -0.0122
 2172TIP3    H128075   2.497   4.720   6.610  0.5265 -0.7782 -0.7555
 2172TIP3    H228076   2.412   4.647   6.712  0.3514  3.8969  2.5955
 2173TIP3   OH228077   6.832   3.503   1.520  0.9558 -0.9256  0.9378
 2173TIP3    H128078   6.861   3.593   1.537 -1.4641  0.0310  0.2844
 2173TIP3    H228079   6.848   3.457   1.602 -0.1488  0.7894  2.1682
 2174TIP3   OH228080   5.594   5.371   8.096 -0.0383 -0.4809  0.2319
 2174TIP3    H128081   5.505   5.402   8.082  0.4484  0.8017 -0.0445
 2174TIP3    H228082   5.603   5.367   8.192 -0.1904 -0.0413  0.2632
 2175TIP3   OH228083   3.648   3.710   6.819  0.1514 -0.0388 -0.4674
 2175TIP3    H128084   3.671   3.722   6.912 -0.1984 -0.6990 -0.2958
 2175TIP3    H228085   3.696   3.632   6.793 -0.0179 -0.0450 -0.7541
 2176TIP3   OH228086   5.222   7.171   0.168  0.4978 -0.6837  0.1379
 2176TIP3    H128087   5.317   7.178   0.158  0.4009  0.1400 -0.2189
 2176TIP3    H228088   5.187   7.214   0.090 -0.1383 -3.2689 -1.0445
 2177TIP3   OH228089   5.404   3.936   6.644 -0.1642 -0.1595 -0.0916
 2177TIP3    H128090   5.366   3.854   6.612 -0.0474 -0.1780 -0.1825
 2177TIP3    H228091   5.416   3.922   6.738 -1.3728  0.2228  0.1374
 2178TIP3   OH228092   6.361   6.500   1.342  0.1341 -0.3354 -0.3543
 2178TIP3    H128093   6.309   6.552   1.280 -0.5700 -1.6932 -0.9245
 2178TIP3    H228094   6.314   6.509   1.425  1.2731  1.7777  0.0864
 2179TIP3   OH228095   5.346   6.407   8.067  0.2775 -0.3449  0.0951
 2179TIP3    H128096   5.396   6.431   7.989  1.2880 -1.1749  0.4709
 2179TIP3    H228097   5.400   6.437   8.141  0.1680 -1.1216  0.4983
 2180TIP3   OH228098   0.128   0.689   8.126 -0.1021  0.0499  0.1764
 2180TIP3    H128099   0.143   0.758   8.191  1.9113 -0.3466  0.1873
 2180TIP3    H228100   0.207   0.635   8.132 -1.1874 -1.6169 -0.6050
 2181TIP3   OH228101   3.178   2.304   6.268 -0.0404  0.0318  0.6552
 2181TIP3    H128102   3.158   2.235   6.332  1.0678  0.3191  1.3098
 2181TIP3    H228103   3.118   2.286   6.196 -0.9659 -0.5935  1.5529
 2182TIP3   OH228104   4.022   5.306   1.645  0.4557 -0.4503  0.3170
 2182TIP3    H128105   3.952   5.256   1.688  0.0166 -2.8507 -2.9967
 2182TIP3    H228106   3.986   5.394   1.636 -1.9191 -1.4853 -0.7268
 2183TIP3   OH228107   6.271   5.182   8.340 -0.5068  0.0616 -0.1061
 2183TIP3    H128108   6.221   5.118   8.391 -0.2501  1.0747  1.4698
 2183TIP3    H228109   6.222   5.263   8.349  0.2392  0.5488 -0.4202
 2184TIP3   OH228110   0.877   6.307   8.181  0.9663 -0.3548  0.2980
 2184TIP3    H128111   0.804   6.255   8.215 -0.8194  1.7590 -0.2626
 2184TIP3    H228112   0.913   6.351   8.258  2.8969 -2.8449  0.8843
 2185TIP3   OH228113   3.166   6.661   6.818 -0.2445 -0.3121 -0.2554
 2185TIP3    H128114   3.081   6.634   6.853  0.0644 -0.7572  0.1797
 2185TIP3    H228115   3.211   6.578   6.798  1.1273 -0.1979  2.0858
 2186TIP3   OH228116   3.182   4.687   7.602  0.0796  0.2287  0.2463
 2186TIP3    H128117   3.260   4.649   7.562 -0.2589 -1.6351  1.2834
 2186TIP3    H228118   3.214   4.732   7.680  0.1972 -0.0674  0.3706
 2187TIP3   OH228119   2.915   4.512   7.975  0.0392  0.4353 -0.0230
 2187TIP3    H128120   2.909   4.504   8.070 -0.6455 -0.5037 -0.1464
 2187TIP3    H228121   2.938   4.604   7.961  1.0042  0.3700  1.0788
 2188TIP3   OH228122   3.626   4.738   0.080 -0.5393  0.9229 -0.5458
 2188TIP3    H128123   3.640   4.691   0.162 -0.9689  0.4869 -0.7222
 2188TIP3    H228124   3.598   4.670   0.018 -3.3506  1.7528 -0.2369
 2189TIP3   OH228125   2.247   3.069   1.246 -0.4742 -0.4215 -0.3868
 2189TIP3    H128126   2.321   3.072   1.306 -2.6669  0.7022  2.4001
 2189TIP3    H228127   2.235   2.976   1.226  1.3565 -0.6464 -0.4831
 2190TIP3   OH228128   4.529   5.473   6.745  0.0900 -0.0605 -0.3575
 2190TIP3    H128129   4.474   5.539   6.702 -0.0777  0.0133 -0.0342
 2190TIP3    H228130   4.603   5.461   6.686  0.0670  0.3375 -0.4706
 2191TIP3   OH228131   3.076   4.578   6.437  0.7511  0.3908  0.1416
 2191TIP3    H128132   3.047   4.499   6.482  0.4132  0.3853 -0.0835
 2191TIP3    H228133   3.076   4.554   6.344  1.9219  0.2418  0.1607
 2192TIP3   OH228134   3.840   0.434   7.812  0.5986  0.0920  0.1295
 2192TIP3    H128135   3.821   0.499   7.744 -1.4496 -0.4665  0.1559
 2192TIP3    H228136   3.923   0.464   7.850  0.6257  1.6641 -1.0852
 2193TIP3   OH228137   1.605   5.651   0.121 -0.6507  0.1852 -0.5527
 2193TIP3    H128138   1.687   5.691   0.150 -1.0782  0.6117  0.0844
 2193TIP3    H228139   1.568   5.713   0.059 -1.8084  1.3022  1.1861
 2194TIP3   OH228140   3.028   5.096   7.321  0.5101  0.3266  0.4905
 2194TIP3    H128141   3.063   5.144   7.396 -0.8823 -0.8017  1.8889
 2194TIP3    H228142   2.933   5.102   7.331  0.3070 -2.6498  0.6655
 2195TIP3   OH228143   1.607   3.924   8.474 -0.1612 -0.0759 -0.5083
 2195TIP3    H128144   1.573   3.959   8.391  0.1018 -0.2006 -0.6678
 2195TIP3    H228145   1.609   4.000   8.532  0.4592  0.1916 -0.8714
 2196TIP3   OH228146   2.288   6.304   7.677  0.3114  0.6361  0.3053
 2196TIP3    H128147   2.355   6.241   7.703  0.5524  0.0716 -1.6161
 2196TIP3    H228148   2.223   6.301   7.748  0.5016 -1.5066  0.4123
 2197TIP3   OH228149   2.987   5.396   1.248 -0.3197 -0.0512  0.1579
 2197TIP3    H128150   3.055   5.433   1.192  1.8738 -0.5111  2.4176
 2197TIP3    H228151   2.962   5.469   1.305 -0.2699 -0.4205  0.6523
 2198TIP3   OH228152   1.061   4.695   0.028 -0.1488  0.4491 -0.0697
 2198TIP3    H128153   1.106   4.699   0.112 -2.2737  2.3852  1.0192
 2198TIP3    H228154   1.103   4.763  -0.025  0.9586 -0.5449 -0.5121
 2199TIP3   OH228155   2.372   6.831   0.127  0.2286 -0.3985  0.2177
 2199TIP3    H128156   2.440   6.772   0.157  2.2665  2.2661  1.0459
 2199TIP3    H228157   2.396   6.852   0.037 -0.3357 -0.6267  0.0119
 2200TIP3   OH228158   3.704   4.053   6.202  0.5475 -0.3386 -0.1624
 2200TIP3    H128159   3.647   4.068   6.127  0.3645  0.6540  0.1725
 2200TIP3    H228160   3.685   4.125   6.262  0.0260 -1.6163  1.2511
 2201TIP3   OH228161   3.955   2.531   6.575 -0.3416 -0.5920  0.0834
 2201TIP3    H128162   4.030   2.556   6.629  1.6132 -2.5366 -1.6046
 2201TIP3    H228163   3.939   2.607   6.520 -1.8685  1.1170  2.7886
 2202TIP3   OH228164   1.786   2.474   1.227 -0.2377  0.2968  0.4774
 2202TIP3    H128165   1.742   2.448   1.307 -0.8848 -2.3738 -0.6882
 2202TIP3    H228166   1.730   2.442   1.157  0.6536  1.9735 -1.0581
 2203TIP3   OH228167   7.217   5.258   0.933  0.5796 -0.3627  0.1004
 2203TIP3    H128168   7.137   5.297   0.968  2.0354  2.9230 -0.0539
 2203TIP3    H228169   7.202   5.254   0.838  0.2624 -0.5053  0.1566
 2204TIP3   OH228170   3.800   4.912   6.992 -0.2265 -0.8514 -0.1076
 2204TIP3    H128171   3.789   4.982   7.056 -3.0564 -1.3214 -0.0135
 2204TIP3    H228172   3.893   4.891   6.995  0.2782  1.4335  1.4025
 2205TIP3   OH228173   5.981   5.161   1.843  0.0797  0.1860  0.0261
 2205TIP3    H128174   5.951   5.161   1.934 -0.7908  0.2116 -0.2466
 2205TIP3    H228175   5.908   5.200   1.794  1.0087  1.2699 -0.5308
 2206TIP3   OH228176   1.639   4.619   7.130  0.4178  0.5427  0.0838
 2206TIP3    H128177   1.582   4.556   7.087 -1.0287  2.0854 -0.2694
 2206TIP3    H228178   1.711   4.565   7.165 -1.2037 -1.4047  0.5111
 2207TIP3   OH228179   6.257   7.086   8.289 -0.1477 -0.9308  0.0768
 2207TIP3    H128180   6.318   7.049   8.354 -0.1087  0.5843  0.9191
 2207TIP3    H228181   6.186   7.122   8.341 -0.5299 -0.4377 -0.7838
 2208TIP3   OH228182   5.570   4.816   7.171  0.6426 -0.2558  0.6921
 2208TIP3    H128183   5.552   4.761   7.095  1.3244  0.4795 -0.0201
 2208TIP3    H228184   5.490   4.868   7.183 -0.0457 -1.4770  1.4425
 2209TIP3   OH228185   3.904   5.939   0.104  0.8417  0.1345 -0.3820
 2209TIP3    H128186   3.997   5.957   0.102  0.8882 -0.2073 -2.2219
 2209TIP3    H228187   3.863   6.024   0.122  1.4859  0.3467  0.0955
 2210TIP3   OH228188   2.713   3.134   6.386 -0.8518  0.1711  0.0243
 2210TIP3    H128189   2.744   3.216   6.423 -0.4638  0.1799 -0.3196
 2210TIP3    H228190   2.680   3.158   6.299 -2.0089  0.1978  0.4610
 2211TIP3   OH228191   5.028   5.473   6.825  0.0645  0.3033 -0.4948
 2211TIP3    H128192   4.976   5.545   6.859 -0.7169 -0.8924  0.8819
 2211TIP3    H228193   4.974   5.435   6.755 -0.2747  0.0065 -0.0783
 2212TIP3   OH228194   6.889   5.383   7.046  0.4410  0.3029 -0.3622
 2212TIP3    H128195   6.840   5.433   6.981  0.0910 -0.0695 -0.3820
 2212TIP3    H228196   6.848   5.404   7.129  0.7265  0.5768 -0.2876
 2213TIP3   OH228197   3.990   6.778   7.212 -0.2925 -0.2268  0.2845
 2213TIP3    H128198   3.925   6.830   7.259 -0.2403 -0.5446  0.7114
 2213TIP3    H228199   4.074   6.817   7.237 -0.4184  1.6414 -2.0438
 2214TIP3   OH228200   5.066   5.002   7.675  0.2253  0.3785 -0.4646
 2214TIP3    H128201   5.031   5.012   7.586  0.6905  3.1510 -0.3682
 2214TIP3    H228202   5.137   4.938   7.665 -2.1007 -2.1495 -1.3853
 2215TIP3   OH228203   5.982   4.865   1.969 -0.1145  0.2363 -0.1451
 2215TIP3    H128204   6.056   4.804   1.977 -1.2552 -0.9025  2.0448
 2215TIP3    H228205   5.984   4.916   2.050 -1.0918  0.9136 -0.5458
 2216TIP3   OH228206   5.286   0.087   7.270 -0.4280 -0.2792  0.0165
 2216TIP3    H128207   5.320   0.001   7.246 -0.6056 -0.7648  1.4785
 2216TIP3    H228208   5.242   0.074   7.354  0.9620  1.5396  1.0760
 2217TIP3   OH228209   3.956   4.076   0.976  0.2305 -0.4057 -0.2393
 2217TIP3    H128210   3.975   4.060   1.068  0.2254 -1.6082 -0.4368
 2217TIP3    H228211   4.042   4.086   0.935  0.2822 -1.1294 -0.3156
 2218TIP3   OH228212   4.821   4.086   6.498 -0.0655  0.3230 -0.0663
 2218TIP3    H128213   4.760   4.154   6.470 -1.5138 -1.0230 -0.2161
 2218TIP3    H228214   4.810   4.016   6.434  0.5349 -0.5510  0.7802
 2219TIP3   OH228215   3.038   6.136   7.378  0.3891 -0.5522  0.2793
 2219TIP3    H128216   3.079   6.210   7.334  0.9463  0.9413  3.1745
 2219TIP3    H228217   2.949   6.133   7.342  0.8044  0.6424 -0.8793
 2220TIP3   OH228218   4.530   5.488   6.129  0.5333 -0.2837 -0.0002
 2220TIP3    H128219   4.441   5.451   6.129  0.4515 -0.0901 -0.5520
 2220TIP3    H228220   4.550   5.501   6.037  1.0329 -0.0729  0.1398
 2221TIP3   OH228221   1.618   4.410   8.168 -0.1140  0.0787  0.0662
 2221TIP3    H128222   1.569   4.460   8.232  0.1085  0.3628  0.0155
 2221TIP3    H228223   1.697   4.382   8.214  0.0972  0.3740 -0.1120
 2222TIP3   OH228224   1.869   3.217   6.800  0.2408 -0.1323 -0.0412
 2222TIP3    H128225   1.819   3.237   6.879 -0.9589 -0.5583 -0.6725
 2222TIP3    H228226   1.815   3.251   6.728  0.8279 -0.6616 -0.7424
 2223TIP3   OH228227   5.019   5.181   6.597  0.3019  0.6858 -0.3179
 2223TIP3    H128228   4.958   5.251   6.575 -1.6921 -1.0193 -0.3486
 2223TIP3    H228229   4.981   5.103   6.557  1.8662 -0.6197  0.7180
 2224TIP3   OH228230   1.003   2.241   8.092  0.5117  0.4755 -0.0060
 2224TIP3    H128231   1.033   2.196   8.013  0.6407  0.9032 -0.2028
 2224TIP3    H228232   0.996   2.172   8.158 -0.6738 -0.0782 -0.6915
 2225TIP3   OH228233   3.165   6.057   7.860 -0.3384  0.0638 -0.3329
 2225TIP3    H128234   3.252   6.096   7.866  0.0963 -0.8774 -0.5301
 2225TIP3    H228235   3.146   6.056   7.766 -1.0429  1.3162 -0.2137
 2226TIP3   OH228236   4.199   1.047   0.061 -0.4846 -0.2474  0.0768
 2226TIP3    H128237   4.206   1.069  -0.031 -1.1717 -0.9482 -0.1468
 2226TIP3    H228238   4.177   1.129   0.104  0.0941  0.1314 -0.3455
 2227TIP3   OH228239   4.270   4.396   6.022  0.0206  0.0913  0.1218
 2227TIP3    H128240   4.364   4.390   6.037  0.0963 -1.1789 -0.7745
 2227TIP3    H228241   4.259   4.475   5.969  0.5671  0.3202  0.3518
 2228TIP3   OH228242   5.527   3.867   6.295  0.1289  0.0903  0.5426
 2228TIP3    H128243   5.600   3.913   6.255  0.4426 -2.2729 -1.7888
 2228TIP3    H228244   5.567   3.789   6.334 -0.6009  0.8886  2.9935
 2229TIP3   OH228245   4.435   5.648   0.004 -1.0816  0.6024  0.0942
 2229TIP3    H128246   4.340   5.651  -0.001 -1.1402  0.5466  1.0036
 2229TIP3    H228247   4.464   5.735  -0.023 -1.3323  0.2415 -1.3401
 2230TIP3   OH228248   4.003   2.669   6.941 -0.7449  0.4881 -0.3240
 2230TIP3    H128249   3.916   2.629   6.948  0.0212 -1.1805  0.0621
 2230TIP3    H228250   3.987   2.755   6.903 -2.6845  0.6840  0.8695
 2231TIP3   OH228251   3.284   5.625   5.978  1.1902  0.1409  0.3415
 2231TIP3    H128252   3.230   5.691   5.935  1.0123 -0.0968  0.1956
 2231TIP3    H228253   3.335   5.673   6.044 -0.4949  0.0953  1.6971
 2232TIP3   OH228254   7.279   5.042   7.885  0.8796 -0.0524 -0.3890
 2232TIP3    H128255   7.253   5.063   7.795  0.1670  1.3101  0.1158
 2232TIP3    H228256   7.232   4.961   7.905  0.7345 -0.1543 -1.1236
 2233TIP3   OH228257   5.262   5.736   0.108  0.5423 -0.1156  0.3023
 2233TIP3    H128258   5.248   5.737   0.014 -1.1338 -0.1480  0.5489
 2233TIP3    H228259   5.343   5.787   0.120  1.2402 -0.8363 -1.2042
 2234TIP3   OH228260   2.643   5.696   6.769  0.4828  0.1545  0.3543
 2234TIP3    H128261   2.626   5.756   6.696 -0.2492  1.1712  1.3449
 2234TIP3    H228262   2.559   5.652   6.783  0.1677  1.1457  1.6376
 2235TIP3   OH228263   6.493   4.896   7.866  1.0059  0.3587 -0.1082
 2235TIP3    H128264   6.417   4.943   7.831  0.4549  0.7295  1.5278
 2235TIP3    H228265   6.466   4.805   7.871  1.2371  0.2382 -1.0433
 2236TIP3   OH228266   3.034   7.096   1.991  0.0119 -0.0045  0.2348
 2236TIP3    H128267   2.986   7.156   1.934  0.6797 -1.5017 -1.9462
 2236TIP3    H228268   2.985   7.098   2.073 -1.1031  2.0077 -0.4439
 2237TIP3   OH228269   2.769   2.692   7.845  0.4516 -0.5962  0.6575
 2237TIP3    H128270   2.693   2.641   7.815 -0.9082  0.5662  2.0420
 2237TIP3    H228271   2.770   2.680   7.940  1.5002  0.0911  0.7413
 2238TIP3   OH228272   0.793   3.752   8.493 -0.2100 -0.0825  0.0252
 2238TIP3    H128273   0.792   3.670   8.443  1.0794 -0.2013  0.1847
 2238TIP3    H228274   0.879   3.790   8.476  0.0804  0.1052  1.7765
 2239TIP3   OH228275   5.548   6.129   1.532  0.4947 -0.3712 -0.2620
 2239TIP3    H128276   5.530   6.103   1.442  0.7057  1.5503 -0.8812
 2239TIP3    H228277   5.463   6.119   1.576  0.5367 -1.9372 -0.4906
 2240TIP3   OH228278   1.679   2.821   6.629 -0.1518 -0.1858 -0.0638
 2240TIP3    H128279   1.616   2.808   6.699 -0.2297 -1.4303 -0.3522
 2240TIP3    H228280   1.641   2.890   6.575 -1.6333 -1.4149 -0.6328
 2241TIP3   OH228281   4.020   0.521   0.688  0.1444 -0.7286  0.0923
 2241TIP3    H128282   4.019   0.544   0.781 -1.5859 -0.0104 -0.0861
 2241TIP3    H228283   4.075   0.587   0.647  0.5361 -0.7770  0.5335
 2242TIP3   OH228284   0.514   2.856   0.997 -0.2373  0.0385  0.5990
 2242TIP3    H128285   0.550   2.768   0.986 -0.7261  0.0071 -0.7544
 2242TIP3    H228286   0.570   2.912   0.944 -0.9816  0.2896  0.0770
 2243TIP3   OH228287   0.539   4.158   7.091  0.3782 -0.8408 -0.7274
 2243TIP3    H128288   0.501   4.245   7.106  0.0808 -1.3022  1.3319
 2243TIP3    H228289   0.632   4.175   7.076  0.5583 -0.2433  0.9286
 2244TIP3   OH228290   0.374   3.967   6.999 -0.1105 -0.2240  0.1637
 2244TIP3    H128291   0.433   3.893   6.985 -0.1068 -0.4489  1.3364
 2244TIP3    H228292   0.430   4.037   7.032  0.1439  0.8000 -2.3149
 2245TIP3   OH228293   5.526   5.555   6.062 -0.4186 -0.1957 -0.4141
 2245TIP3    H128294   5.437   5.590   6.066 -0.6484 -0.8038 -0.0795
 2245TIP3    H228295   5.523   5.477   6.117  1.3283  1.8797  2.7354
 2246TIP3   OH228296   2.750   6.746   7.834 -0.5500  0.5827  0.1771
 2246TIP3    H128297   2.728   6.722   7.744  0.2936  0.4703 -0.0005
 2246TIP3    H228298   2.679   6.709   7.886 -0.3967 -0.4406 -0.3177
 2247TIP3   OH228299   2.967   0.501   7.179 -0.4007 -0.0668  0.1463
 2247TIP3    H128300   3.036   0.447   7.218  1.4916  1.5585 -0.8528
 2247TIP3    H228301   3.014   0.575   7.140 -2.7814  1.4146  0.0085
 2248TIP3   OH228302   4.741   4.823   6.582  0.3688  0.4597 -0.5208
 2248TIP3    H128303   4.820   4.787   6.622 -0.7324 -3.0943 -1.3718
 2248TIP3    H228304   4.773   4.883   6.515  2.3132 -0.1158 -0.1303
 2249TIP3   OH228305   3.699   2.180   7.907  0.0785 -0.1385  0.0246
 2249TIP3    H128306   3.757   2.250   7.935 -0.9137  0.6543  0.1421
 2249TIP3    H228307   3.611   2.216   7.919 -0.4209 -1.0712 -0.7728
 2250TIP3   OH228308   2.422   6.324   7.047  0.7841  0.1287 -0.4045
 2250TIP3    H128309   2.427   6.409   7.091  0.4082 -0.8648  1.6155
 2250TIP3    H228310   2.479   6.333   6.971  1.1293  2.0262  0.0505
 2251TIP3   OH228311   1.847   5.338   7.870 -0.0981  0.5073  0.2828
 2251TIP3    H128312   1.902   5.350   7.792 -1.0817  0.1700 -0.4730
 2251TIP3    H228313   1.766   5.386   7.850 -2.0664 -3.0545 -0.7050
 2252TIP3   OH228314   3.624   5.678   1.059  0.1346 -0.1715  0.3475
 2252TIP3    H128315   3.594   5.756   1.012 -2.2384 -1.5525 -0.4850
 2252TIP3    H228316   3.720   5.682   1.053 -0.0123  1.8224 -1.0686
 2253TIP3   OH228317   1.417   5.617   1.852  0.3813  0.1509  0.1544
 2253TIP3    H128318   1.495   5.671   1.863  0.3446  0.0899  0.7452
 2253TIP3    H228319   1.362   5.637   1.929  0.5742 -1.0461  0.6220
 2254TIP3   OH228320   4.924   3.968   1.518  0.0202  0.1061 -0.4411
 2254TIP3    H128321   4.841   4.014   1.531  1.2401  1.7466  1.9061
 2254TIP3    H228322   4.935   3.964   1.423 -2.6539 -0.0184 -0.7871
 2255TIP3   OH228323   3.199   6.394   7.020 -0.6468  0.6682  0.1560
 2255TIP3    H128324   3.268   6.419   7.081  0.0339 -1.1881  0.1939
 2255TIP3    H228325   3.232   6.420   6.934 -0.2126  0.4446  0.2518
 2256TIP3   OH228326   4.155   6.008   6.871 -0.1117 -0.3654 -0.1393
 2256TIP3    H128327   4.185   5.938   6.814 -0.6415  1.2943 -2.5109
 2256TIP3    H228328   4.059   5.998   6.873 -0.0717 -0.6694  0.8313
 2257TIP3   OH228329   4.695   6.616   7.004  0.7155 -0.3940  0.6502
 2257TIP3    H128330   4.667   6.575   6.922 -0.4579 -0.2442  0.9670
 2257TIP3    H228331   4.790   6.604   7.005  0.7667 -0.2723 -0.8007
 2258TIP3   OH228332   7.089   2.258   7.586  0.8125  0.4557  0.2748
 2258TIP3    H128333   7.087   2.338   7.533  0.8548  0.5087  0.3522
 2258TIP3    H228334   7.061   2.189   7.526 -1.7422  0.9122  0.8999
 2259TIP3   OH228335   4.402   5.978   6.231  0.5250 -0.1499 -0.2065
 2259TIP3    H128336   4.348   5.899   6.233 -0.4479  0.5264  1.0651
 2259TIP3    H228337   4.461   5.965   6.157 -0.9344 -1.1976 -1.2133
 2260TIP3   OH228338   5.659   4.025   6.543 -0.5652  0.3508  0.1457
 2260TIP3    H128339   5.645   4.076   6.464  0.6207 -1.1483 -1.0569
 2260TIP3    H228340   5.576   3.979   6.558 -0.2379 -0.7256 -1.2478
 2261TIP3   OH228341   4.816   4.849   7.496 -0.2374 -0.4316  0.2881
 2261TIP3    H128342   4.894   4.795   7.511 -0.0514 -0.9293 -2.1713
 2261TIP3    H228343   4.795   4.886   7.582  1.6775 -1.6722  1.3316
 2262TIP3   OH228344   3.932   7.000   6.801  0.0291 -0.0602  0.1474
 2262TIP3    H128345   3.845   7.036   6.822 -0.5137 -0.7748 -0.8357
 2262TIP3    H228346   3.939   7.006   6.706  0.2564 -1.7754  0.0313
 2263TIP3   OH228347   3.853   5.865   6.526 -0.0350  0.0765 -0.5224
 2263TIP3    H128348   3.810   5.938   6.480 -1.3007 -1.0664 -1.1877
 2263TIP3    H228349   3.865   5.798   6.459  2.3416  0.1551 -0.2144
 2264TIP3   OH228350   5.963   5.678   5.836  0.2105  0.3390 -0.9755
 2264TIP3    H128351   5.874   5.651   5.855 -0.2122  1.5805 -1.1098
 2264TIP3    H228352   6.016   5.600   5.848 -0.8120 -0.2469 -0.2720
 2265TIP3   OH228353   5.119   3.575   6.717 -0.1958  0.7089 -0.0017
 2265TIP3    H128354   5.061   3.567   6.641 -1.4180 -2.0180  1.1496
 2265TIP3    H228355   5.207   3.569   6.680 -0.7741 -0.2686 -1.2685
 2266TIP3   OH228356   2.050   4.872   0.846 -0.4104  0.1145 -0.1521
 2266TIP3    H128357   2.036   4.872   0.941 -0.5673  0.3044 -0.1746
 2266TIP3    H228358   1.968   4.906   0.810  0.2516  1.6415 -0.2572
 2267TIP3   OH228359   6.093   5.671   0.829  0.2456 -0.2282 -0.2521
 2267TIP3    H128360   6.135   5.624   0.757 -0.2617  0.3233 -0.9097
 2267TIP3    H228361   6.132   5.633   0.908 -0.3425 -1.9196 -0.7739
 2268TIP3   OH228362   4.356   4.113   2.334  0.1335 -0.4791 -0.2959
 2268TIP3    H128363   4.280   4.092   2.280 -0.8791 -0.9702  1.2867
 2268TIP3    H228364   4.409   4.033   2.334 -0.4313 -0.8559  0.3593
 2269TIP3   OH228365   5.947   5.029   5.891 -0.0814 -0.0797 -0.2929
 2269TIP3    H128366   6.020   5.030   5.830 -0.3591  0.7632 -0.6226
 2269TIP3    H228367   5.983   5.061   5.973  0.0330 -0.1275 -0.3251
 2270TIP3   OH228368   4.598   2.300   7.233 -0.5346 -0.0942  0.2597
 2270TIP3    H128369   4.628   2.391   7.236 -0.1966 -0.1899 -0.2033
 2270TIP3    H228370   4.511   2.305   7.193 -0.3180 -0.0276 -0.2007
 2271TIP3   OH228371   4.620   6.528   0.594  0.5244  0.3430 -0.1631
 2271TIP3    H128372   4.579   6.519   0.508 -0.3044  2.2087  0.0188
 2271TIP3    H228373   4.581   6.458   0.646 -0.2914  0.3064 -0.8099
 2272TIP3   OH228374   1.399   1.400   7.968  0.2540 -0.1746 -0.3363
 2272TIP3    H128375   1.468   1.457   7.934 -1.5752  1.1390 -1.9345
 2272TIP3    H228376   1.387   1.429   8.059  0.7422  0.6287 -0.5221
 2273TIP3   OH228377   6.320   6.132   1.108 -0.3449  0.1520 -0.8042
 2273TIP3    H128378   6.357   6.053   1.147 -1.2535 -0.2155 -0.6836
 2273TIP3    H228379   6.260   6.100   1.042 -1.0135  0.7458 -0.4849
 2274TIP3   OH228380   5.436   4.657   5.934  0.1735  0.0612  0.2602
 2274TIP3    H128381   5.496   4.699   5.872  1.3430 -1.9272  0.0033
 2274TIP3    H228382   5.435   4.716   6.009  0.6550  1.2705 -0.6628
 2275TIP3   OH228383   4.360   3.234   7.198  0.5293  0.0595 -0.3445
 2275TIP3    H128384   4.322   3.278   7.122 -0.9801  2.2722  1.6214
 2275TIP3    H228385   4.286   3.193   7.242  1.5456 -2.1547 -0.6222
 2276TIP3   OH228386   2.914   3.882   2.238 -0.0138 -0.0770 -0.3926
 2276TIP3    H128387   2.818   3.887   2.236 -0.1258 -1.6203  0.5127
 2276TIP3    H228388   2.943   3.969   2.210 -1.6868  0.8100  0.5783
 2277TIP3   OH228389   4.770   0.548   1.759  0.0588  0.1009 -0.9420
 2277TIP3    H128390   4.825   0.576   1.832  0.7945  2.6175 -2.4119
 2277TIP3    H228391   4.699   0.611   1.757 -0.0297 -0.0237 -2.3070
 2278TIP3   OH228392   0.339   5.053   7.409 -0.4390  0.0841 -0.2176
 2278TIP3    H128393   0.382   5.073   7.326 -0.7069  2.0049  0.0899
 2278TIP3    H228394   0.389   5.102   7.475  0.5443 -2.3905  0.9500
 2279TIP3   OH228395   5.871   5.744   0.977 -0.3826 -0.3543  0.1230
 2279TIP3    H128396   5.888   5.667   1.032 -1.1504 -2.8430 -2.9841
 2279TIP3    H228397   5.941   5.742   0.911  0.5443  2.5829  0.9455
 2280TIP3   OH228398   2.753   2.066   7.298 -0.0182  0.2113  0.6798
 2280TIP3    H128399   2.769   2.156   7.269  0.6546 -0.1933 -0.2172
 2280TIP3    H228400   2.659   2.064   7.317  0.3727  1.7325  2.9815
 2281TIP3   OH228401   3.800   3.736   7.130  0.8009  0.3895 -0.4868
 2281TIP3    H128402   3.712   3.771   7.120  1.0728  1.3280  0.3632
 2281TIP3    H228403   3.789   3.641   7.118 -0.3723  0.4617 -0.0519
 2282TIP3   OH228404   2.082   4.840   0.409  0.2555  0.0761  0.0692
 2282TIP3    H128405   2.094   4.792   0.491 -0.9352 -0.5423 -0.1046
 2282TIP3    H228406   2.159   4.818   0.357  0.1989 -0.8748  0.3713
 2283TIP3   OH228407   3.580   5.985   6.278 -0.4595  0.6740 -0.0111
 2283TIP3    H128408   3.630   6.041   6.337  0.3755  0.9732 -0.9973
 2283TIP3    H228409   3.647   5.938   6.228 -1.1247 -1.5528  1.1133
 2284TIP3   OH228410   4.994   6.451   6.543  0.8083 -0.0874 -0.0021
 2284TIP3    H128411   4.911   6.419   6.508  0.6381 -0.1377  0.4464
 2284TIP3    H228412   4.979   6.461   6.637  1.1532  0.3918  0.0064
 2285TIP3   OH228413   6.025   2.987   6.833  0.2505 -0.0054  0.2288
 2285TIP3    H128414   6.085   2.936   6.887  0.3046 -0.1604  0.0213
 2285TIP3    H228415   6.080   3.029   6.768  0.2394  0.5404  0.5658
 2286TIP3   OH228416   2.907   5.110   7.975  0.5064  0.3716  0.1817
 2286TIP3    H128417   2.873   5.197   7.998 -2.2462 -0.9382  1.3052
 2286TIP3    H228418   2.907   5.109   7.879 -0.5900  1.1958  0.1671
 2287TIP3   OH228419   5.480   6.864   7.979 -0.6171  0.0964 -0.1883
 2287TIP3    H128420   5.404   6.910   7.943  0.4640  0.1439 -2.5250
 2287TIP3    H228421   5.492   6.789   7.921  2.0814  0.9942 -0.8673
 2288TIP3   OH228422   7.237   4.926   6.598 -0.4710 -0.1290 -0.4292
 2288TIP3    H128423   7.158   4.953   6.551 -0.9426 -1.5324 -0.4594
 2288TIP3    H228424   7.221   4.835   6.621  0.3721  0.1068  1.1721
 2289TIP3   OH228425   4.899   5.812   6.871  0.5771  0.4914  0.0718
 2289TIP3    H128426   4.828   5.791   6.932 -0.9293 -0.0821 -1.8382
 2289TIP3    H228427   4.890   5.906   6.856 -1.1022  0.1003 -1.7047
 2290TIP3   OH228428   3.141   5.928   7.232  0.4980  0.3057  0.1526
 2290TIP3    H128429   3.125   5.988   7.305  0.0521 -0.4087  0.6542
 2290TIP3    H228430   3.162   5.845   7.274 -1.5268 -0.5787 -0.5000
 2291TIP3   OH228431   3.618   5.079   6.602  0.5316  0.5322  0.0666
 2291TIP3    H128432   3.523   5.070   6.609  0.5788 -0.5821 -0.7812
 2291TIP3    H228433   3.639   5.052   6.513  1.6468  0.8054  0.2358
 2292TIP3   OH228434   4.345   5.087   7.779 -0.4430  0.0669 -0.6128
 2292TIP3    H128435   4.336   5.161   7.840  1.6258 -0.3980  0.2881
 2292TIP3    H228436   4.275   5.027   7.804  0.2442 -0.0219  1.1887
 2293TIP3   OH228437   4.108   4.898   7.244  0.3509  1.0486  1.1926
 2293TIP3    H128438   4.200   4.911   7.270  0.5572  2.2784 -0.1357
 2293TIP3    H228439   4.066   4.864   7.323  2.2394 -0.8420  1.4250
 2294TIP3   OH228440   2.840   3.301   7.991  0.1603  0.5193  0.5436
 2294TIP3    H128441   2.869   3.389   8.013  1.2523 -0.1201  1.7092
 2294TIP3    H228442   2.912   3.244   8.017 -0.1664 -0.6564 -0.9887
 2295TIP3   OH228443   7.301   4.792   7.701  0.7980  0.2648 -0.2869
 2295TIP3    H128444   7.243   4.729   7.658  2.3540 -0.5186 -1.3038
 2295TIP3    H228445   7.271   4.877   7.669  0.3936 -0.1517 -1.0349
 2296TIP3   OH228446   3.769   5.711   7.909 -0.2020  0.7530  0.3066
 2296TIP3    H128447   3.716   5.791   7.920 -0.3171  0.5948  0.8962
 2296TIP3    H228448   3.853   5.743   7.877  0.3102  1.2775  2.0974
 2297TIP3   OH228449   2.550   5.093   7.014  0.1046 -0.4583 -0.1413
 2297TIP3    H128450   2.604   5.157   6.968  0.2357  0.5242  1.3647
 2297TIP3    H228451   2.461   5.128   7.010  0.0430 -0.6021 -0.0297
 2298TIP3   OH228452   2.026   3.622   6.925  0.0500  0.1925 -0.3500
 2298TIP3    H128453   1.983   3.596   6.844  2.4535 -1.1768 -1.2261
 2298TIP3    H228454   1.964   3.597   6.994 -0.0515 -2.9379 -1.5069
 2299TIP3   OH228455   1.458   4.700   7.380  0.1896  0.0024 -0.3572
 2299TIP3    H128456   1.451   4.787   7.340 -1.0721 -0.1163 -0.4102
 2299TIP3    H228457   1.406   4.643   7.324  0.4868 -0.6669  0.0377
 2300TIP3   OH228458   7.252   5.648   6.263 -1.1280 -0.4862  0.2279
 2300TIP3    H128459   7.256   5.559   6.228  0.0764 -1.1116  1.8896
 2300TIP3    H228460   7.164   5.678   6.241 -1.4091 -1.9132 -0.7273
 2301TIP3   OH228461   5.706   5.054   7.657  0.3192 -0.4233 -0.6820
 2301TIP3    H128462   5.646   5.110   7.608  0.9384  0.6175 -0.2670
 2301TIP3    H228463   5.691   5.077   7.749  0.2539 -1.2671 -0.4785
 2302TIP3   OH228464   4.346   5.710   6.351 -0.8855  0.1601 -0.3868
 2302TIP3    H128465   4.304   5.647   6.294 -2.1440  0.9281 -0.3230
 2302TIP3    H228466   4.311   5.691   6.438  2.2005 -2.0436  0.4733
 2303TIP3   OH228467   4.664   7.067   7.083  0.5302 -0.2882 -0.0481
 2303TIP3    H128468   4.709   7.030   7.159  0.0436 -2.7170 -0.8679
 2303TIP3    H228469   4.645   6.990   7.028 -0.5027  1.2388 -1.8693
 2304TIP3   OH228470   5.756   1.900   6.889  0.0236  0.2177  0.2741
 2304TIP3    H128471   5.844   1.921   6.920  0.4451 -0.0179 -0.7452
 2304TIP3    H228472   5.715   1.985   6.873  0.8705  0.3067 -1.4653
 2305TIP3   OH228473   4.174   1.675   7.708  0.0881  0.1410  0.1293
 2305TIP3    H128474   4.164   1.765   7.677  0.6769 -0.3508 -1.5331
 2305TIP3    H228475   4.090   1.633   7.691  0.2924 -0.0265 -0.4817
 2306TIP3   OH228476   2.055   6.173   1.346 -0.8544  0.1606  0.2966
 2306TIP3    H128477   2.055   6.227   1.267 -2.6331 -0.5545 -0.2117
 2306TIP3    H228478   2.070   6.235   1.418  0.0643  0.9092 -0.5336
 2307TIP3   OH228479   7.134   1.574   0.093  0.1496 -0.0798  0.0933
 2307TIP3    H128480   7.131   1.563  -0.002 -0.5378  0.3285  0.0632
 2307TIP3    H228481   7.192   1.648   0.107 -0.6171  0.5582 -0.0716
 2308TIP3   OH228482   0.139   6.322   8.210  0.5817 -0.2135  1.0595
 2308TIP3    H128483   0.194   6.265   8.157 -0.7244  1.1126 -1.8467
 2308TIP3    H228484   0.189   6.403   8.219 -0.6991  0.9298 -1.4386
 2309TIP3   OH228485   0.983   4.266   1.499  0.1052 -0.4328 -0.0421
 2309TIP3    H128486   1.060   4.219   1.531 -0.7886 -1.1055  1.1497
 2309TIP3    H228487   0.955   4.319   1.574 -1.4618 -1.3150  0.0168
 2310TIP3   OH228488   0.145   3.228   7.012 -0.0056 -0.0469  0.1736
 2310TIP3    H128489   0.091   3.260   7.084 -0.9389 -0.0309 -0.5261
 2310TIP3    H228490   0.143   3.298   6.947  0.2217 -0.3692 -0.1834
 2311TIP3   OH228491   4.321   4.904   6.694  0.5500 -0.5683 -0.2006
 2311TIP3    H128492   4.243   4.898   6.639 -0.0574  1.9656  0.3492
 2311TIP3    H228493   4.314   4.829   6.753 -2.2654  0.4561  0.8410
 2312TIP3   OH228494   0.340   3.154   0.460 -0.5363  0.4351  0.3190
 2312TIP3    H128495   0.333   3.191   0.372  0.0018  0.7718  0.4166
 2312TIP3    H228496   0.257   3.109   0.474 -0.8529  0.8725 -0.1386
 2313TIP3   OH228497   3.225   3.422   7.077  0.4460  0.0534  0.3499
 2313TIP3    H128498   3.182   3.450   6.997 -0.5320 -1.4821  0.3230
 2313TIP3    H228499   3.272   3.343   7.053 -0.4772 -0.8479  1.4622
 2314TIP3   OH228500   2.239   5.853   8.297  0.0408 -0.1408 -0.5269
 2314TIP3    H128501   2.312   5.881   8.242  1.5611  1.6532  2.3087
 2314TIP3    H228502   2.180   5.928   8.300 -0.1631 -0.3160  0.0390
 2315TIP3   OH228503   5.165   4.149   5.970 -0.3134 -0.0858  0.2322
 2315TIP3    H128504   5.229   4.217   5.950  0.5284 -0.1509  2.4734
 2315TIP3    H228505   5.083   4.181   5.935  0.4801  1.1494 -0.5334
 2316TIP3   OH228506   6.337   6.045   6.921 -0.1440  0.4793 -0.2015
 2316TIP3    H128507   6.295   6.117   6.875 -0.3209  1.8392  2.0176
 2316TIP3    H228508   6.399   6.087   6.981  0.7917 -1.2825  0.1140
 2317TIP3   OH228509   0.968   5.240   2.230 -0.0634  0.1011 -0.6751
 2317TIP3    H128510   1.007   5.306   2.172  0.0932  0.0165 -0.6662
 2317TIP3    H228511   1.023   5.163   2.219 -1.7398 -0.8521 -2.6011
 2318TIP3   OH228512   0.734   4.897   6.966 -0.3810  0.6031  0.1197
 2318TIP3    H128513   0.750   4.991   6.967 -1.3516  0.7861 -0.6231
 2318TIP3    H228514   0.652   4.887   7.016 -0.5042  0.2047 -0.1591
 2319TIP3   OH228515   5.324   5.807   7.552  0.0207 -1.0208  0.5682
 2319TIP3    H128516   5.269   5.771   7.483 -0.5347 -1.5959  1.2987
 2319TIP3    H228517   5.309   5.749   7.627 -0.5583  0.4835  1.6415
 2320TIP3   OH228518   5.386   5.459   7.644  0.6598  0.7153  0.4817
 2320TIP3    H128519   5.351   5.434   7.559 -1.0818  0.1326  1.3463
 2320TIP3    H228520   5.463   5.512   7.624 -0.2647  1.3657 -1.4493
 2321TIP3   OH228521   2.927   6.229   7.704 -0.3194  0.3835  0.0718
 2321TIP3    H128522   2.891   6.183   7.629 -1.1148  1.5244 -0.2524
 2321TIP3    H228523   2.980   6.164   7.749 -1.6250 -0.9068 -0.2443
 2322TIP3   OH228524   5.968   6.380   6.998 -0.0790  0.5757  0.7781
 2322TIP3    H128525   6.015   6.365   7.080  2.0776 -0.3608 -0.5814
 2322TIP3    H228526   6.037   6.384   6.931 -1.9311 -1.1419 -1.3186
 2323TIP3   OH228527   4.105   0.543   7.829  0.0106  0.2647  0.3209
 2323TIP3    H128528   4.161   0.563   7.904 -0.7738  1.3465  0.6186
 2323TIP3    H228529   4.143   0.592   7.756  1.8157 -2.1345 -0.4501
 2324TIP3   OH228530   0.325   4.924   6.289  0.0132 -0.7798  0.0175
 2324TIP3    H128531   0.270   4.852   6.258  0.9624 -0.6855 -2.0119
 2324TIP3    H228532   0.329   4.984   6.214  1.3898  0.0753  0.7572
 2325TIP3   OH228533   5.440   4.551   6.512 -0.1694 -0.8996 -0.3511
 2325TIP3    H128534   5.486   4.635   6.515 -1.4112 -0.2575  1.7961
 2325TIP3    H228535   5.445   4.525   6.420  1.9236  0.5644 -0.6964
 2326TIP3   OH228536   6.973   4.670   6.943 -0.0877 -0.1571  0.4536
 2326TIP3    H128537   6.983   4.575   6.947 -0.8030 -0.2176  0.8505
 2326TIP3    H228538   6.952   4.688   6.851  1.0504 -0.2744  0.1596
 2327TIP3   OH228539   5.651   5.494   0.526  0.3573  0.3950  0.2400
 2327TIP3    H128540   5.722   5.498   0.590  0.6002  0.3239 -0.0202
 2327TIP3    H228541   5.580   5.448   0.570  0.6782 -0.0276  0.3062
 2328TIP3   OH228542   1.492   6.499   0.227  0.1494 -0.1782 -0.4577
 2328TIP3    H128543   1.420   6.440   0.205  0.4808 -0.3603 -1.0522
 2328TIP3    H228544   1.524   6.532   0.143  0.2872  0.4730 -0.1607
 2329TIP3   OH228545   6.410   0.425   0.749 -0.2092  0.1003 -0.1186
 2329TIP3    H128546   6.458   0.439   0.831 -0.5259 -3.0242  0.6889
 2329TIP3    H228547   6.331   0.478   0.758  0.1580  0.4443  1.2583
 2330TIP3   OH228548   0.399   4.793   8.440  0.2729 -0.3156  0.0135
 2330TIP3    H128549   0.332   4.857   8.464  1.0291  0.2447  0.6259
 2330TIP3    H228550   0.350   4.714   8.420 -0.6034  0.1992  0.1029
 2331TIP3   OH228551   6.279   0.866   8.157  0.2991  0.1150 -0.5135
 2331TIP3    H128552   6.364   0.860   8.200  0.6223 -0.6037 -1.2448
 2331TIP3    H228553   6.298   0.897   8.069 -0.1758 -0.2059 -0.7303
 2332TIP3   OH228554   6.576   3.033   6.153 -0.8128 -0.5596 -0.4195
 2332TIP3    H128555   6.610   2.978   6.083 -0.4338 -1.6311  0.5890
 2332TIP3    H228556   6.492   3.065   6.119  1.1202  2.1666 -2.9367
 2333TIP3   OH228557   6.340   4.496   0.895  0.3174  0.1482 -0.4320
 2333TIP3    H128558   6.327   4.559   0.825  0.1664 -0.9005 -1.3542
 2333TIP3    H228559   6.260   4.445   0.897  0.2028  0.3501  0.7001
 2334TIP3   OH228560   6.046   6.753   6.310 -0.0279 -0.1055  0.2025
 2334TIP3    H128561   6.019   6.738   6.401 -0.7698 -0.7224 -0.1103
 2334TIP3    H228562   6.044   6.665   6.271 -2.8116  0.5539 -1.2480
 2335TIP3   OH228563   1.274   6.458   8.031 -0.1334 -0.2384  0.0570
 2335TIP3    H128564   1.311   6.405   8.102  0.8469  1.8449  1.1260
 2335TIP3    H228565   1.329   6.536   8.027 -1.1171  0.3997 -1.9836
 2336TIP3   OH228566   5.921   4.559   7.414  0.6991 -0.0374 -0.6789
 2336TIP3    H128567   5.918   4.646   7.455  0.7458 -1.1339  1.7362
 2336TIP3    H228568   5.841   4.555   7.362  0.1430  1.0399  0.0571
 2337TIP3   OH228569   0.449   4.264   7.933  0.0988 -0.1294  0.2156
 2337TIP3    H128570   0.455   4.190   7.993  1.0120 -1.7274 -1.7693
 2337TIP3    H228571   0.377   4.317   7.967 -0.7057 -2.0242  1.5570
 2338TIP3   OH228572   0.320   3.693   6.438  0.0285 -0.0034 -0.5597
 2338TIP3    H128573   0.245   3.672   6.493 -0.2156  0.1615 -0.8233
 2338TIP3    H228574   0.307   3.785   6.415  1.5624  0.7088  1.3286
 2339TIP3   OH228575   0.983   6.328   8.465 -0.0224 -0.1852  0.2274
 2339TIP3    H128576   1.057   6.288   8.512  1.0854  0.0781 -1.2652
 2339TIP3    H228577   0.918   6.258   8.460  0.8309 -0.9804  0.0018
 2340TIP3   OH228578   4.211   5.992   8.250  0.1778  0.0061  0.1368
 2340TIP3    H128579   4.118   5.972   8.237 -0.2009  0.4769  1.9483
 2340TIP3    H228580   4.256   5.909   8.231 -0.6059 -0.2314 -0.7240
 2341TIP3   OH228581   1.062   0.251   7.887 -0.3661 -0.4852  0.0292
 2341TIP3    H128582   0.975   0.292   7.887 -0.4654 -0.6781  0.6931
 2341TIP3    H228583   1.073   0.220   7.977  0.0108 -1.2764 -0.2858
 2342TIP3   OH228584   0.305   4.265   0.245 -1.0332 -0.1935  0.5702
 2342TIP3    H128585   0.247   4.238   0.173 -0.4124  1.3854 -0.5498
 2342TIP3    H228586   0.313   4.187   0.299 -1.9088 -1.2806 -0.8177
 2343TIP3   OH228587   0.438   0.825   0.328  0.2637  0.6046  0.4090
 2343TIP3    H128588   0.492   0.772   0.269  0.2527  1.4574 -0.3788
 2343TIP3    H228589   0.488   0.827   0.410  1.3337  1.1790 -0.2388
 2344TIP3   OH228590   6.188   4.881   6.502  0.1463  0.2233  0.6876
 2344TIP3    H128591   6.163   4.910   6.415  0.5515  2.2654  1.2395
 2344TIP3    H228592   6.126   4.811   6.523 -0.3540  0.1572 -0.9642
 2345TIP3   OH228593   6.567   5.368   7.808  0.0245 -0.3115 -0.6026
 2345TIP3    H128594   6.529   5.286   7.777 -2.1038  0.4505 -0.0600
 2345TIP3    H228595   6.578   5.421   7.729 -0.8120 -0.2284 -0.6672
 2346TIP3   OH228596   6.613   3.369   6.730  0.0304 -0.3115 -0.0180
 2346TIP3    H128597   6.668   3.447   6.727 -2.3682  1.5434  2.0803
 2346TIP3    H228598   6.584   3.357   6.639  1.2090  0.6254 -0.5336
 2347TIP3   OH228599   4.062   3.325   1.067  0.5456  0.1023 -0.0316
 2347TIP3    H128600   4.008   3.329   0.988  0.4301 -1.6614 -0.0589
 2347TIP3    H228601   4.002   3.352   1.137  0.0880 -0.2367 -0.2859
 2348TIP3   OH228602   3.914   5.613   8.139 -0.4345 -0.8730 -0.4861
 2348TIP3    H128603   3.862   5.576   8.068 -0.0382  0.4952 -1.5032
 2348TIP3    H228604   4.004   5.609   8.108 -0.1016 -1.6088  0.5435
 2349TIP3   OH228605   5.748   4.537   7.175  0.1996 -0.3447 -0.0410
 2349TIP3    H128606   5.769   4.450   7.140  0.6086 -0.0317 -0.5848
 2349TIP3    H228607   5.672   4.566   7.125  1.7153  0.7577 -1.8066
 2350TIP3   OH228608   6.163   0.432   1.502 -0.6420 -0.2969 -0.1864
 2350TIP3    H128609   6.111   0.440   1.423  0.7550 -0.7893 -1.1719
 2350TIP3    H228610   6.105   0.388   1.564 -0.7733 -2.5721 -1.8697
 2351TIP3   OH228611   6.997   6.927   0.376 -0.1890  0.4437 -0.1516
 2351TIP3    H128612   7.087   6.918   0.347 -0.6694  2.7550 -2.4966
 2351TIP3    H228613   7.003   6.971   0.461  0.9200 -0.5710  0.3065
 2352TIP3   OH228614   6.495   5.283   8.476 -0.5744  0.2630 -0.2871
 2352TIP3    H128615   6.419   5.240   8.438 -1.2724  0.0923  1.2782
 2352TIP3    H228616   6.530   5.219   8.538  0.7652  0.4047 -0.8616
 2353TIP3   OH228617   0.572   6.803   1.232  0.2431 -0.2698  0.4200
 2353TIP3    H128618   0.621   6.775   1.154  0.0057  0.8759 -0.1479
 2353TIP3    H228619   0.572   6.899   1.227 -3.5264 -0.2519 -0.4942
 2354TIP3   OH228620   6.819   5.106   6.079 -0.4434  0.6719  0.4137
 2354TIP3    H128621   6.877   5.176   6.046  0.7690 -1.1335 -1.4219
 2354TIP3    H228622   6.732   5.130   6.047  0.1155  0.9204 -0.9771
 2355TIP3   OH228623   6.118   5.389   8.296  0.1413 -0.1874 -0.2939
 2355TIP3    H128624   6.109   5.374   8.202  0.6130  0.3358 -0.4260
 2355TIP3    H228625   6.039   5.437   8.320 -0.9401 -2.0636 -0.0368
 2356TIP3   OH228626   7.195   2.498   6.719  0.5258  0.0412 -0.3283
 2356TIP3    H128627   7.272   2.544   6.752 -0.4817  0.6112  1.2365
 2356TIP3    H228628   7.140   2.567   6.682 -0.9710  0.1370  1.9950
 2357TIP3   OH228629   5.702   4.172   6.311 -0.1303  0.0281  0.4557
 2357TIP3    H128630   5.650   4.165   6.230  1.4381  0.7544 -0.6349
 2357TIP3    H228631   5.705   4.266   6.328  0.2886 -0.0654  0.8806
 2358TIP3   OH228632   5.730   2.554   7.024  0.1684 -0.2763 -0.1162
 2358TIP3    H128633   5.797   2.509   6.973  0.1312 -0.5165  0.0468
 2358TIP3    H228634   5.723   2.504   7.105  1.1195  0.8331  0.6627
 2359TIP3   OH228635   1.646   2.176   7.136 -0.0769 -0.5242 -0.0478
 2359TIP3    H128636   1.719   2.236   7.128  0.8836 -1.5170  0.9853
 2359TIP3    H228637   1.687   2.092   7.157 -1.5618 -0.8564  1.6076
 2360TIP3   OH228638   5.126   6.826   8.117 -0.5030  0.6429  0.3840
 2360TIP3    H128639   5.080   6.808   8.034 -0.6220  0.4790  0.4853
 2360TIP3    H228640   5.077   6.777   8.182  0.2707 -0.1463  0.3785
 2361TIP3   OH228641   6.112   5.947   0.724 -0.4711  0.5373 -0.0799
 2361TIP3    H128642   6.087   5.918   0.636  1.3327  0.2160 -0.5006
 2361TIP3    H228643   6.090   5.873   0.781  1.2147 -0.4603 -0.7087
 2362TIP3   OH228644   0.673   3.034   7.554  0.2219 -0.6690 -0.1435
 2362TIP3    H128645   0.732   3.028   7.479 -0.6432 -0.6324 -0.8334
 2362TIP3    H228646   0.703   3.110   7.603 -1.1117  1.1840 -2.1198
 2363TIP3   OH228647   0.500   3.634   8.107 -0.8662  0.2976 -0.4377
 2363TIP3    H128648   0.477   3.698   8.040 -2.9791 -0.2721 -0.3170
 2363TIP3    H228649   0.534   3.686   8.180 -1.2790  1.1754 -0.8618
 2364TIP3   OH228650   5.456   4.113   1.567  0.3077 -0.1337  0.0511
 2364TIP3    H128651   5.380   4.068   1.530  1.0487 -0.7744 -0.6961
 2364TIP3    H228652   5.435   4.207   1.558  0.0334 -0.2905 -1.0522
 2365TIP3   OH228653   1.958   1.581   2.115  0.1844  0.4365  0.2391
 2365TIP3    H128654   2.017   1.639   2.164  1.7743 -1.2970  0.4535
 2365TIP3    H228655   1.967   1.610   2.024  0.8553  0.6272  0.3576
 2366TIP3   OH228656   6.878   4.748   6.627  0.3693  0.3239  0.0036
 2366TIP3    H128657   6.864   4.843   6.624 -0.5725  0.1867 -0.0435
 2366TIP3    H228658   6.933   4.730   6.551 -0.5742  0.6437 -0.7617
 2367TIP3   OH228659   0.045   4.278   8.280 -0.2504  0.3617 -0.0956
 2367TIP3    H128660   0.128   4.301   8.238 -0.2310 -0.1863 -0.3642
 2367TIP3    H228661   0.035   4.184   8.264  1.0810 -0.4670  3.4393
 2368TIP3   OH228662   4.665   5.303   7.629 -0.0243 -0.9469 -0.2759
 2368TIP3    H128663   4.624   5.264   7.552  0.3519 -1.6224 -0.1397
 2368TIP3    H228664   4.666   5.232   7.694 -0.4740 -0.3439  0.3990
 2369TIP3   OH228665   5.105   2.648   6.788  0.2416  0.2375  0.7967
 2369TIP3    H128666   5.097   2.721   6.726  0.8167 -0.4588 -0.1100
 2369TIP3    H228667   5.038   2.666   6.854 -0.5047  0.9063 -0.1185
 2370TIP3   OH228668   3.632   5.940   7.880 -0.3675  0.1164 -0.2757
 2370TIP3    H128669   3.597   5.959   7.967  0.6894  0.7070  0.0313
 2370TIP3    H228670   3.557   5.908   7.831 -0.8491 -0.8292  1.0372
 2371TIP3   OH228671   6.362   3.675   6.587 -0.9108  0.2001  0.3044
 2371TIP3    H128672   6.329   3.604   6.641  2.2948 -0.6102  1.2777
 2371TIP3    H228673   6.368   3.637   6.499  1.1432 -0.9310  0.8873
 2372TIP3   OH228674   5.452   4.562   7.005 -0.1127 -0.2102 -0.0551
 2372TIP3    H128675   5.417   4.484   6.962 -0.9488 -0.7789  1.5942
 2372TIP3    H228676   5.426   4.634   6.949 -0.6390 -0.9958 -0.8330
 2373TIP3   OH228677   1.884   5.026   1.342 -0.6580 -0.4467 -0.0421
 2373TIP3    H128678   1.897   4.948   1.396 -1.7657  1.1883  2.6925
 2373TIP3    H228679   1.805   5.008   1.291  0.2200 -1.8769 -0.9165
 2374TIP3   OH228680   6.467   4.582   6.011  0.1284  0.4315 -0.6938
 2374TIP3    H128681   6.480   4.647   6.081 -0.8028  0.7069 -0.7725
 2374TIP3    H228682   6.555   4.547   5.995  0.5468  1.2366 -0.2275
 2375TIP3   OH228683   3.805   7.137   7.515 -0.1340 -0.7011 -0.5804
 2375TIP3    H128684   3.847   7.053   7.536 -0.3634 -1.0563 -1.5248
 2375TIP3    H228685   3.856   7.202   7.563  0.2858 -1.3417 -0.1535
 2376TIP3   OH228686   0.195   6.651   6.355 -0.0243  0.0441  0.9708
 2376TIP3    H128687   0.232   6.569   6.323 -1.1308 -1.0301  2.3979
 2376TIP3    H228688   0.260   6.717   6.333  0.2833 -1.0123 -1.3847
 2377TIP3   OH228689   3.148   1.608   1.309  0.1752 -0.5066 -0.0531
 2377TIP3    H128690   3.216   1.639   1.369 -0.8006  2.4571 -0.4073
 2377TIP3    H228691   3.069   1.652   1.339 -0.8617 -1.1058 -1.8874
 2378TIP3   OH228692   5.295   2.099   6.856  0.0384 -0.1245 -0.0445
 2378TIP3    H128693   5.257   2.126   6.939  0.3278  1.1746 -0.3179
 2378TIP3    H228694   5.388   2.084   6.876 -0.3487 -2.1083  0.3601
 2379TIP3   OH228695   3.335   3.632   7.228 -0.1823  0.3746  0.2987
 2379TIP3    H128696   3.292   3.584   7.158 -0.0139 -1.3716  1.3683
 2379TIP3    H228697   3.407   3.679   7.185  0.3537 -1.2414 -0.5842
 2380TIP3   OH228698   0.212   4.473   7.332 -0.1987 -0.0330  0.1373
 2380TIP3    H128699   0.165   4.554   7.315 -0.0334 -0.2919 -1.6448
 2380TIP3    H228700   0.220   4.469   7.427 -1.4044  1.3504  0.3040
 2381TIP3   OH228701   5.937   4.732   5.959  0.5582  0.3539 -0.0738
 2381TIP3    H128702   5.918   4.686   5.877 -1.5504 -0.2516  0.7205
 2381TIP3    H228703   5.913   4.823   5.943 -2.2435 -0.2209  0.6045
 2382TIP3   OH228704   6.197   4.418   7.138  0.1789  0.1940 -0.4676
 2382TIP3    H128705   6.171   4.495   7.189 -1.0831 -1.4418  1.4680
 2382TIP3    H228706   6.293   4.421   7.137  0.1815  0.9345  0.9302
 2383TIP3   OH228707   6.278   4.090   6.049  0.2861  0.6313 -0.0443
 2383TIP3    H128708   6.235   4.159   5.998 -0.5393  0.0808 -0.0982
 2383TIP3    H228709   6.265   4.011   5.997  1.6573  0.5111 -0.2258
 2384TIP3   OH228710   0.432   4.026   7.317  0.1520  0.1306  0.4581
 2384TIP3    H128711   0.450   4.105   7.267 -2.6292  0.1631 -0.5828
 2384TIP3    H228712   0.436   3.955   7.253  0.5864 -0.3365  0.9932
 2385TIP3   OH228713   4.872   2.847   6.892  0.4791  0.0033  0.0077
 2385TIP3    H128714   4.803   2.838   6.958  1.2180 -1.1837  0.6334
 2385TIP3    H228715   4.895   2.940   6.894 -0.1751  0.1543  0.7341
 2386TIP3   OH228716   6.825   5.687   8.323  0.7850 -0.5144  0.0200
 2386TIP3    H128717   6.892   5.621   8.340  0.6839 -1.1784 -2.0046
 2386TIP3    H228718   6.773   5.651   8.252  0.2550  1.4111 -0.6186
 2387TIP3   OH228719   3.621   5.398   8.376  0.3939  0.4131  0.2362
 2387TIP3    H128720   3.603   5.383   8.283  2.3068 -0.2802 -0.0683
 2387TIP3    H228721   3.662   5.484   8.379  2.8173 -0.6728  0.0323
 2388TIP3   OH228722   6.602   7.129   8.338 -0.1197  0.2121 -0.0102
 2388TIP3    H128723   6.525   7.142   8.392 -0.3496  0.0801 -0.2997
 2388TIP3    H228724   6.598   7.198   8.272 -0.7373 -0.6298 -0.8645
 2389TIP3   OH228725   0.809   3.321   0.982 -0.3226 -0.6164 -0.1373
 2389TIP3    H128726   0.902   3.329   1.003 -0.9200  0.6902  2.1210
 2389TIP3    H228727   0.787   3.404   0.939 -0.6664 -0.5269  0.2101
 2390TIP3   OH228728   0.952   6.019   6.819 -0.4567 -0.6488  0.1044
 2390TIP3    H128729   1.016   5.948   6.820  0.7534  0.4373 -0.0124
 2390TIP3    H228730   0.953   6.050   6.728  0.5029  0.8467  0.6152
 2391TIP3   OH228731   0.338   6.639   7.220  0.2277 -0.3983  0.2640
 2391TIP3    H128732   0.282   6.717   7.212  1.5888  0.5261 -0.4697
 2391TIP3    H228733   0.277   6.566   7.222 -1.0585  0.6609  0.5049
 2392TIP3   OH228734   5.981   5.327   7.397  0.1812  0.3810  0.2663
 2392TIP3    H128735   6.005   5.370   7.315 -0.6865  1.0308  0.3423
 2392TIP3    H228736   6.026   5.243   7.395 -1.1950 -0.3495 -1.6673
 2393TIP3   OH228737   2.763   4.315   7.846 -0.1485  0.2239 -0.3015
 2393TIP3    H128738   2.823   4.382   7.880  0.0650 -0.2295  0.2314
 2393TIP3    H228739   2.692   4.364   7.805  1.6891  0.7956 -2.9471
 2394TIP3   OH228740   0.232   6.585   8.230  0.7722  0.0033 -0.2525
 2394TIP3    H128741   0.141   6.607   8.248  0.3063  0.2226 -2.6978
 2394TIP3    H228742   0.266   6.553   8.313 -0.7584  2.4863  1.4178
 2395TIP3   OH228743   6.395   5.115   8.102 -0.3326 -0.4393  0.2900
 2395TIP3    H128744   6.405   5.026   8.067  0.4473  0.4042 -1.7257
 2395TIP3    H228745   6.331   5.106   8.172 -0.1554 -2.6186  0.2161
 2396TIP3   OH228746   1.258   5.298   1.494 -0.3900  0.0890 -0.2594
 2396TIP3    H128747   1.297   5.268   1.576  0.5509  1.0315 -0.3603
 2396TIP3    H228748   1.166   5.311   1.514 -0.0789  0.7173  0.7527
 2397TIP3   OH228749   0.922   6.105   2.516 -0.1089  0.0865 -0.2141
 2397TIP3    H128750   0.867   6.170   2.559 -1.4893  0.0891 -1.9404
 2397TIP3    H228751   0.863   6.032   2.497  1.0755 -1.0247  0.2706
 2398TIP3   OH228752   0.875   3.705   0.735  0.4036 -0.2594 -0.1438
 2398TIP3    H128753   0.867   3.748   0.650 -1.2064 -0.5692 -0.1735
 2398TIP3    H228754   0.887   3.777   0.797 -0.0274  0.0796 -0.4495
 2399TIP3   OH228755   5.707   3.404   1.562  0.0225  0.4604  0.7070
 2399TIP3    H128756   5.799   3.385   1.579 -0.3202 -1.8209  0.1201
 2399TIP3    H228757   5.707   3.494   1.528  2.1378  0.1111 -0.2994
 2400TIP3   OH228758   0.078   2.480   7.455  0.7009 -0.0654  0.1332
 2400TIP3    H128759   0.140   2.464   7.383 -0.0856 -0.4909 -0.4628
 2400TIP3    H228760  -0.006   2.490   7.411  0.0727 -1.1672  1.0701
 2401TIP3   OH228761   2.248   3.025   0.368 -0.8213 -0.1587  0.4301
 2401TIP3    H128762   2.302   3.013   0.447  1.3290 -1.4133 -1.1794
 2401TIP3    H228763   2.164   3.057   0.401  0.6192  1.0091  3.0766
 2402TIP3   OH228764   5.755   5.543   5.925  0.4619  0.0348  0.4990
 2402TIP3    H128765   5.770   5.449   5.932  0.6775  0.0183 -0.1665
 2402TIP3    H228766   5.679   5.560   5.981 -0.2180 -0.6992 -0.1795
 2403TIP3   OH228767   2.552   5.143   1.877 -0.3281  0.3960 -0.0902
 2403TIP3    H128768   2.565   5.067   1.820 -0.4053  0.5381 -0.2994
 2403TIP3    H228769   2.618   5.132   1.946 -1.5743 -0.8370  0.9275
 2404TIP3   OH228770   2.927   5.694   8.171  0.3014  0.2591  0.7322
 2404TIP3    H128771   2.994   5.676   8.237 -0.3198 -1.4014  0.9468
 2404TIP3    H228772   2.908   5.608   8.132 -0.0252  1.0621 -0.9482
 2405TIP3   OH228773   1.074   3.881   6.526 -0.0106  0.1604  0.3771
 2405TIP3    H128774   1.060   3.904   6.434 -1.1300 -0.5364  0.3724
 2405TIP3    H228775   1.153   3.930   6.550 -0.4096  1.3320 -0.5950
 2406TIP3   OH228776   5.027   4.840   6.414  0.5515 -0.8242 -0.1597
 2406TIP3    H128777   5.074   4.868   6.335 -0.2434 -1.3456 -0.8253
 2406TIP3    H228778   4.955   4.903   6.422  0.8765 -0.5148  0.4033
 2407TIP3   OH228779   0.510   2.282   0.008 -0.4425  0.4937  0.6542
 2407TIP3    H128780   0.452   2.251  -0.063 -0.4164  1.5055  0.1821
 2407TIP3    H228781   0.548   2.202   0.044 -0.9563 -0.0827 -0.0532
 2408TIP3   OH228782   5.224   7.159   7.002  0.3036  0.6385  0.2631
 2408TIP3    H128783   5.207   7.066   7.016 -0.6240  0.8807  0.7935
 2408TIP3    H228784   5.193   7.175   6.913  0.3526  0.4631  0.2131
 2409TIP3   OH228785   6.623   6.083   6.768 -0.0998 -0.2848  0.5376
 2409TIP3    H128786   6.653   6.126   6.848 -0.1276  0.3664  0.1968
 2409TIP3    H228787   6.704   6.062   6.720 -0.1339  0.2415  0.2559
 2410TIP3   OH228788   5.380   5.371   6.270  0.0562  0.0276 -0.2627
 2410TIP3    H128789   5.411   5.284   6.245  0.9646  1.1750 -3.3185
 2410TIP3    H228790   5.290   5.375   6.238 -1.2550 -0.9842  3.0088
 2411TIP3   OH228791   5.688   5.396   6.234 -0.4369 -0.5173 -0.0560
 2411TIP3    H128792   5.621   5.328   6.221 -0.4640 -0.6604  0.8110
 2411TIP3    H228793   5.769   5.356   6.201 -0.6490 -0.5784 -0.5183
 2412TIP3   OH228794   6.027   5.776   8.350  0.2398  0.2588 -0.2189
 2412TIP3    H128795   6.074   5.858   8.366 -0.4115  0.1565  2.3328
 2412TIP3    H228796   5.944   5.802   8.310  1.3972  0.5848 -2.5341
 2413TIP3   OH228797   6.178   6.836   1.017  0.1324  0.1692  0.5099
 2413TIP3    H128798   6.085   6.821   1.002  0.3911 -1.5840  0.5788
 2413TIP3    H228799   6.191   6.929   0.995 -2.2175  1.2793  3.4711
 2414TIP3   OH228800   2.445   2.607   8.212 -0.0470  0.0791  0.1398
 2414TIP3    H128801   2.464   2.650   8.295  0.4423 -0.5355  0.3504
 2414TIP3    H228802   2.362   2.644   8.183  0.7666  1.7599 -0.0808
 2415TIP3   OH228803   6.915   4.506   7.400 -0.0141 -0.2056  0.1987
 2415TIP3    H128804   6.830   4.506   7.444 -0.7294 -0.2134 -1.1522
 2415TIP3    H228805   6.900   4.456   7.319  0.8445  1.1304 -0.8137
 2416TIP3   OH228806   4.830   5.017   6.818  0.2607  0.3537  0.4784
 2416TIP3    H128807   4.847   5.014   6.912 -0.7203  0.1152  0.6538
 2416TIP3    H228808   4.902   4.968   6.778  0.8081  0.6663  1.0836
 2417TIP3   OH228809   4.220   2.437   1.416  0.3884 -0.5012  1.0428
 2417TIP3    H128810   4.198   2.530   1.417  0.4387 -0.4880  0.9066
 2417TIP3    H228811   4.245   2.418   1.506  0.2443 -0.4147  1.1025
 2418TIP3   OH228812   6.623   5.417   0.981  0.3279 -0.0983  0.1255
 2418TIP3    H128813   6.616   5.406   0.886 -0.8869  0.0421  0.1856
 2418TIP3    H228814   6.640   5.328   1.014 -0.5879 -0.3761 -0.1246
 2419TIP3   OH228815   5.734   5.040   7.171  0.2671 -0.0836 -0.3257
 2419TIP3    H128816   5.702   4.952   7.192  0.9498 -0.2988 -0.1457
 2419TIP3    H228817   5.676   5.099   7.219  0.2226 -0.4711  0.1074
 2420TIP3   OH228818   5.648   4.733   6.821  0.3115 -0.4791 -0.0694
 2420TIP3    H128819   5.599   4.651   6.818  1.0677 -0.9556  0.4739
 2420TIP3    H228820   5.734   4.709   6.857 -0.7456  1.1417  3.8555
 2421TIP3   OH228821   7.146   1.322   0.890 -0.0833  0.2133  0.1151
 2421TIP3    H128822   7.089   1.395   0.871  1.0054  0.9149 -0.5056
 2421TIP3    H228823   7.235   1.357   0.881  0.4522 -1.0686  0.2092
 2422TIP3   OH228824   7.144   0.340   6.545 -0.1918  0.0517 -0.1261
 2422TIP3    H128825   7.134   0.376   6.457  0.1542 -0.7239 -0.4831
 2422TIP3    H228826   7.184   0.411   6.595  0.6726  0.1052 -0.8830
 2423TIP3   OH228827   6.814   5.244   1.547  0.1261 -0.4965  0.0860
 2423TIP3    H128828   6.814   5.151   1.569  0.1333 -0.1371  1.6909
 2423TIP3    H228829   6.875   5.283   1.610 -0.7546  0.7684  0.1678
 2424TIP3   OH228830   5.972   5.703   7.249  0.5890  0.6056  0.1391
 2424TIP3    H128831   5.923   5.784   7.233  0.7973  0.9436  1.1774
 2424TIP3    H228832   5.957   5.650   7.171 -0.7400  1.0520  0.0821
 2425TIP3   OH228833   1.101   5.541   7.367 -0.6106  0.3162  0.0460
 2425TIP3    H128834   1.156   5.593   7.309 -1.2316 -0.7605 -1.5145
 2425TIP3    H228835   1.118   5.578   7.454  1.9455  0.5402 -0.5058
 2426TIP3   OH228836   3.741   1.866   7.511 -0.4701  0.0230  0.0282
 2426TIP3    H128837   3.812   1.880   7.449 -0.2124 -0.5420  0.1940
 2426TIP3    H228838   3.784   1.843   7.593 -0.8558 -2.1634 -0.3323
 2427TIP3   OH228839   6.739   7.284   1.234 -0.7171 -0.1894  0.2280
 2427TIP3    H128840   6.750   7.189   1.240 -0.8783 -0.1933  0.4575
 2427TIP3    H228841   6.655   7.296   1.191 -1.9565 -0.1510  2.5888
 2428TIP3   OH228842   5.419   4.501   6.217  0.3212 -0.0123  0.4673
 2428TIP3    H128843   5.414   4.594   6.196  2.3788  1.0873  4.2823
 2428TIP3    H228844   5.506   4.473   6.188  0.7423 -0.0276  1.6830
 2429TIP3   OH228845   0.824   3.515   8.343 -0.3158  0.2213  0.2278
 2429TIP3    H128846   0.871   3.439   8.378  2.0356  0.9929 -1.0895
 2429TIP3    H228847   0.786   3.484   8.261  0.8528  0.4949 -0.4349
 2430TIP3   OH228848   1.094   6.240   1.344  0.0293  0.5666 -0.1866
 2430TIP3    H128849   1.093   6.146   1.363  1.2436  0.7623  0.9434
 2430TIP3    H228850   1.006   6.270   1.367 -0.5996 -0.4173 -1.2720
 2431TIP3   OH228851   1.435   2.768   7.894 -0.4352  0.0230  0.4278
 2431TIP3    H128852   1.404   2.853   7.925  1.1411  0.6144  0.4631
 2431TIP3    H228853   1.520   2.757   7.937  0.0366 -0.9009 -0.7195
 2432TIP3   OH228854   0.237   0.092   8.468 -0.0612 -0.0882  0.4630
 2432TIP3    H128855   0.304   0.027   8.489  0.9998  1.2885  1.5341
 2432TIP3    H228856   0.266   0.171   8.514 -2.1196  0.7122  0.4467
 2433TIP3   OH228857   7.190   7.036   0.920  0.4187 -0.6365  0.3309
 2433TIP3    H128858   7.237   7.096   0.977  0.7183 -0.0594 -0.5248
 2433TIP3    H228859   7.257   6.978   0.885  0.8269  1.4036 -2.4139
 2434TIP3   OH228860   1.273   2.871   7.680 -0.1957  0.1615 -0.5250
 2434TIP3    H128861   1.336   2.942   7.669  0.8245 -0.4863  0.9720
 2434TIP3    H228862   1.236   2.884   7.767 -0.1838 -1.0075 -0.3350
 2435TIP3   OH228863   7.100   6.107   7.387  0.0461  0.3398  0.4002
 2435TIP3    H128864   7.084   6.119   7.293  2.5824 -1.1059 -0.2567
 2435TIP3    H228865   7.124   6.194   7.418  0.0045  0.6650 -0.4541
 2436TIP3   OH228866   7.201   6.926   1.196  0.5165 -0.0257  0.5259
 2436TIP3    H128867   7.127   6.953   1.142  0.0138 -2.5429 -0.1370
 2436TIP3    H228868   7.161   6.889   1.274  1.0253 -1.7453  0.0016
 2437TIP3   OH228869   0.364   1.313   0.430 -0.3867  0.3239 -0.1994
 2437TIP3    H128870   0.328   1.243   0.376  0.5676 -0.0628 -0.3410
 2437TIP3    H228871   0.426   1.358   0.374 -0.8289  1.1477 -0.0359
 2438TIP3   OH228872   3.311   6.251   0.271  0.6829  0.3564 -0.2908
 2438TIP3    H128873   3.309   6.270   0.178  1.0836  0.6688 -0.2393
 2438TIP3    H228874   3.279   6.162   0.279  1.8884 -0.1323 -0.8556
 2439TIP3   OH228875   7.022   5.347   6.090  0.0459  0.4541 -0.7227
 2439TIP3    H128876   6.983   5.434   6.076  1.4751  1.0745 -0.9334
 2439TIP3    H228877   7.115   5.360   6.074  0.2106 -1.2305 -1.1709
 2440TIP3   OH228878   2.602   4.690   6.339  0.3410  0.0870 -0.5568
 2440TIP3    H128879   2.582   4.612   6.390  0.0715  1.4137  1.4154
 2440TIP3    H228880   2.523   4.744   6.346  1.2522  1.4071 -0.2123
 2441TIP3   OH228881   6.812   4.841   5.994  0.6497 -0.0565 -0.1480
 2441TIP3    H128882   6.806   4.934   6.017  0.9627 -0.6692  2.6687
 2441TIP3    H228883   6.788   4.795   6.075 -0.7747 -2.4427 -1.8412
 2442TIP3   OH228884   7.148   6.329   6.644  0.0073 -0.3070 -0.4858
 2442TIP3    H128885   7.175   6.299   6.557 -0.1038 -1.1126 -0.2430
 2442TIP3    H228886   7.076   6.271   6.668  0.6680 -0.7014  0.5520
 2443TIP3   OH228887   2.738   5.133   7.370 -0.4822 -0.3164 -0.2502
 2443TIP3    H128888   2.668   5.196   7.354  0.0519  0.5869  0.8741
 2443TIP3    H228889   2.693   5.050   7.385 -1.3398  0.3016  0.6922
 2444TIP3   OH228890   1.353   6.511   7.715  0.4243  0.3616  0.5043
 2444TIP3    H128891   1.448   6.507   7.703  0.5323  1.1693  0.9956
 2444TIP3    H228892   1.335   6.446   7.783  0.5442 -0.2172 -0.0142
 2445TIP3   OH228893   0.314   6.676   0.504  0.0653  0.2488  0.2805
 2445TIP3    H128894   0.396   6.662   0.457 -0.3252 -0.8948 -0.1002
 2445TIP3    H228895   0.338   6.727   0.581  1.1644 -0.2021  0.2492
 2446TIP3   OH228896   0.525   5.180   7.590  0.0180  0.2963 -0.5011
 2446TIP3    H128897   0.610   5.224   7.585  1.5843 -2.3414  1.6139
 2446TIP3    H228898   0.517   5.154   7.681 -2.5715 -0.5096 -0.9178
 2447TIP3   OH228899   4.651   5.131   1.999  0.0552 -0.5352  0.5783
 2447TIP3    H128900   4.700   5.133   2.082 -1.7778  0.4420  1.6643
 2447TIP3    H228901   4.564   5.099   2.023 -0.3979 -0.5545 -1.0268
 2448TIP3   OH228902   3.098   3.698   0.074 -0.0700  0.4289  0.2462
 2448TIP3    H128903   3.158   3.746   0.017  1.0122  0.7559  1.6353
 2448TIP3    H228904   3.049   3.766   0.120  0.9259  0.2371  1.6478
 2449TIP3   OH228905   3.809   5.271   6.657  0.3296 -0.2603  0.0894
 2449TIP3    H128906   3.881   5.245   6.600  0.3330 -0.3139  0.1172
 2449TIP3    H228907   3.735   5.216   6.629  1.1003 -2.3718  2.0248
 2450TIP3   OH228908   2.500   7.216   7.984 -0.1043  0.0090 -0.1207
 2450TIP3    H128909   2.448   7.226   7.904  0.5519 -0.9441 -0.6776
 2450TIP3    H228910   2.539   7.129   7.976  0.0992 -0.0263  1.1687
 2451TIP3   OH228911   4.923   3.894   6.258 -0.1060 -0.3815 -0.0583
 2451TIP3    H128912   4.870   3.830   6.210  1.7510 -1.2790 -0.9599
 2451TIP3    H228913   4.889   3.979   6.232 -0.9002 -0.9400 -0.8501
 2452TIP3   OH228914   4.913   5.335   7.088 -0.1489 -0.6641 -0.1654
 2452TIP3    H128915   4.901   5.319   6.994  0.1691 -0.7300 -0.1944
 2452TIP3    H228916   4.893   5.428   7.099 -0.6090 -0.7504 -0.2252
 2453TIP3   OH228917   5.268   0.100   6.570  0.0092 -0.1123  0.2966
 2453TIP3    H128918   5.243   0.071   6.482 -0.0262  0.6123  0.0654
 2453TIP3    H228919   5.286   0.193   6.561 -0.5207  0.0876  1.1670
 2454TIP3   OH228920   6.008   5.037   7.729  0.4037  0.7405  0.1403
 2454TIP3    H128921   5.934   4.979   7.713  0.7999  0.3114 -0.1617
 2454TIP3    H228922   5.975   5.125   7.710 -0.5601  0.7565  1.8041
 2455TIP3   OH228923   7.096   4.191   6.472  0.4646  0.0497 -0.1150
 2455TIP3    H128924   7.087   4.137   6.394 -0.9492  0.2104 -0.0760
 2455TIP3    H228925   7.126   4.276   6.440  1.4855 -0.3670 -0.3012
 2456TIP3   OH228926   0.083   5.972   6.126 -0.0435 -0.0361  0.0504
 2456TIP3    H128927   0.129   5.914   6.066 -0.2852  1.6889 -1.8470
 2456TIP3    H228928   0.141   6.046   6.138 -0.8333  0.5294  0.4401
 2457TIP3   OH228929   6.353   6.037   1.616  0.8898 -0.1013  0.3069
 2457TIP3    H128930   6.306   6.011   1.695  2.3436  0.1958  1.2760
 2457TIP3    H228931   6.320   6.125   1.596  1.2348  0.2074  1.1197
 2458TIP3   OH228932   7.040   4.414   6.973  0.2686 -0.2942 -0.1696
 2458TIP3    H128933   7.078   4.370   6.897  1.1131  0.3564 -0.1306
 2458TIP3    H228934   7.115   4.443   7.024 -0.2692  1.2574 -0.2281
 2459TIP3   OH228935   0.320   5.046   0.286 -0.4950  0.0449  0.7726
 2459TIP3    H128936   0.346   5.138   0.279 -0.8722  0.1329  0.4915
 2459TIP3    H228937   0.381   5.008   0.349  2.1704 -0.4311 -1.9443
 2460TIP3   OH228938   6.023   0.703   7.854  0.3571  0.3145 -0.6600
 2460TIP3    H128939   6.072   0.621   7.843  1.8725  0.9617  1.0192
 2460TIP3    H228940   6.019   0.716   7.949 -3.5108  0.0660 -0.7322
 2461TIP3   OH228941   6.192   6.216   8.266  0.3370  0.3626 -0.0345
 2461TIP3    H128942   6.195   6.240   8.173  0.4328 -0.8946 -0.3694
 2461TIP3    H228943   6.259   6.271   8.307  0.5354  0.6742 -0.7707
 2462TIP3   OH228944   0.318   1.961   7.228 -0.2966  0.1765  0.2093
 2462TIP3    H128945   0.252   1.954   7.160  0.9422 -0.6253 -0.9354
 2462TIP3    H228946   0.279   1.920   7.305 -0.5500 -1.6859 -0.8982
 2463TIP3   OH228947   0.176   4.543   1.026  0.0583  0.6649 -0.2237
 2463TIP3    H128948   0.224   4.485   1.085 -1.0503  0.0900  0.1216
 2463TIP3    H228949   0.220   4.532   0.941 -0.0028 -0.5211 -0.1135
 2464TIP3   OH228950   6.014   5.934   5.774  0.0983  0.0569  0.5488
 2464TIP3    H128951   6.100   5.914   5.739  0.5987  0.6722  1.4041
 2464TIP3    H228952   5.971   5.849   5.784  1.0543 -0.3450  1.2540
 2465TIP3   OH228953   0.105   4.214   7.175  0.2532 -0.0526 -0.1601
 2465TIP3    H128954   0.113   4.150   7.245 -0.1979 -1.7500 -1.6282
 2465TIP3    H228955   0.187   4.264   7.179  0.4572 -0.4937  1.2257
 2466TIP3   OH228956   6.623   4.162   6.632  0.3444 -0.0316  0.0631
 2466TIP3    H128957   6.676   4.089   6.663 -1.3165 -1.6490 -0.8251
 2466TIP3    H228958   6.686   4.234   6.619  2.3166 -1.9042 -1.0285
 2467TIP3   OH228959   5.519   2.855   6.839 -0.3434 -0.3008  0.0823
 2467TIP3    H128960   5.523   2.923   6.772 -0.5174 -1.2685 -0.9374
 2467TIP3    H228961   5.607   2.818   6.841 -0.3520 -0.3073  0.3564
 2468TIP3   OH228962   5.289   3.814   5.814 -0.2019  0.5930 -0.2298
 2468TIP3    H128963   5.287   3.909   5.818 -1.5753  0.5796 -0.3036
 2468TIP3    H228964   5.269   3.786   5.904 -2.8538  0.3901 -0.8311
 2469TIP3   OH228965   3.765   0.147   7.875  0.4217 -0.6143  0.0389
 2469TIP3    H128966   3.814   0.088   7.817 -1.0393 -1.2514 -0.5732
 2469TIP3    H228967   3.801   0.233   7.856  1.6743 -1.1374 -0.0230
 2470TIP3   OH228968   0.211   5.571   7.008  0.0918 -0.0105  0.3365
 2470TIP3    H128969   0.229   5.556   7.101  0.3915 -1.9319 -0.0093
 2470TIP3    H228970   0.115   5.563   7.001  0.3169 -3.1660 -0.0213
 2471TIP3   OH228971   2.591   3.540   7.656  0.0548  0.5697  0.2902
 2471TIP3    H128972   2.605   3.616   7.711  0.6485  0.7894 -0.1693
 2471TIP3    H228973   2.598   3.573   7.566  0.2798 -0.0145  0.0904
 2472TIP3   OH228974   5.677   6.673   6.489 -0.3253 -0.3987 -0.6282
 2472TIP3    H128975   5.710   6.584   6.494  2.1235  0.4543 -0.8713
 2472TIP3    H228976   5.632   6.678   6.405 -0.8203 -1.4995 -0.4304
 2473TIP3   OH228977   6.664   5.792   1.209 -0.8690  0.4169 -0.3175
 2473TIP3    H128978   6.663   5.821   1.118 -0.0195 -2.9584 -1.4999
 2473TIP3    H228979   6.616   5.710   1.209 -0.8099  0.3229  2.2869
 2474TIP3   OH228980   5.139   0.238   1.222 -0.0733 -0.6491 -0.0206
 2474TIP3    H128981   5.194   0.235   1.301  0.2907 -0.3253 -0.2551
 2474TIP3    H228982   5.177   0.172   1.164 -0.0240 -0.5334 -0.1214
 2475TIP3   OH228983   2.745   4.795   7.539 -0.0618 -0.0872  0.1703
 2475TIP3    H128984   2.805   4.797   7.464  0.4633 -0.3171  0.5808
 2475TIP3    H228985   2.754   4.706   7.573  0.8366  0.4754  1.4295
 2476TIP3   OH228986   7.257   6.317   6.915  0.4485  0.0644  0.6211
 2476TIP3    H128987   7.209   6.327   6.833 -2.8149 -1.3504  2.2600
 2476TIP3    H228988   7.268   6.407   6.947  0.9678  0.5563 -0.9245
 2477TIP3   OH228989   1.072   0.116   8.127 -0.1324  0.0178 -0.2705
 2477TIP3    H128990   0.990   0.117   8.177  0.8736 -1.2888  1.4758
 2477TIP3    H228991   1.062   0.042   8.067 -0.3664  0.0676 -0.2955
 2478TIP3   OH228992   0.753   1.098   7.622  0.3538 -0.1079 -0.4331
 2478TIP3    H128993   0.769   1.060   7.708  0.1400  1.6637  0.4056
 2478TIP3    H228994   0.838   1.098   7.579  0.7134  0.2006  0.2771
 2479TIP3   OH228995   0.199   0.938   0.053  0.1567 -0.3653  0.0864
 2479TIP3    H128996   0.133   0.979  -0.003  0.3414  0.7349  0.6515
 2479TIP3    H228997   0.257   0.892  -0.007  0.5162  1.0388 -0.6594
 2480TIP3   OH228998   0.224   1.712   8.041  0.0735 -0.7517 -0.4534
 2480TIP3    H128999   0.167   1.634   8.040  0.6406 -1.1610 -2.1249
 2480TIP3    H229000   0.184   1.772   7.978  1.4261 -1.0083 -1.5768
 2481TIP3   OH229001   1.301   5.461   8.163  0.6032  0.2809 -0.1435
 2481TIP3    H129002   1.365   5.523   8.200  1.0748  1.5045 -2.8926
 2481TIP3    H229003   1.221   5.478   8.212  0.5293  3.6083 -1.2698
 2482TIP3   OH229004   1.937   0.808   7.536  0.3639 -0.5124  0.2227
 2482TIP3    H129005   1.955   0.748   7.464  3.7623 -0.7831  1.2290
 2482TIP3    H229006   1.858   0.854   7.509  0.6648 -1.7256 -2.9459
 2483TIP3   OH229007   6.791   5.184   7.807 -0.2987 -0.2323 -0.3813
 2483TIP3    H129008   6.833   5.102   7.832  1.4595  0.6519 -0.3439
 2483TIP3    H229009   6.702   5.159   7.781 -0.5613 -1.8298  1.8760
 2484TIP3   OH229010   0.250   4.559   8.084  0.5783  0.6287  0.3474
 2484TIP3    H129011   0.211   4.495   8.025 -1.3975  0.4833  1.7575
 2484TIP3    H229012   0.202   4.640   8.066  1.1367  1.0115  0.5612
 2485TIP3   OH229013   0.215   6.106   6.494  0.2722 -0.6979 -0.5374
 2485TIP3    H129014   0.266   6.101   6.413  1.1943 -2.5664  0.1192
 2485TIP3    H229015   0.126   6.127   6.466  1.2572  2.1551 -1.7453
 2486TIP3   OH229016   1.354   6.097   8.175 -0.4087  0.0924  0.2488
 2486TIP3    H129017   1.262   6.107   8.155 -0.5928 -4.2569 -1.7183
 2486TIP3    H229018   1.400   6.137   8.102 -0.8532 -1.7612 -1.0711
 2487TIP3   OH229019   6.591   6.460   7.789  0.2486 -0.2922 -0.0247
 2487TIP3    H129020   6.611   6.479   7.881 -0.7854 -0.1817  0.1788
 2487TIP3    H229021   6.498   6.439   7.788 -0.1247  1.3139 -1.3035
 2488TIP3   OH229022   1.482   7.030   1.760  0.5058  0.4125 -0.4919
 2488TIP3    H129023   1.529   7.031   1.844 -0.7273 -1.0356  0.2505
 2488TIP3    H229024   1.394   7.060   1.781  1.1644  3.5029 -1.9573
 2489TIP3   OH229025   6.191   1.426   7.455  0.2865 -0.2473 -0.3543
 2489TIP3    H129026   6.277   1.394   7.428  0.2867 -1.0156  0.5191
 2489TIP3    H229027   6.134   1.350   7.449  0.3258 -0.4871  1.9021
 2490TIP3   OH229028   6.799   0.571   0.285  0.3946  0.0831  0.3260
 2490TIP3    H129029   6.706   0.592   0.275  0.6684  0.6781 -1.1967
 2490TIP3    H229030   6.803   0.510   0.359 -1.2062  0.0474  0.3905
 2491TIP3   OH229031   1.460   0.156   6.497  0.3756 -0.3063 -0.0942
 2491TIP3    H129032   1.373   0.158   6.455  0.8908 -2.1617 -1.3508
 2491TIP3    H229033   1.446   0.108   6.578  0.2916 -0.9955 -0.5082
 2492TIP3   OH229034   1.853   0.467   6.205  0.7414  0.1963 -0.4877
 2492TIP3    H129035   1.898   0.531   6.151  0.8705  1.4480  1.0531
 2492TIP3    H229036   1.760   0.481   6.187  0.7766  0.7224 -0.2530
 2493TIP3   OH229037   2.165   7.089   6.987 -0.4017  0.0504 -0.7769
 2493TIP3    H129038   2.161   7.039   6.906 -1.4008 -1.3243  0.0803
 2493TIP3    H229039   2.116   7.169   6.969 -2.4208 -1.1766 -0.9325
 2494TIP3   OH229040   0.273   5.597   6.293 -0.1868  0.8603  0.4359
 2494TIP3    H129041   0.219   5.672   6.268 -1.2711 -0.9613 -3.1372
 2494TIP3    H229042   0.239   5.524   6.241  4.0037 -0.9880 -0.0087
 2495TIP3   OH229043   6.770   5.482   6.804  0.3528 -0.4177 -0.0664
 2495TIP3    H129044   6.707   5.537   6.852  0.8340  1.1330 -1.1764
 2495TIP3    H229045   6.845   5.539   6.791  1.1601 -1.6021 -0.6058
 2496TIP3   OH229046   0.321   0.965   6.572 -0.0215  0.0481  0.0526
 2496TIP3    H129047   0.337   0.944   6.664  0.4259  2.5252  0.5676
 2496TIP3    H229048   0.279   0.886   6.537  3.1291 -2.3437  1.4412
 2497TIP3   OH229049   6.129   4.235   6.936  0.1953  0.0334 -0.1654
 2497TIP3    H129050   6.145   4.224   6.843 -1.0935  1.1787 -0.5339
 2497TIP3    H229051   6.129   4.330   6.949 -3.0859  0.0121  0.3598
 2498TIP3   OH229052   3.564   6.790   7.206 -0.0211  0.3355  0.2780
 2498TIP3    H129053   3.521   6.764   7.125  1.6162 -0.5813 -0.3288
 2498TIP3    H229054   3.538   6.723   7.269  0.8536 -0.4817 -0.2079
 2499TIP3   OH229055   1.109   6.144   7.789  0.0277 -0.1958 -0.0261
 2499TIP3    H129056   1.204   6.142   7.779  0.1652  0.1482  1.1345
 2499TIP3    H229057   1.088   6.238   7.792 -0.1520 -0.2737  1.4138
 2500TIP3   OH229058   1.357   0.182   6.124 -0.0632  0.2186  0.3486
 2500TIP3    H129059   1.390   0.102   6.085  1.3182  1.3040 -0.7403
 2500TIP3    H229060   1.262   0.170   6.127  0.0996 -1.2591 -0.2092
 2501TIP3   OH229061   6.579   0.445   0.048 -0.2676  0.0695 -0.1401
 2501TIP3    H129062   6.631   0.475  -0.027 -0.7351  1.2434 -0.0128
 2501TIP3    H229063   6.621   0.486   0.124 -0.2831 -0.4502  0.1467
 2502TIP3   OH229064   2.859   7.020   8.484 -0.1256 -0.5640 -1.0469
 2502TIP3    H129065   2.890   7.105   8.518 -1.0361 -1.1030  1.1983
 2502TIP3    H229066   2.937   6.964   8.488 -0.4095 -0.8570  1.0229
 2503TIP3   OH229067   3.255   6.986   8.022  0.0228 -0.6745  0.4168
 2503TIP3    H129068   3.298   6.904   7.998 -0.1989 -0.8807  0.7293
 2503TIP3    H229069   3.197   6.963   8.094 -2.2247 -0.8413 -1.3882
 2504TIP3   OH229070   6.552   5.554   7.621 -0.0113  0.1617 -0.1950
 2504TIP3    H129071   6.505   5.543   7.538  0.7113 -2.5060 -0.3141
 2504TIP3    H229072   6.600   5.636   7.611 -1.3681  0.8073 -1.6786
 2505TIP3   OH229073   3.677   0.451   7.185 -0.1631  0.2397  0.4345
 2505TIP3    H129074   3.690   0.359   7.211  0.0921  0.3630  0.7420
 2505TIP3    H229075   3.637   0.492   7.261  2.5157  1.0989  1.4266
 2506TIP3   OH229076   0.160   0.562   6.855  0.3030 -0.0196  0.3532
 2506TIP3    H129077   0.100   0.635   6.843 -0.7645 -0.3319  3.3447
 2506TIP3    H229078   0.190   0.541   6.767 -0.6893  2.8916 -0.7458
 2507TIP3   OH229079   1.111   4.868   6.116 -0.1717 -0.6972 -0.2706
 2507TIP3    H129080   1.123   4.787   6.167  2.5486  0.6753  1.4214
 2507TIP3    H229081   1.057   4.924   6.173  1.6643  0.2921  0.5628
 2508TIP3   OH229082   7.114   7.220   8.134  0.1205  0.1796 -0.1795
 2508TIP3    H129083   7.155   7.254   8.213  0.0361  0.3614 -0.2125
 2508TIP3    H229084   7.068   7.295   8.096 -0.0243  0.0407 -0.2798
 2509TIP3   OH229085   5.483   6.162   8.374 -0.3160 -0.1736  0.2404
 2509TIP3    H129086   5.512   6.155   8.465  2.4617  1.2110 -0.4945
 2509TIP3    H229087   5.534   6.234   8.338 -1.2689 -0.7950 -2.4659
 2510TIP3   OH229088   7.072   6.769   7.237 -0.0286  0.1607 -0.5379
 2510TIP3    H129089   6.999   6.708   7.242  0.0733  0.0232 -0.7247
 2510TIP3    H229090   7.091   6.776   7.143 -0.6550  1.2087 -0.5921
 2511TIP3   OH229091   1.228   0.690   1.565 -0.2088  0.2474 -0.3848
 2511TIP3    H129092   1.157   0.747   1.595  0.0577  1.2076 -1.5169
 2511TIP3    H229093   1.285   0.749   1.515  0.1214 -1.0008 -1.4889
 2512TIP3   OH229094   1.486   5.864   8.499 -0.3487 -0.6114  0.7951
 2512TIP3    H129095   1.401   5.848   8.540 -1.1361  0.5361 -0.3835
 2512TIP3    H229096   1.487   5.958   8.482 -0.4953 -1.2033 -2.8275
 2513TIP3   OH229097   6.286   0.548   7.578  0.3355 -0.1612  0.2100
 2513TIP3    H129098   6.206   0.594   7.556 -0.3372 -0.7035  1.4462
 2513TIP3    H229099   6.303   0.491   7.502  0.4348  1.1101 -0.7266
 2514TIP3   OH229100   7.265   5.468   6.834 -0.1238 -0.2338  0.0783
 2514TIP3    H129101   7.179   5.508   6.819 -1.3828 -1.9318  2.4925
 2514TIP3    H229102   7.271   5.399   6.767  0.1598  1.0356 -1.2376
 2515TIP3   OH229103   6.630   1.064   6.286  0.3788  0.2288 -0.3719
 2515TIP3    H129104   6.587   1.148   6.275 -1.1384 -0.7104 -1.9320
 2515TIP3    H229105   6.564   1.009   6.330  1.2882 -0.2055  0.4813
 2516TIP3   OH229106   1.510   0.593   1.130 -0.0014  0.0582  0.0519
 2516TIP3    H129107   1.539   0.503   1.116 -1.6857 -0.4628 -0.1569
 2516TIP3    H229108   1.427   0.600   1.084 -0.4744  1.3775  1.0443
 2517TIP3   OH229109   0.547   0.384   6.323  0.7299  0.1906  0.1021
 2517TIP3    H129110   0.513   0.473   6.319  0.2394  0.0459  0.9585
 2517TIP3    H229111   0.642   0.394   6.313  0.5224  0.6608 -1.4324
 2518TIP3   OH229112   3.042   0.604   1.072 -0.0006  0.5277 -0.0975
 2518TIP3    H129113   3.123   0.654   1.083  0.4839 -0.5663  1.4836
 2518TIP3    H229114   3.011   0.589   1.161 -0.6398 -1.1488 -0.5756
 2519TIP3   OH229115   0.255   0.722   7.300  0.5302 -0.1714  0.4511
 2519TIP3    H129116   0.341   0.732   7.259  0.6110  0.5477  0.7788
 2519TIP3    H229117   0.275   0.687   7.387  0.4462 -0.5703  0.3103
 2520TIP3   OH229118   0.855   6.583   7.572  0.7578 -0.0635  0.3967
 2520TIP3    H129119   0.849   6.497   7.531 -1.6939  0.3707 -0.2538
 2520TIP3    H229120   0.948   6.605   7.570  0.9059 -0.7896 -3.4671
 2521TIP3   OH229121   2.243   6.216   0.024  0.0811 -0.1567 -0.3555
 2521TIP3    H129122   2.203   6.213  -0.063  1.9710  2.5518 -1.3832
 2521TIP3    H229123   2.318   6.275   0.014 -0.7960  1.7931  3.5620
 2522TIP3   OH229124   7.196   4.679   0.837 -0.1203 -0.0362  0.1207
 2522TIP3    H129125   7.113   4.637   0.860  0.5111 -1.5434 -0.2925
 2522TIP3    H229126   7.213   4.650   0.748  1.6177 -0.9850  0.7489
 2523TIP3   OH229127   2.905   4.556   7.643  0.2983  0.5984  0.1539
 2523TIP3    H129128   2.967   4.578   7.712 -0.0170  2.6759 -0.1765
 2523TIP3    H229129   2.949   4.490   7.590  2.0860  1.7899  0.1387
 2524TIP3   OH229130   1.055   6.850   8.491 -0.2600  0.3544  0.9530
 2524TIP3    H129131   1.134   6.830   8.440 -0.8981 -1.3526  0.5889
 2524TIP3    H229132   1.030   6.938   8.464 -0.0570 -0.1607 -1.0152
 2525TIP3   OH229133   6.174   6.460   6.546 -0.1419 -0.5254  0.3735
 2525TIP3    H129134   6.144   6.412   6.469 -1.0554  1.0574 -0.2675
 2525TIP3    H229135   6.256   6.416   6.570  0.5950 -0.5154 -1.9937
 2526TIP3   OH229136   0.925   6.614   1.404  0.3757  0.7872  1.1607
 2526TIP3    H129137   0.843   6.657   1.429  0.6051  1.2974  1.0433
 2526TIP3    H229138   0.898   6.536   1.356 -0.0590  0.4312  1.9774
 2527TIP3   OH229139   0.135   3.566   7.811 -0.3118  0.1099 -0.1303
 2527TIP3    H129140   0.125   3.490   7.753  1.5278  0.1495 -0.5351
 2527TIP3    H229141   0.209   3.615   7.774 -0.2096  1.0560  1.2693
 2528TIP3   OH229142   6.994   5.957   8.084  0.7809 -0.2472  0.7493
 2528TIP3    H129143   7.003   6.003   8.001 -1.7609  1.6176  1.4365
 2528TIP3    H229144   6.994   5.865   8.061  2.4753  0.1737 -1.0493
 2529TIP3   OH229145   6.266   5.939   8.008  0.2325 -0.6250 -0.1020
 2529TIP3    H129146   6.188   5.992   7.990  1.4596  1.9776  2.0099
 2529TIP3    H229147   6.232   5.865   8.059 -1.5681 -2.2945 -3.5258
 2530TIP3   OH229148   0.728   3.278   0.699 -0.4005  0.0651  0.2990
 2530TIP3    H129149   0.709   3.368   0.672  0.5633  0.5412  1.1499
 2530TIP3    H229150   0.723   3.280   0.794 -0.2479 -0.7594  0.3270
 2531TIP3   OH229151   2.287   5.268   8.321  0.8024 -0.1391  0.1401
 2531TIP3    H129152   2.225   5.313   8.377  0.7363 -2.3793  1.9622
 2531TIP3    H229153   2.371   5.311   8.337  0.4904  0.2256  0.7758
 2532TIP3   OH229154   1.500   5.404   1.349  0.0149 -0.0975  0.2096
 2532TIP3    H129155   1.560   5.431   1.418  0.2303  0.2712 -0.1204
 2532TIP3    H229156   1.417   5.387   1.394 -0.1923  1.3285  0.3904
 2533TIP3   OH229157   0.342   5.846   6.547 -0.7999  0.1773  0.2031
 2533TIP3    H129158   0.268   5.834   6.487  0.2340 -0.2348 -1.0253
 2533TIP3    H229159   0.410   5.885   6.492  0.2631 -0.4740  1.0582
 2534TIP3   OH229160   0.217   5.817   5.933  0.9094 -0.2416  0.7634
 2534TIP3    H129161   0.204   5.795   5.841  0.7225 -0.5792  0.8691
 2534TIP3    H229162   0.274   5.894   5.932  0.4302  0.1107  0.3478
 2535TIP3   OH229163   1.641   6.125   6.974 -0.6119 -0.4951 -0.0694
 2535TIP3    H129164   1.645   6.058   6.906 -2.1195 -1.6971  0.9881
 2535TIP3    H229165   1.731   6.131   7.007 -0.1844 -0.9898 -1.1120
 2536TIP3   OH229166   2.905   5.976   6.553  0.0625  0.6021 -0.1998
 2536TIP3    H129167   2.987   5.938   6.521  0.2314  2.7333 -2.4335
 2536TIP3    H229168   2.845   5.969   6.479 -1.5097 -0.0727  1.1101
 2537TIP3   OH229169   6.680   6.063   7.431 -0.7868 -0.4954  0.3988
 2537TIP3    H129170   6.696   6.004   7.358 -0.3721  0.8395 -0.5917
 2537TIP3    H229171   6.595   6.036   7.465 -0.8873 -1.2576 -0.4427
 2538TIP3   OH229172   0.263   2.781   0.375 -0.1303 -0.3703  0.0660
 2538TIP3    H129173   0.350   2.816   0.395 -0.5298  1.2005 -0.8819
 2538TIP3    H229174   0.245   2.812   0.286 -2.3313  0.6372  0.8505
 2539TIP3   OH229175   6.641   4.614   6.581  0.0539 -0.4406 -0.5286
 2539TIP3    H129176   6.725   4.660   6.586 -1.0868  1.5737  1.0487
 2539TIP3    H229177   6.579   4.682   6.554 -1.6487 -1.0874  1.6680
 2540TIP3   OH229178   6.478   6.450   0.501 -0.2006  0.2028  0.3954
 2540TIP3    H129179   6.549   6.478   0.444  1.0393  1.5940  2.5693
 2540TIP3    H229180   6.398   6.476   0.455  0.7535  0.6342 -1.0349
 2541TIP3   OH229181   7.103   5.831   7.346  0.4315 -0.0037  0.1319
 2541TIP3    H129182   7.048   5.786   7.282  0.3814 -0.3504  0.4098
 2541TIP3    H229183   7.045   5.896   7.386  0.4983  0.2978 -0.2620
 2542TIP3   OH229184   2.875   3.992   6.598  0.4699 -0.7605 -0.0727
 2542TIP3    H129185   2.887   3.910   6.646 -0.1825 -1.1029 -0.4825
 2542TIP3    H229186   2.953   3.999   6.543 -0.1461 -1.8667 -1.1302
 2543TIP3   OH229187   1.981   6.435   0.566 -0.3969  0.2090 -0.3651
 2543TIP3    H129188   2.061   6.385   0.578 -0.4491  0.3592  0.6547
 2543TIP3    H229189   1.957   6.420   0.475  0.1254 -0.8188 -0.3433
 2544TIP3   OH229190   7.053   6.772   1.378  0.2835 -0.0492  0.3414
 2544TIP3    H129191   6.990   6.716   1.333 -2.6593  3.1955  0.2455
 2544TIP3    H229192   7.012   6.792   1.462  1.7306  1.1002  0.7936
 2545TIP3   OH229193   2.983   4.801   7.380  0.7191  0.0692 -0.3505
 2545TIP3    H129194   3.013   4.750   7.455  0.6719  0.0530 -0.3430
 2545TIP3    H229195   3.039   4.879   7.380  0.7977  0.0135 -0.3682
 2546TIP3   OH229196   0.543   5.796   6.945 -0.0829 -0.7523  0.4116
 2546TIP3    H129197   0.563   5.736   6.873 -0.5210  0.6342 -0.9009
 2546TIP3    H229198   0.625   5.841   6.962 -0.1412 -0.6043  0.3084
 2547TIP3   OH229199   0.120   5.831   6.341  0.6762 -0.6031  0.1459
 2547TIP3    H129200   0.120   5.909   6.285 -2.5335 -0.6251  0.0216
 2547TIP3    H229201   0.048   5.778   6.309  1.0213 -2.3073  2.0697
 2548TIP3   OH229202   1.883   5.688   6.462 -0.1727 -0.2229 -0.9649
 2548TIP3    H129203   1.906   5.774   6.497  1.4349 -0.3375 -1.6682
 2548TIP3    H229204   1.966   5.641   6.459 -1.1287 -2.0295 -0.0153
 2549TIP3   OH229205   6.581   6.336   6.965  0.1048  0.0251 -0.1301
 2549TIP3    H129206   6.512   6.382   6.917 -0.9497 -1.1769  0.1986
 2549TIP3    H229207   6.536   6.262   7.007  1.6743 -1.0586 -0.3060
 2550TIP3   OH229208   2.364   0.472   6.845  0.3585  0.5417  0.0136
 2550TIP3    H129209   2.445   0.486   6.795  0.3552  2.5754  0.5489
 2550TIP3    H229210   2.313   0.552   6.832 -0.3826  0.3982  1.8780
 2551TIP3   OH229211   3.846   1.304   0.875  0.4008 -0.1031 -0.2220
 2551TIP3    H129212   3.784   1.242   0.837  1.0312 -0.9543  0.1136
 2551TIP3    H229213   3.931   1.277   0.840  0.5963  0.9841 -0.5882
 2552TIP3   OH229214   1.370   6.129   7.659 -0.1867  0.1677  0.0703
 2552TIP3    H129215   1.350   6.183   7.583 -1.9227 -0.8121 -0.1916
 2552TIP3    H229216   1.351   6.039   7.631  0.4982 -0.3552  1.2107
 2553TIP3   OH229217   0.213   7.282   0.792  0.4521  0.3394 -0.0880
 2553TIP3    H129218   0.165   7.334   0.857  1.0954  0.6345  0.1492
 2553TIP3    H229219   0.144   7.236   0.744 -0.0196 -0.0588  0.9492
 2554TIP3   OH229220   1.073   0.620   6.086  0.0498  0.9369  0.5567
 2554TIP3    H129221   1.128   0.569   6.027  1.0089  2.4380  0.1203
 2554TIP3    H229222   1.045   0.696   6.035 -1.4901  0.7832  1.1381
 2555TIP3   OH229223   3.178   5.122   7.566  0.5031  0.0157  0.8062
 2555TIP3    H129224   3.221   5.204   7.589  0.9512 -0.0100  0.0665
 2555TIP3    H229225   3.248   5.066   7.534 -0.1017  0.0504 -0.6276
 2556TIP3   OH229226   2.087   5.931   7.269  0.2821  0.3591 -0.1705
 2556TIP3    H129227   2.174   5.946   7.231  0.8080 -0.8500  0.5261
 2556TIP3    H229228   2.089   5.840   7.298 -0.9259  0.5740  0.6248
 2557TIP3   OH229229   2.033   0.324   7.314  0.0797  0.4174 -0.1897
 2557TIP3    H129230   2.017   0.339   7.221 -0.5012 -0.3551 -0.2227
 2557TIP3    H229231   2.052   0.231   7.320 -1.4051  0.1518  0.6608
 2558TIP3   OH229232   2.349   2.358   8.147 -0.1595 -0.1967 -0.5681
 2558TIP3    H129233   2.415   2.295   8.118  0.5173  0.6911 -0.9846
 2558TIP3    H229234   2.398   2.436   8.169 -0.8022 -0.4249  1.8112
 2559TIP3   OH229235   3.648   6.696   7.761 -0.2110  0.2250  0.3416
 2559TIP3    H129236   3.623   6.733   7.676  1.2472  0.7960  0.1444
 2559TIP3    H229237   3.625   6.604   7.755 -1.8689  0.6360  0.0321
 2560TIP3   OH229238   2.761   0.121   6.816  0.3601 -0.3859 -0.1437
 2560TIP3    H129239   2.701   0.186   6.855 -0.5846  0.3987 -2.8142
 2560TIP3    H229240   2.770   0.054   6.884 -0.0272  1.6614  2.0232
 2561TIP3   OH229241   6.510   0.336   0.443  0.1797 -0.5798  0.2021
 2561TIP3    H129242   6.475   0.264   0.495  0.9052 -1.4056 -0.4337
 2561TIP3    H229243   6.601   0.345   0.472 -0.7070  2.0465  2.3765
 2562TIP3   OH229244   2.943   4.412   7.142  0.1138  0.5835 -0.2088
 2562TIP3    H129245   2.969   4.320   7.141 -0.0362  0.5362  0.4414
 2562TIP3    H229246   2.893   4.423   7.223 -2.0120  0.6352 -1.4851
 2563TIP3   OH229247   0.955   7.179   7.037 -0.3700  0.4568  0.0013
 2563TIP3    H129248   0.996   7.126   6.969  0.0188 -0.0883  0.6514
 2563TIP3    H229249   1.018   7.250   7.053  0.3401 -0.3821  1.0009
 2564TIP3   OH229250   1.996   5.422   7.629 -0.0809  0.0666 -0.0972
 2564TIP3    H129251   1.944   5.449   7.554 -0.1307 -0.9615 -0.4459
 2564TIP3    H229252   2.062   5.363   7.592  0.5101  0.3255  0.5268
 2565TIP3   OH229253   7.239   1.721   7.850  0.1129 -0.4663  0.2647
 2565TIP3    H129254   7.305   1.689   7.788  0.3580  0.5573 -0.0181
 2565TIP3    H229255   7.237   1.655   7.919 -0.0278 -1.5170 -0.7417
 2566TIP3   OH229256   3.532   0.957   8.496  0.4806  0.3358  0.2671
 2566TIP3    H129257   3.570   0.989   8.414 -0.6511  0.4142 -0.2380
 2566TIP3    H229258   3.487   0.876   8.472 -0.3145  0.6412  0.6968
 2567TIP3   OH229259   1.872   6.075   7.999 -0.7247 -0.3108  0.0695
 2567TIP3    H129260   1.812   6.052   7.928 -2.5913 -0.0714  1.5303
 2567TIP3    H229261   1.922   5.994   8.016  0.4231 -0.1011 -2.1185
 2568TIP3   OH229262   2.656   6.824   0.313  0.2866 -0.4062  0.1527
 2568TIP3    H129263   2.669   6.729   0.308 -1.2859 -0.6077 -0.4844
 2568TIP3    H229264   2.679   6.847   0.403 -2.7689 -1.9581  1.3848
 2569TIP3   OH229265   2.713   3.818   6.404 -0.3982  0.0349  0.5963
 2569TIP3    H129266   2.780   3.793   6.467 -0.5486 -0.3385  0.6114
 2569TIP3    H229267   2.634   3.772   6.432 -0.1419 -1.1904 -0.6046
 2570TIP3   OH229268   0.518   4.729   7.132  0.4943  0.3138 -0.2350
 2570TIP3    H129269   0.484   4.662   7.192  1.0809  0.7562  0.6052
 2570TIP3    H229270   0.561   4.793   7.190  0.1454  1.2926 -1.0455
 2571TIP3   OH229271   0.109   7.264   5.793 -0.2118  0.2145 -0.4264
 2571TIP3    H129272   0.024   7.226   5.774  0.5884 -2.0334  0.3251
 2571TIP3    H229273   0.105   7.289   5.885 -0.2056  0.5721 -0.5188
 2572TIP3   OH229274   0.687   6.436   8.493 -0.3972 -0.1137 -0.7385
 2572TIP3    H129275   0.667   6.426   8.400  0.7558  2.0757 -1.2512
 2572TIP3    H229276   0.629   6.508   8.522 -1.4490 -1.4195  0.4789
 2573TIP3   OH229277   3.282   3.445   0.226  0.0223  0.6053  0.5246
 2573TIP3    H129278   3.373   3.475   0.225 -0.2838  1.6319  1.7476
 2573TIP3    H229279   3.231   3.522   0.205 -0.5375 -0.1810 -1.0680
 2574TIP3   OH229280   6.763   1.164   7.886  0.2895  0.0968 -0.3881
 2574TIP3    H129281   6.774   1.095   7.951  0.3179 -0.9508 -1.4801
 2574TIP3    H229282   6.819   1.138   7.813 -0.0407  1.0426 -0.9914
 2575TIP3   OH229283   4.064   1.002   8.099  0.0545  0.1161 -0.0395
 2575TIP3    H129284   4.036   0.913   8.077  2.2039 -1.0088  1.5918
 2575TIP3    H229285   4.059   1.050   8.016 -0.2069 -1.7697 -1.1366
 2576TIP3   OH229286   1.175   5.322   7.864  0.2932  0.0559  0.3751
 2576TIP3    H129287   1.262   5.352   7.889  0.3447  0.0917  0.1520
 2576TIP3    H229288   1.130   5.307   7.947  0.1663  1.0448  0.4999
 2577TIP3   OH229289   1.004   2.640   7.362 -0.3402  0.0440 -0.0342
 2577TIP3    H129290   0.960   2.571   7.412 -0.5688 -1.4784 -2.2913
 2577TIP3    H229291   1.090   2.648   7.403 -0.2194 -1.7570  0.0982
 2578TIP3   OH229292   6.520   1.211   0.723 -0.3101  0.3963 -0.3975
 2578TIP3    H129293   6.604   1.256   0.717 -0.8918  1.4148 -1.1135
 2578TIP3    H229294   6.509   1.169   0.637 -0.0432 -0.6465  0.0611
 2579TIP3   OH229295   2.344   6.503   6.261  0.0975 -0.4070 -0.1828
 2579TIP3    H129296   2.324   6.556   6.184 -0.4975  1.7199  1.4110
 2579TIP3    H229297   2.282   6.533   6.327 -0.8793 -3.7590  0.4956
 2580TIP3   OH229298   1.531   0.137   0.531  0.5623 -0.2045 -0.1202
 2580TIP3    H129299   1.450   0.164   0.488  0.0426 -1.1459  0.2268
 2580TIP3    H229300   1.591   0.211   0.520  0.0148  0.0730 -1.3151
 2581TIP3   OH229301   2.481   1.005   1.581  1.2097 -0.5992 -0.1788
 2581TIP3    H129302   2.562   1.022   1.532  1.7048  0.2904  0.9197
 2581TIP3    H229303   2.506   0.942   1.648  0.9668 -0.4101  0.0889
 2582TIP3   OH229304   1.965   2.816   7.367 -0.1465  0.3961  0.4349
 2582TIP3    H129305   1.985   2.845   7.456  2.0601 -1.2301  0.4908
 2582TIP3    H229306   1.952   2.721   7.375  2.0933 -0.0972 -1.2770
 2583TIP3   OH229307   3.428   5.698   7.939 -0.6531  0.3342 -0.1944
 2583TIP3    H129308   3.378   5.617   7.943 -1.1108  0.5808 -0.8087
 2583TIP3    H229309   3.427   5.723   7.847  1.5723 -0.2396 -0.4056
 2584TIP3   OH229310   0.168   1.345   6.892 -0.6678 -0.2637 -0.1752
 2584TIP3    H129311   0.249   1.312   6.930 -0.2711  0.8638 -0.0338
 2584TIP3    H229312   0.197   1.401   6.820 -1.3703 -1.0860 -1.1194
 2585TIP3   OH229313   0.718   5.958   6.670  0.2998 -0.2216 -0.1125
 2585TIP3    H129314   0.755   5.881   6.627 -0.2294 -1.5463  1.7314
 2585TIP3    H229315   0.792   5.998   6.715  0.2842 -0.5707  0.2307
 2586TIP3   OH229316   3.274   5.705   1.311  0.3165  0.4426  0.0802
 2586TIP3    H129317   3.321   5.750   1.381  0.0999 -3.7317  3.1029
 2586TIP3    H229318   3.185   5.741   1.316  0.1290 -0.2579  2.4335
 2587TIP3   OH229319   0.560   3.872   8.265  0.2077  0.2999 -0.1830
 2587TIP3    H129320   0.551   3.845   8.357  0.2336 -1.5177 -0.7116
 2587TIP3    H229321   0.650   3.902   8.258  0.6393 -0.9353  0.0312
 2588TIP3   OH229322   0.647   6.544   8.255  0.1742  0.2468  0.4294
 2588TIP3    H129323   0.588   6.618   8.246  1.5101  1.1727 -0.7933
 2588TIP3    H229324   0.646   6.501   8.170 -0.7854 -1.3115  1.1966
 2589TIP3   OH229325   1.180   4.429   0.057 -0.1565 -0.5142 -0.0454
 2589TIP3    H129326   1.128   4.506   0.081  1.9849  1.2231 -0.7766
 2589TIP3    H229327   1.123   4.354   0.075 -1.9113  1.1875  1.6909
 2590TIP3   OH229328   7.194   5.051   6.921  0.5551  0.1449  0.0892
 2590TIP3    H129329   7.101   5.074   6.919  1.1138  2.5016  0.1279
 2590TIP3    H229330   7.195   4.956   6.915 -1.8748  0.0742  0.3766
 2591TIP3   OH229331   6.498   5.011   7.307 -0.3264 -0.1022  0.0537
 2591TIP3    H129332   6.428   4.951   7.280 -0.4122 -0.3110  0.7112
 2591TIP3    H229333   6.457   5.097   7.310 -0.5635 -0.2296  0.4685
 2592TIP3   OH229334   2.350   6.816   6.932 -0.0748  0.2294  0.3908
 2592TIP3    H129335   2.436   6.855   6.948 -0.5294  1.1354  0.6484
 2592TIP3    H229336   2.339   6.752   7.003 -0.0268  0.8059  0.9178
 2593TIP3   OH229337   5.512   6.545   6.958 -0.9934  0.3985 -0.1910
 2593TIP3    H129338   5.534   6.612   6.893 -0.7917 -0.0329 -0.5732
 2593TIP3    H229339   5.574   6.474   6.941  2.1346  2.0769  3.4284
 2594TIP3   OH229340   6.416   1.646   7.173  0.7105  0.1568  0.1964
 2594TIP3    H129341   6.388   1.647   7.082 -0.4616 -0.7737  0.5313
 2594TIP3    H229342   6.455   1.732   7.187  0.0949  0.6348 -0.9460
 2595TIP3   OH229343   0.030   2.797   7.792  0.1703  0.7870 -0.2823
 2595TIP3    H129344   0.040   2.703   7.774  3.0740  0.9983 -0.0675
 2595TIP3    H229345   0.026   2.802   7.888  0.2787  0.9183 -0.2856
 2596TIP3   OH229346   0.250   1.368   7.473 -0.1187  0.7613  0.3569
 2596TIP3    H129347   0.247   1.462   7.454  0.5528  0.8529  0.6758
 2596TIP3    H229348   0.272   1.363   7.566 -2.9540  0.3131  1.0395
 2597TIP3   OH229349   1.096   0.326   6.375 -0.2889 -0.0332  0.3578
 2597TIP3    H129350   1.109   0.243   6.330 -0.3871  0.0242  0.2228
 2597TIP3    H229351   1.019   0.364   6.333 -0.8463 -0.3356  1.1048
 2598TIP3   OH229352   3.716   4.681   7.141  0.3799 -0.3388 -0.4268
 2598TIP3    H129353   3.728   4.681   7.046  1.5733  0.4428 -0.2960
 2598TIP3    H229354   3.705   4.774   7.163  0.9971 -0.4281  0.2866
 2599TIP3   OH229355   2.145   0.860   6.943 -0.3110  0.4383  0.5109
 2599TIP3    H129356   2.170   0.800   6.873 -0.6979  0.0926  0.6661
 2599TIP3    H229357   2.224   0.869   6.997  0.0911  0.9761 -0.1579
 2600TIP3   OH229358   7.086   5.507   7.773  0.2990  0.8367 -0.4231
 2600TIP3    H129359   7.087   5.593   7.731  0.4429  1.0324 -0.0176
 2600TIP3    H229360   6.996   5.498   7.805 -0.3142 -0.0512 -2.2873
 2601TIP3   OH229361   1.672   0.948   7.370 -0.0553 -0.1429 -0.7455
 2601TIP3    H129362   1.637   0.891   7.302 -0.6870  0.8100 -1.2282
 2601TIP3    H229363   1.595   0.971   7.423 -0.4653  3.0868 -2.6278
 2602TIP3   OH229364   4.484   5.118   6.582 -0.2521  0.2855 -0.2592
 2602TIP3    H129365   4.543   5.092   6.512  2.2321  2.1315  1.0901
 2602TIP3    H229366   4.435   5.038   6.603  2.3605 -1.5139 -0.8158
 2603TIP3   OH229367   3.952   5.888   8.178 -0.0092  0.0584 -0.1850
 2603TIP3    H129368   3.915   5.800   8.170  2.7652 -1.1435 -0.3970
 2603TIP3    H229369   3.882   5.940   8.217 -2.6921 -1.5676 -2.5821
 2604TIP3   OH229370   2.619   2.129   0.132  0.5130 -0.0715 -0.4785
 2604TIP3    H129371   2.598   2.036   0.129  0.0607 -0.0181  0.9658
 2604TIP3    H229372   2.559   2.169   0.069  0.2758 -0.6744 -0.6362
 2605TIP3   OH229373   0.666   6.368   0.597  0.2055  0.1654 -0.0749
 2605TIP3    H129374   0.722   6.302   0.639 -0.4570  0.1159  0.7495
 2605TIP3    H229375   0.683   6.448   0.647 -0.2263  0.2187 -0.0133
 2606TIP3   OH229376   1.141   0.543   6.816  0.0975  0.4179  0.1805
 2606TIP3    H129377   1.125   0.636   6.833  0.1017  0.3268  0.7066
 2606TIP3    H229378   1.221   0.524   6.865  0.5544  0.3303 -0.5927
 2607TIP3   OH229379   1.788   6.959   1.453 -0.6251  0.2871 -0.3011
 2607TIP3    H129380   1.704   6.934   1.414  0.0406  0.5375 -1.9101
 2607TIP3    H229381   1.832   7.009   1.385 -0.0130  1.9087  1.2723
 2608TIP3   OH229382   2.350   6.048   7.444  0.0895 -0.5679  0.2559
 2608TIP3    H129383   2.437   6.008   7.444  0.8610  1.0722  0.6477
 2608TIP3    H229384   2.311   6.021   7.360  0.8538 -1.5261  0.1982
 2609TIP3   OH229385   6.699   1.901   0.412 -0.5560  0.0686  0.4372
 2609TIP3    H129386   6.650   1.945   0.482  2.5267  0.5058  2.4104
 2609TIP3    H229387   6.670   1.809   0.418  0.2415 -0.0732  2.8785
 2610TIP3   OH229388   4.218   6.382   7.847 -0.1698 -0.1229 -0.5247
 2610TIP3    H129389   4.297   6.331   7.829  0.4874  0.8718 -0.4888
 2610TIP3    H229390   4.147   6.334   7.803  0.7303 -0.0708 -2.0762
 2611TIP3   OH229391   0.716   6.766   0.492  0.2733 -0.2939 -0.0350
 2611TIP3    H129392   0.658   6.840   0.512  0.6366 -0.8091  3.1946
 2611TIP3    H229393   0.781   6.803   0.431 -0.2882  1.7289  0.5400
 2612TIP3   OH229394   4.233   6.411   1.451  0.0988 -0.5677  0.5563
 2612TIP3    H129395   4.286   6.384   1.375 -1.5536 -0.9313 -0.5099
 2612TIP3    H229396   4.279   6.487   1.486  1.4898 -1.0451 -0.1503
 2613TIP3   OH229397   0.126   0.903   0.458 -0.1754  0.2225 -0.4777
 2613TIP3    H129398   0.130   0.992   0.423  1.7926 -0.2571 -1.5368
 2613TIP3    H229399   0.125   0.915   0.553 -1.5835  1.4033 -0.6139
 2614TIP3   OH229400   1.479   4.844   6.186  0.1146 -1.0931  0.2541
 2614TIP3    H129401   1.516   4.767   6.142 -0.3112 -1.5065  0.6079
 2614TIP3    H229402   1.422   4.807   6.254 -0.7065 -0.4752 -0.0837
 2615TIP3   OH229403   3.465   0.088   0.070  0.8698  0.0382  0.0329
 2615TIP3    H129404   3.433   0.085  -0.021  0.8246 -0.0283  0.0505
 2615TIP3    H229405   3.559   0.105   0.062  1.0029 -0.7317 -0.0538
 2616TIP3   OH229406   2.379   2.758   1.409 -0.5373  0.4425 -0.1772
 2616TIP3    H129407   2.357   2.740   1.500 -0.1330 -0.2913 -0.2170
 2616TIP3    H229408   2.406   2.850   1.408 -0.4611  0.4265  0.4601
 2617TIP3   OH229409   1.976   5.284   6.631 -0.2977  1.1146 -0.5931
 2617TIP3    H129410   1.910   5.295   6.563 -1.5528 -0.3830  0.3435
 2617TIP3    H229411   1.993   5.190   6.634 -0.5253  1.0969  1.3670
 2618TIP3   OH229412   0.847   0.376   8.076  0.0305  0.5347 -0.5943
 2618TIP3    H129413   0.758   0.363   8.043  0.2370  1.0029 -1.3460
 2618TIP3    H229414   0.873   0.462   8.042  0.6664  0.5195 -0.1495
 2619TIP3   OH229415   1.520   5.763   6.388 -0.0523 -0.0044  0.6691
 2619TIP3    H129416   1.451   5.794   6.329 -0.6943 -0.7068  1.0446
 2619TIP3    H229417   1.596   5.816   6.365 -0.0131 -0.9744 -1.4906
 2620TIP3   OH229418   3.227   5.454   6.701  0.0886 -0.4968  0.1204
 2620TIP3    H129419   3.302   5.413   6.658  0.4556 -1.6432  1.8120
 2620TIP3    H229420   3.151   5.422   6.653  0.4719 -1.9623  0.4846
 2621TIP3   OH229421   1.493   2.200   6.851 -0.6184  0.0656 -0.1635
 2621TIP3    H129422   1.551   2.227   6.779  0.2610 -0.5624  0.3162
 2621TIP3    H229423   1.417   2.258   6.842  0.9291  2.2688  0.4127
 2622TIP3   OH229424   6.753   5.347   6.251 -0.0387  0.2069  0.0996
 2622TIP3    H129425   6.810   5.424   6.243 -0.0547  0.1663 -0.3736
 2622TIP3    H229426   6.741   5.315   6.162 -0.7343  0.1607  0.2062
 2623TIP3   OH229427   0.028   5.629   6.546  0.2366  0.4646  0.0113
 2623TIP3    H129428   0.034   5.639   6.451 -0.2645  0.0555 -0.0685
 2623TIP3    H229429  -0.015   5.544   6.558  0.1633  0.5850  0.6027
 2624TIP3   OH229430   7.157   4.460   8.326 -0.5545 -0.1863 -0.4628
 2624TIP3    H129431   7.219   4.388   8.315 -2.6968 -1.9164 -1.5664
 2624TIP3    H229432   7.176   4.495   8.413  0.1883 -2.4282  0.3018
 2625TIP3   OH229433   3.946   3.894   6.969 -0.1604  0.3133  0.6373
 2625TIP3    H129434   4.030   3.849   6.978 -0.6692 -0.8935 -0.6272
 2625TIP3    H229435   3.886   3.843   7.023 -0.3084  0.6136  0.7594
 2626TIP3   OH229436   1.348   7.065   6.357  0.4232  0.3111 -0.6730
 2626TIP3    H129437   1.289   7.141   6.350  1.3695  0.9358 -1.9779
 2626TIP3    H229438   1.431   7.095   6.321  0.6929 -1.4866 -1.6034
 2627TIP3   OH229439   1.381   5.839   7.315  0.1520  0.9661  0.4465
 2627TIP3    H129440   1.314   5.905   7.298 -0.3851  0.2948 -0.1026
 2627TIP3    H229441   1.397   5.799   7.229  1.3312  1.1851  0.5566
 2628TIP3   OH229442   0.636   3.071   1.574 -0.7074  0.0930  0.4444
 2628TIP3    H129443   0.581   3.010   1.525 -0.8133  1.2897 -0.9468
 2628TIP3    H229444   0.597   3.072   1.662 -1.1504 -1.2461  0.2804
 2629TIP3   OH229445   0.935   5.111   7.195 -0.7507 -0.1222 -0.0110
 2629TIP3    H129446   0.899   5.135   7.110 -0.0858  0.8638 -0.0149
 2629TIP3    H229447   0.915   5.186   7.251  0.4708  0.0366  0.2248
 2630TIP3   OH229448   3.388   1.018   6.830 -0.0072  0.2558 -0.3242
 2630TIP3    H129449   3.312   1.077   6.831  0.0876  0.3754  0.0321
 2630TIP3    H229450   3.361   0.945   6.774 -0.6549 -0.0490  0.3769
 2631TIP3   OH229451   2.416   5.262   6.610  0.7081  0.4473 -0.2335
 2631TIP3    H129452   2.402   5.302   6.523  0.3830 -0.7694 -0.7431
 2631TIP3    H229453   2.360   5.313   6.669 -1.1644 -0.4298 -1.2038
 2632TIP3   OH229454   0.415   0.187   6.911 -0.0740 -0.1290 -0.1497
 2632TIP3    H129455   0.424   0.277   6.944  2.3295 -0.6747  0.7520
 2632TIP3    H229456   0.502   0.165   6.877 -0.8702 -1.8370 -1.1336
 2633TIP3   OH229457   2.372   6.326   7.967  0.0224 -0.0236 -0.0222
 2633TIP3    H129458   2.284   6.294   7.948 -0.3718  0.9907  0.0241
 2633TIP3    H229459   2.431   6.259   7.933 -0.7806 -1.5155  1.4426
 2634TIP3   OH229460   1.943   6.407   6.543  0.0389 -0.0079  0.3417
 2634TIP3    H129461   2.010   6.339   6.537 -0.0894 -0.1305  0.2880
 2634TIP3    H229462   1.969   6.472   6.478 -0.1519 -0.2821 -0.0113
 2635TIP3   OH229463   3.079   6.509   6.394  0.5724 -0.6583 -0.3044
 2635TIP3    H129464   3.026   6.532   6.318 -0.4364  1.8503  1.1215
 2635TIP3    H229465   3.027   6.442   6.440 -0.7153  0.7622  0.3304
 2636TIP3   OH229466   1.196   4.333   7.595  0.2850  0.1227 -0.1806
 2636TIP3    H129467   1.270   4.392   7.613  1.7261 -1.5747 -0.3160
 2636TIP3    H229468   1.139   4.384   7.537  1.8131  1.1666 -0.8389
 2637TIP3   OH229469   0.957   4.116   0.703 -0.4220 -0.1935 -0.2177
 2637TIP3    H129470   0.959   4.079   0.615  2.4004 -2.9211  0.9270
 2637TIP3    H229471   1.008   4.197   0.697  0.5396 -0.8469 -0.8717
 2638TIP3   OH229472   6.653   5.060   0.046  0.3461 -0.5920 -0.5896
 2638TIP3    H129473   6.660   5.058  -0.049 -0.5246 -0.8016 -0.6496
 2638TIP3    H229474   6.739   5.032   0.077  1.4836  1.9723 -1.2858
 2639TIP3   OH229475   5.918   5.659   6.430  0.3980 -0.7177 -0.3350
 2639TIP3    H129476   5.979   5.596   6.391  0.3294 -0.4720 -0.8427
 2639TIP3    H229477   5.831   5.623   6.412  0.3797 -0.8467  0.0081
 2640TIP3   OH229478   2.782   0.113   6.371  0.3134 -0.4999  0.2523
 2640TIP3    H129479   2.694   0.116   6.335  0.6148 -0.8944 -0.5406
 2640TIP3    H229480   2.793   0.022   6.399  0.7848 -0.6597 -0.4557
 2641TIP3   OH229481   1.532   6.685   7.213  0.1355  0.5782  0.3424
 2641TIP3    H129482   1.574   6.611   7.256 -2.3163  0.4051  2.6122
 2641TIP3    H229483   1.495   6.649   7.133  0.1303 -0.3564  0.7602
 2642TIP3   OH229484   3.433   4.882   1.153 -0.4971  0.4525 -0.5550
 2642TIP3    H129485   3.417   4.834   1.071 -0.0237  0.6092 -0.7420
 2642TIP3    H229486   3.494   4.828   1.201 -2.1878 -0.5423  0.5212
 2643TIP3   OH229487   0.920   3.806   0.480 -0.4953  0.3511  0.3374
 2643TIP3    H129488   0.845   3.762   0.442  1.2451 -1.6919 -0.8537
 2643TIP3    H229489   0.937   3.880   0.422 -0.8097  0.0891 -0.0831
 2644TIP3   OH229490   3.379   6.865   6.984  0.4644  0.5599  0.1372
 2644TIP3    H129491   3.434   6.886   6.909  1.8551  0.7559  1.1782
 2644TIP3    H229492   3.311   6.808   6.949  0.9229  0.8827 -1.3150
 2645TIP3   OH229493   2.263   5.750   7.997 -0.0725 -0.1152 -0.0615
 2645TIP3    H129494   2.216   5.684   7.945  0.4032  0.1961 -0.9003
 2645TIP3    H229495   2.355   5.739   7.971  0.0540  0.6250  0.0754
 2646TIP3   OH229496   2.320   5.096   7.601  0.4055  0.4938  0.4094
 2646TIP3    H129497   2.266   5.040   7.546 -0.2502  1.1849  0.3557
 2646TIP3    H229498   2.409   5.064   7.587  0.2885  0.8832 -1.3099
 2647TIP3   OH229499   5.593   4.787   1.611  0.8012  0.2828 -0.0297
 2647TIP3    H129500   5.561   4.702   1.643 -0.4136  0.8678  0.3430
 2647TIP3    H229501   5.610   4.837   1.691  0.8436  0.6363 -0.2618
 2648TIP3   OH229502   4.469   6.592   6.150 -0.1110 -0.2894  0.2425
 2648TIP3    H129503   4.374   6.593   6.140 -0.0683 -1.3207 -0.3527
 2648TIP3    H229504   4.487   6.514   6.203  0.3478  0.3807  1.1023
 2649TIP3   OH229505   3.055   0.363   6.368 -0.2335 -0.0666 -0.4821
 2649TIP3    H129506   3.004   0.370   6.448  0.4120  1.6863 -0.1939
 2649TIP3    H229507   3.034   0.277   6.333 -1.9027 -0.1229  0.6260
 2650TIP3   OH229508   4.406   0.414   0.754 -0.5053 -0.0262 -0.2094
 2650TIP3    H129509   4.466   0.410   0.680 -0.4127 -0.5743 -0.1038
 2650TIP3    H229510   4.458   0.389   0.830 -0.4267  1.2163  0.1510
 2651TIP3   OH229511   2.967   1.304   6.636  0.2657  0.0185  0.1214
 2651TIP3    H129512   2.903   1.341   6.697  0.0758 -0.1134  0.0046
 2651TIP3    H229513   2.922   1.229   6.597 -0.1501  0.9438 -1.2418
 2652TIP3   OH229514   3.246   7.291   7.439  0.4145 -0.0962  0.1851
 2652TIP3    H129515   3.155   7.267   7.423  0.3943  0.1799 -0.1500
 2652TIP3    H229516   3.292   7.264   7.359  0.5711  0.0305  0.2326
 2653TIP3   OH229517   5.498   5.736   0.949 -0.2277  0.1775  0.2888
 2653TIP3    H129518   5.515   5.765   1.039  1.4617 -0.4578  0.1875
 2653TIP3    H229519   5.513   5.814   0.896 -1.1626  0.5375  0.5405
 2654TIP3   OH229520   2.666   4.102   7.532  0.7217 -0.4403 -0.3548
 2654TIP3    H129521   2.590   4.157   7.550 -0.4910 -1.8730 -1.0286
 2654TIP3    H229522   2.688   4.063   7.617  0.5581 -0.2415 -0.2198
 2655TIP3   OH229523   4.976   0.911   6.629 -0.2421 -0.5578 -0.5927
 2655TIP3    H129524   4.937   0.922   6.542  0.1299 -2.7735 -1.0530
 2655TIP3    H229525   5.069   0.895   6.611  0.8562  3.8324  0.4609
 2656TIP3   OH229526   3.489   0.000   7.243  0.9049  0.9484  0.2734
 2656TIP3    H129527   3.426  -0.060   7.203 -0.5665  1.0972  2.3183
 2656TIP3    H229528   3.556  -0.057   7.281  0.1367  0.6526  1.1786
 2657TIP3   OH229529   3.350   0.648   7.827 -0.2678 -0.2534 -0.3678
 2657TIP3    H129530   3.405   0.569   7.821 -0.4363 -0.2705 -1.8776
 2657TIP3    H229531   3.341   0.678   7.737 -0.6729  1.1889  0.1361
 2658TIP3   OH229532   3.658   5.389   8.112 -0.6367  0.1868  0.1246
 2658TIP3    H129533   3.591   5.454   8.087  0.6102  1.2949 -0.3965
 2658TIP3    H229534   3.718   5.387   8.038  0.2240 -0.3758  0.8303
 2659TIP3   OH229535   3.425   0.630   8.105  0.3747 -0.4059  0.1121
 2659TIP3    H129536   3.392   0.644   8.016  0.7198  0.6506  0.1426
 2659TIP3    H229537   3.349   0.647   8.161  0.2201 -0.8305  0.0289
 2660TIP3   OH229538   2.719   6.734   7.244  0.0416  0.4760  0.1572
 2660TIP3    H129539   2.702   6.786   7.165 -0.4728  0.2840  0.1414
 2660TIP3    H229540   2.813   6.719   7.243 -0.0398  0.0123 -0.7118
 2661TIP3   OH229541   3.821   4.318   0.995 -0.2158 -0.0277 -0.3199
 2661TIP3    H129542   3.827   4.235   0.948  0.5687  0.5790 -1.2977
 2661TIP3    H229543   3.905   4.360   0.981  0.3081 -0.1467  2.2309
 2662TIP3   OH229544   2.461   5.769   7.560 -0.1772  0.4555  0.6947
 2662TIP3    H129545   2.523   5.781   7.489  0.0681  1.8239  1.1279
 2662TIP3    H229546   2.487   5.686   7.601  0.8478  0.6090  0.3647
 2663TIP3   OH229547   2.157   3.077   7.934 -0.3363  0.2764 -0.0685
 2663TIP3    H129548   2.072   3.098   7.972 -0.3620 -0.3306  0.2069
 2663TIP3    H229549   2.218   3.137   7.978 -0.4952  0.1500  0.3268
 2664TIP3   OH229550   1.965   6.686   0.043 -0.1995  0.5191  0.5495
 2664TIP3    H129551   2.036   6.720   0.096  2.2027 -2.5657 -0.5352
 2664TIP3    H229552   1.924   6.763   0.004  2.2301  2.3722  1.5828
 2665TIP3   OH229553   4.652   6.083   7.129  0.2005  0.3757  0.0658
 2665TIP3    H129554   4.653   6.015   7.061 -0.7757 -0.1411  0.5492
 2665TIP3    H229555   4.744   6.098   7.150  0.4327 -0.7183 -0.1381
 2666TIP3   OH229556   3.489   5.236   1.808  0.1780  0.4390 -0.2353
 2666TIP3    H129557   3.436   5.294   1.863 -1.5977 -1.1043 -0.2531
 2666TIP3    H229558   3.463   5.148   1.835 -0.7269 -0.3581 -3.5082
 2667TIP3   OH229559   1.417   7.032   7.447  0.0475  0.7971 -0.3127
 2667TIP3    H129560   1.329   7.065   7.468  0.3163  2.7429 -2.0644
 2667TIP3    H229561   1.407   6.993   7.360  0.6318 -0.2937  0.0920
 2668TIP3   OH229562   4.758   0.209   0.430  0.1211 -0.0116  0.3653
 2668TIP3    H129563   4.803   0.260   0.363 -0.4020  1.6776  1.2981
 2668TIP3    H229564   4.754   0.120   0.393  0.3139  0.7776 -1.6061
 2669TIP3   OH229565   2.969   0.461   6.679 -0.1155  0.4558  0.3733
 2669TIP3    H129566   2.936   0.520   6.611  1.5170  0.7236 -0.1963
 2669TIP3    H229567   2.914   0.479   6.755 -1.7853  0.3591 -0.7829
 2670TIP3   OH229568   0.525   3.924   7.641 -0.0731 -0.0878 -0.1021
 2670TIP3    H129569   0.499   3.992   7.579 -1.0329 -1.6748 -1.4816
 2670TIP3    H229570   0.581   3.866   7.591  0.7510 -0.3270  1.0690
 2671TIP3   OH229571   3.348   1.133   0.347  0.8907 -0.0848 -0.4994
 2671TIP3    H129572   3.271   1.106   0.297  0.2616  0.3359  0.2325
 2671TIP3    H229573   3.419   1.133   0.283  0.0752  0.5476 -1.4121
 2672TIP3   OH229574   1.728   0.305   6.454 -0.1748  0.3213 -0.2598
 2672TIP3    H129575   1.671   0.248   6.403  0.5073 -0.9699  0.4015
 2672TIP3    H229576   1.760   0.370   6.391 -2.0727  0.8565 -0.7199
 2673TIP3   OH229577   3.470   0.513   7.001 -0.3264  0.1591  0.1655
 2673TIP3    H129578   3.432   0.425   7.014  1.5129 -0.4664  1.4980
 2673TIP3    H229579   3.564   0.499   7.009  0.1603  1.7980 -2.5512
 2674TIP3   OH229580   1.869   0.981   6.513  0.4018 -0.0279 -0.0106
 2674TIP3    H129581   1.791   0.971   6.458  1.6539 -0.0567 -1.7932
 2674TIP3    H229582   1.863   1.072   6.544 -0.7874 -0.2906  0.5774
 2675TIP3   OH229583   1.366   0.452   0.010  0.2272  0.1888 -0.0658
 2675TIP3    H129584   1.380   0.382   0.074 -1.5377  0.0460  0.1993
 2675TIP3    H229585   1.329   0.408  -0.066 -0.9044  0.8207  0.1101
 2676TIP3   OH229586   2.643   1.367   1.127  0.1582  0.4048 -0.5922
 2676TIP3    H129587   2.721   1.317   1.150 -0.7515  0.4988  2.9040
 2676TIP3    H229588   2.585   1.304   1.084  0.5872 -0.6202  0.3289
 2677TIP3   OH229589   0.733   6.810   6.600  0.0984 -0.4238 -0.4847
 2677TIP3    H129590   0.648   6.849   6.577  0.5054  0.7192 -0.0748
 2677TIP3    H229591   0.750   6.747   6.529 -0.8258 -0.2668 -0.8600
 2678TIP3   OH229592   3.254   4.990   6.333  0.3871 -1.2375  0.4151
 2678TIP3    H129593   3.255   5.065   6.272  0.1337 -0.1525  1.7141
 2678TIP3    H229594   3.290   4.918   6.283 -0.3023 -0.4900 -1.2034
 2679TIP3   OH229595   3.799   6.937   1.220  0.0497 -0.3798  0.3215
 2679TIP3    H129596   3.857   6.877   1.172 -1.2389 -1.3392 -0.0567
 2679TIP3    H229597   3.853   7.015   1.234  0.5161 -0.0810 -2.6368
 2680TIP3   OH229598   1.739   5.936   6.301 -0.2310  0.5659  0.1347
 2680TIP3    H129599   1.742   6.030   6.316  0.8182  0.8080 -1.4081
 2680TIP3    H229600   1.792   5.899   6.371  2.6807  1.4720 -1.4926
 2681TIP3   OH229601   3.503   6.212   6.757 -0.2353 -0.5315  0.1215
 2681TIP3    H129602   3.440   6.166   6.812 -0.4667 -1.8351 -1.2240
 2681TIP3    H229603   3.560   6.144   6.723  0.3165  0.3493 -0.7396
 2682TIP3   OH229604   4.007   0.439   0.322 -0.4006  0.0693  0.0316
 2682TIP3    H129605   4.068   0.422   0.251 -1.1410  0.1362 -0.6286
 2682TIP3    H229606   3.991   0.353   0.362 -0.0289  0.0257  0.0881
 2683TIP3   OH229607   1.215   6.450   6.298  0.4890  0.1919 -0.1219
 2683TIP3    H129608   1.297   6.421   6.257  0.1597 -0.6921 -0.1675
 2683TIP3    H229609   1.157   6.469   6.225  0.2275 -0.4322 -0.0786
 2684TIP3   OH229610   4.589   6.814   6.296  0.4964  0.2136  0.2999
 2684TIP3    H129611   4.535   6.746   6.256  0.0136  1.2506 -0.8444
 2684TIP3    H229612   4.526   6.874   6.335  0.8825  0.5362  0.4304
 2685TIP3   OH229613   4.439   1.007   7.088 -0.5383 -0.4411  0.0126
 2685TIP3    H129614   4.376   1.001   7.160 -1.6709  0.1554 -0.9120
 2685TIP3    H229615   4.385   1.001   7.009  0.4083  1.6095 -0.8143
 2686TIP3   OH229616   3.360   4.958   6.581  0.4309 -0.1950 -0.2440
 2686TIP3    H129617   3.307   4.971   6.502 -1.5709 -0.1132  1.0675
 2686TIP3    H229618   3.425   4.892   6.556  0.8348  0.9758 -2.4011
 2687TIP3   OH229619   0.794   4.185   1.104  0.0664  0.3203 -0.2083
 2687TIP3    H129620   0.785   4.160   1.196 -0.0572  0.9630 -0.0427
 2687TIP3    H229621   0.823   4.105   1.060  0.4673  0.1013  0.4450
 2688TIP3   OH229622   4.642   5.708   1.419  0.7126  0.0714  0.0902
 2688TIP3    H129623   4.699   5.636   1.392  2.1767  1.2876 -0.1197
 2688TIP3    H229624   4.613   5.747   1.336 -1.0355 -1.0024  0.1835
 2689TIP3   OH229625   0.705   7.025   6.779  0.3910  0.0271  0.3858
 2689TIP3    H129626   0.768   6.960   6.751 -2.0111 -2.1059 -0.2789
 2689TIP3    H229627   0.722   7.102   6.725  0.2329 -1.6884 -2.1518
 2690TIP3   OH229628   1.326   0.069   8.094 -0.2174 -0.6804 -0.2641
 2690TIP3    H129629   1.235   0.070   8.123 -0.7354 -0.0510 -1.8901
 2690TIP3    H229630   1.377   0.063   8.175 -1.6554  0.2186  0.7187
 2691TIP3   OH229631   2.208   3.915   8.106  0.7164  0.0201 -1.1734
 2691TIP3    H129632   2.128   3.963   8.085 -0.8052 -1.5759  0.6973
 2691TIP3    H229633   2.225   3.861   8.029 -0.4384 -0.1436 -1.3272
 2692TIP3   OH229634   1.868   6.464   8.160  0.0074  0.4737  0.2339
 2692TIP3    H129635   1.956   6.427   8.173  0.3235  0.8220 -0.8550
 2692TIP3    H229636   1.811   6.410   8.214  0.2847 -2.2707 -2.1603
 2693TIP3   OH229637   1.838   5.198   6.420  0.1142  0.1136 -0.7097
 2693TIP3    H129638   1.761   5.142   6.417  0.7047 -0.7050 -0.6285
 2693TIP3    H229639   1.853   5.223   6.329 -0.8608  1.1322 -0.6070
 2694TIP3   OH229640   2.186   5.591   8.236 -0.0331 -0.5108  0.2456
 2694TIP3    H129641   2.184   5.686   8.249 -1.9465 -0.5553  0.5074
 2694TIP3    H229642   2.234   5.579   8.154  0.1641  0.6836  0.1706
 2695TIP3   OH229643   4.600   5.297   7.004  0.0012 -0.2080  0.1624
 2695TIP3    H129644   4.663   5.299   6.932 -0.4305  1.1544 -0.2069
 2695TIP3    H229645   4.624   5.371   7.059 -1.0523  0.1327  0.1918
 2696TIP3   OH229646   3.131   0.019   5.815 -0.6343 -0.6398 -0.3978
 2696TIP3    H129647   3.141  -0.061   5.762  1.6042 -0.3873 -0.3997
 2696TIP3    H229648   3.205   0.017   5.874 -0.5944  1.4501 -0.3674
 2697TIP3   OH229649   3.816   3.888   6.528 -0.0565  0.2931 -0.0436
 2697TIP3    H129650   3.810   3.875   6.434 -2.4841 -1.0355  0.2677
 2697TIP3    H229651   3.834   3.801   6.564 -1.7677  0.3175  0.9163
 2698TIP3   OH229652   0.555   5.961   6.368 -0.0983 -0.1671 -0.3717
 2698TIP3    H129653   0.647   5.986   6.363  0.4185 -1.7159  1.1150
 2698TIP3    H229654   0.509   6.029   6.319  1.6816  1.4248  0.1370
 2699TIP3   OH229655   3.835   5.674   0.075  0.0039 -0.2598 -0.2105
 2699TIP3    H129656   3.847   5.769   0.083 -0.0496 -0.3343  0.7108
 2699TIP3    H229657   3.884   5.637   0.147  0.7909 -0.9992 -1.1148
 2700TIP3   OH229658   1.858   7.155   6.652 -0.2817 -0.1775  0.0416
 2700TIP3    H129659   1.935   7.213   6.649  1.1903 -2.0786  0.5399
 2700TIP3    H229660   1.808   7.178   6.573  1.6802 -0.1163 -1.2179
 2701TIP3   OH229661   2.897   4.769   6.305  0.1986 -0.1584  0.1237
 2701TIP3    H129662   2.948   4.694   6.273  1.0122 -0.0082  1.0438
 2701TIP3    H229663   2.812   4.732   6.327  0.2643 -0.6245 -0.3836
 2702TIP3   OH229664   5.855   5.764   7.495  0.1407 -0.4477 -0.6719
 2702TIP3    H129665   5.877   5.757   7.403  0.4859  1.4318 -0.7430
 2702TIP3    H229666   5.903   5.692   7.537  1.0840 -0.4554 -1.7524
 2703TIP3   OH229667   3.052   4.293   6.598 -0.4162 -0.3617 -0.1314
 2703TIP3    H129668   2.957   4.296   6.604 -0.5730 -2.5247 -1.2487
 2703TIP3    H229669   3.071   4.226   6.533  1.9387 -1.9713  2.0731
 2704TIP3   OH229670   2.681   5.315   0.065 -0.2446  0.0763 -0.2391
 2704TIP3    H129671   2.754   5.316   0.003 -0.5012  1.7473 -0.5561
 2704TIP3    H229672   2.720   5.284   0.147  0.2492 -1.4863 -1.0525
 2705TIP3   OH229673   0.857   6.949   0.313 -0.4162  0.4537 -0.0922
 2705TIP3    H129674   0.792   7.005   0.270 -3.3218 -2.2008  0.6077
 2705TIP3    H229675   0.875   6.993   0.396 -1.5704  1.0896 -0.1600
 2706TIP3   OH229676   3.799   6.564   7.185 -0.4733  0.4295 -0.4478
 2706TIP3    H129677   3.841   6.646   7.211 -3.5574  1.3282  1.8621
 2706TIP3    H229678   3.754   6.586   7.103  0.1379  0.5461 -0.7606
 2707TIP3   OH229679   2.153   4.544   1.895  0.0038  0.5218 -0.2067
 2707TIP3    H129680   2.171   4.487   1.820 -0.8871  0.8585 -0.6776
 2707TIP3    H229681   2.214   4.514   1.962  3.3879  2.5598 -2.2222
 2708TIP3   OH229682   3.147   5.458   0.030 -0.4924  0.4777  0.1046
 2708TIP3    H129683   3.125   5.424   0.117  2.6195 -0.0464  0.7465
 2708TIP3    H229684   3.165   5.379  -0.022 -1.0959  0.8495 -0.6768
 2709TIP3   OH229685   4.895   0.136   7.386 -0.3669  0.3942 -0.2336
 2709TIP3    H129686   4.961   0.188   7.432 -0.7167 -0.1577  0.9171
 2709TIP3    H229687   4.885   0.057   7.440  0.3738 -1.0054 -2.0959
 2710TIP3   OH229688   3.443   2.332   0.554 -0.4061  0.1359  0.2037
 2710TIP3    H129689   3.347   2.325   0.563 -0.1524 -2.0314  1.8333
 2710TIP3    H229690   3.468   2.400   0.616 -0.7095 -0.8364  1.4319
 2711TIP3   OH229691   3.445   6.066   8.052  0.0868 -0.1466  0.4236
 2711TIP3    H129692   3.381   6.006   8.090 -2.5837  1.8725 -0.7868
 2711TIP3    H229693   3.426   6.151   8.093  1.3645  0.6856 -0.6573
 2712TIP3   OH229694   4.122   0.276   7.882 -0.2976  0.0700 -0.5553
 2712TIP3    H129695   4.109   0.362   7.843  0.6570  0.3762 -0.1948
 2712TIP3    H229696   4.216   0.270   7.898 -0.3138 -1.1683 -0.8697
 2713TIP3   OH229697   2.693   6.987   5.744 -0.2147 -0.0068 -0.4311
 2713TIP3    H129698   2.671   7.078   5.722 -0.4093  0.3268  1.0668
 2713TIP3    H229699   2.609   6.947   5.768 -0.2274 -0.7785 -1.7461
 2714TIP3   OH229700   3.372   1.462   6.358 -0.2174  0.2350 -0.1554
 2714TIP3    H129701   3.431   1.528   6.393 -0.3320  0.1822  0.1443
 2714TIP3    H229702   3.296   1.465   6.417  0.5186 -1.3845  0.9407
 2715TIP3   OH229703   2.078   6.856   5.979 -0.0961 -0.5581 -0.1111
 2715TIP3    H129704   2.129   6.780   6.006  1.7908  0.2206 -1.3917
 2715TIP3    H229705   2.138   6.930   5.988 -1.9015  0.7946  1.1137
 2716TIP3   OH229706   4.423   5.364   8.362  0.3236 -0.3131  0.0438
 2716TIP3    H129707   4.508   5.329   8.387  0.4689  0.3256  0.4772
 2716TIP3    H229708   4.386   5.398   8.444  0.1726  0.4772 -0.3435
 2717TIP3   OH229709   0.075   6.766   0.422  0.0158 -0.0569 -0.0105
 2717TIP3    H129710   0.161   6.728   0.439 -0.1511 -1.4256 -2.0860
 2717TIP3    H229711   0.013   6.704   0.462 -0.1563 -0.8772 -1.5287
 2718TIP3   OH229712   1.411   0.990   7.617  0.1492 -0.7285  0.4051
 2718TIP3    H129713   1.333   0.965   7.567  0.4481 -2.4843  0.7625
 2718TIP3    H229714   1.377   1.044   7.688 -0.6483 -0.7767  0.0689
 2719TIP3   OH229715   2.228   6.242   6.148  0.6569 -0.7834  0.9472
 2719TIP3    H129716   2.277   6.304   6.202  2.0632 -1.7288  0.7992
 2719TIP3    H229717   2.294   6.204   6.090 -0.8929  0.4554 -1.7091
 2720TIP3   OH229718   6.029   6.566   8.373 -0.3349  0.0415 -0.2408
 2720TIP3    H129719   6.109   6.566   8.319 -0.7121 -1.5601 -0.8414
 2720TIP3    H229720   5.971   6.504   8.329 -1.8599  1.0640  0.2912
 2721TIP3   OH229721   1.785   7.216   6.407  0.0994 -0.1085 -0.1467
 2721TIP3    H129722   1.715   7.270   6.370  1.1141  0.8969 -0.6077
 2721TIP3    H229723   1.812   7.159   6.335 -1.2958 -1.6326  0.4655
 2722TIP3   OH229724   0.900   3.289   0.288 -0.1069 -0.4228  0.0726
 2722TIP3    H129725   0.833   3.268   0.352  0.6738 -0.9194  0.7350
 2722TIP3    H229726   0.945   3.206   0.271  0.1378 -0.1595 -0.5924
 2723TIP3   OH229727   2.690   3.765   0.391  0.1143 -0.7822 -0.0389
 2723TIP3    H129728   2.702   3.671   0.404 -0.1861 -0.7588  0.4138
 2723TIP3    H229729   2.618   3.788   0.449 -1.3982 -0.7153 -1.8925
 2724TIP3   OH229730   1.489   5.956   6.598  0.5969  0.4826 -0.0000
 2724TIP3    H129731   1.472   6.049   6.581 -2.9600  0.2388  1.7360
 2724TIP3    H229732   1.486   5.915   6.512 -2.7374  1.3127 -0.3554
 2725TIP3   OH229733   7.252   0.945   7.525 -0.5324 -0.0158  0.6866
 2725TIP3    H129734   7.198   0.989   7.590 -1.1428 -1.5920  1.2824
 2725TIP3    H229735   7.340   0.944   7.562 -0.5383  0.5794  0.7187
 2726TIP3   OH229736   1.739   2.570   7.144 -0.5665 -0.1749  0.0423
 2726TIP3    H129737   1.770   2.496   7.092 -1.3471 -0.9316  0.6340
 2726TIP3    H229738   1.662   2.602   7.097 -1.2332 -0.8173  0.6761
 2727TIP3   OH229739   2.127   1.160   6.615  0.2989  0.4133  0.4044
 2727TIP3    H129740   2.150   1.180   6.706  0.1512 -2.3996  1.0819
 2727TIP3    H229741   2.052   1.217   6.596  0.0985  0.7531  2.1636
 2728TIP3   OH229742   7.223   5.836   8.248 -0.1790  0.1773  0.0009
 2728TIP3    H129743   7.250   5.784   8.172 -0.5904 -1.2030  0.7824
 2728TIP3    H229744   7.301   5.839   8.303 -0.5188 -0.6652  0.5312
 2729TIP3   OH229745   2.875   0.893   7.748  0.0912  0.0677  0.5194
 2729TIP3    H129746   2.906   0.962   7.807 -0.9490  0.2926  0.8111
 2729TIP3    H229747   2.875   0.814   7.802  0.4959 -0.0044  0.4164
 2730TIP3   OH229748   3.867   1.492   1.401  0.3886 -0.7069 -0.3929
 2730TIP3    H129749   3.843   1.566   1.346 -0.9820 -0.0546  1.0448
 2730TIP3    H229750   3.892   1.423   1.339 -2.2155 -0.3727 -1.9193
 2731TIP3   OH229751   3.593   5.705   6.813 -0.1627 -0.5945 -0.7951
 2731TIP3    H129752   3.551   5.705   6.727 -0.8590 -2.3072 -0.4837
 2731TIP3    H229753   3.527   5.667   6.871  1.0440 -1.3470  0.1004
 2732TIP3   OH229754   6.802   6.156   0.481 -0.3173  0.0903  0.5511
 2732TIP3    H129755   6.876   6.095   0.490 -1.6359 -1.6475 -0.0054
 2732TIP3    H229756   6.726   6.103   0.506 -1.3723  1.8467  1.0745
 2733TIP3   OH229757   1.151   6.212   6.434 -0.1520  0.8296  0.0774
 2733TIP3    H129758   1.138   6.272   6.361  1.4797 -1.6403 -2.3827
 2733TIP3    H229759   1.240   6.180   6.423 -0.8800 -1.8414  1.3915
 2734TIP3   OH229760   2.995   6.223   0.335 -0.7625 -0.8026  0.7213
 2734TIP3    H129761   3.004   6.148   0.277  2.3707  0.3996 -0.4343
 2734TIP3    H229762   3.021   6.191   0.421  3.0119 -0.5024 -0.2369
 2735TIP3   OH229763   0.539   6.826   7.207 -0.4181  0.6947  0.2565
 2735TIP3    H129764   0.601   6.804   7.276 -0.8643 -0.2449  0.3658
 2735TIP3    H229765   0.477   6.753   7.206 -0.5708  0.8202 -0.9577
 2736TIP3   OH229766   3.714   2.462   8.002  0.4244 -0.1288  0.0208
 2736TIP3    H129767   3.765   2.528   8.049 -0.7817 -0.5005  1.9122
 2736TIP3    H229768   3.629   2.502   7.989  1.1826  0.5527 -3.2881
 2737TIP3   OH229769   3.726   5.822   1.751  0.3653 -0.1104  0.6054
 2737TIP3    H129770   3.714   5.842   1.658 -1.0633  1.4124  1.0790
 2737TIP3    H229771   3.690   5.734   1.762  2.3692 -1.1226 -0.6393
 2738TIP3   OH229772   2.402   0.131   7.615 -0.2307 -0.5168 -0.2616
 2738TIP3    H129773   2.321   0.182   7.617 -0.9127 -1.5870 -0.3563
 2738TIP3    H229774   2.472   0.197   7.616 -1.1096  0.4646 -1.6012
 2739TIP3   OH229775   4.798   5.784   0.842  0.4496 -0.6556  0.7928
 2739TIP3    H129776   4.773   5.874   0.823  2.1338 -0.0118  1.4752
 2739TIP3    H229777   4.744   5.731   0.784  0.8322  0.9077 -1.0573
 2740TIP3   OH229778   3.020   3.514   8.398  0.6830 -0.2840 -0.6085
 2740TIP3    H129779   3.080   3.564   8.455 -0.0336  0.6800 -0.6870
 2740TIP3    H229780   2.990   3.578   8.334 -1.8107 -0.3084  0.4877
 2741TIP3   OH229781   0.940   6.997   6.561  0.5484 -0.0177 -0.2317
 2741TIP3    H129782   0.886   6.918   6.559 -0.6070  0.6718  2.1207
 2741TIP3    H229783   0.928   7.037   6.474 -1.3543 -0.7652 -0.3311
 2742TIP3   OH229784   6.911   0.308   6.120 -0.5887 -0.0611 -0.0163
 2742TIP3    H129785   6.929   0.391   6.164  0.1013  0.9135 -2.0349
 2742TIP3    H229786   6.996   0.264   6.115 -0.9448 -0.8701  1.0013
 2743TIP3   OH229787   1.630   5.887   6.810  0.5412 -0.4721  0.4950
 2743TIP3    H129788   1.572   5.911   6.738  0.6926 -0.7207  0.2874
 2743TIP3    H229789   1.711   5.858   6.766  0.5076 -0.9581  0.7521
 2744TIP3   OH229790   5.090   0.610   1.497 -0.0984 -1.0224 -0.5731
 2744TIP3    H129791   5.090   0.667   1.574  0.2465 -0.6662 -0.8343
 2744TIP3    H229792   5.183   0.588   1.484 -0.2371 -1.7216 -0.4162
 2745TIP3   OH229793   1.473   0.509   7.899 -0.1043 -0.2544  0.0601
 2745TIP3    H129794   1.421   0.431   7.883  0.2237 -0.3114 -0.7400
 2745TIP3    H229795   1.554   0.477   7.939 -0.9644 -0.1028  1.9517
 2746TIP3   OH229796   2.498   5.259   7.353  0.1782 -0.1458 -0.0986
 2746TIP3    H129797   2.422   5.224   7.399  0.8592  0.1654  1.3228
 2746TIP3    H229798   2.477   5.351   7.339 -1.1242 -0.8256 -2.7875
 2747TIP3   OH229799   2.717   0.200   7.867  0.2295  0.0100 -0.2994
 2747TIP3    H129800   2.706   0.157   7.782  1.2920  0.9036 -0.9027
 2747TIP3    H229801   2.794   0.157   7.906  0.2348  0.1574 -0.1451
 2748TIP3   OH229802   2.013   4.221   6.837 -0.6417  0.0421 -0.0554
 2748TIP3    H129803   1.980   4.305   6.805  2.1827  0.6167 -1.5498
 2748TIP3    H229804   2.106   4.236   6.854 -0.4613 -2.3282  1.3002
 2749TIP3   OH229805   3.969   5.016   0.536 -0.3314  0.4259 -0.4440
 2749TIP3    H129806   3.942   5.054   0.620  2.5277  1.5215  0.0275
 2749TIP3    H229807   3.961   4.922   0.549 -0.5057  0.6090  0.8747
 2750TIP3   OH229808   5.631   0.899   7.650  0.0652 -0.1069 -0.6932
 2750TIP3    H129809   5.624   0.837   7.577 -0.0496 -1.7662  0.6992
 2750TIP3    H229810   5.675   0.849   7.719 -0.3958  1.2418  0.5911
 2751TIP3   OH229811   1.815   6.375   7.905  0.0894  0.4359  0.8063
 2751TIP3    H129812   1.801   6.416   7.991 -1.9490 -0.4805  0.9488
 2751TIP3    H229813   1.775   6.288   7.914 -0.9514  0.6598 -1.3478
 2752TIP3   OH229814   1.606   6.360   6.831 -0.1681  0.4396 -0.0554
 2752TIP3    H129815   1.524   6.398   6.865 -0.5281 -1.1743  0.8898
 2752TIP3    H229816   1.611   6.274   6.871  2.1899  0.6484  0.1503
 2753TIP3   OH229817   1.432   6.340   6.171  0.5035 -0.2412  0.0502
 2753TIP3    H129818   1.471   6.253   6.163  2.2676  0.3724  1.8119
 2753TIP3    H229819   1.499   6.399   6.137  0.1418  0.6198  0.8277
 2754TIP3   OH229820   2.635   3.127   8.407 -0.3152  0.2498 -0.1329
 2754TIP3    H129821   2.695   3.097   8.339  0.7191  1.4866  0.2150
 2754TIP3    H229822   2.655   3.220   8.417 -1.3196  0.3537  0.9828
 2755TIP3   OH229823   1.860   6.333   7.273 -0.1362 -0.0270  0.1083
 2755TIP3    H129824   1.895   6.308   7.187 -0.6375  0.9353 -0.3889
 2755TIP3    H229825   1.832   6.250   7.312  1.4611 -0.6508 -0.0336
 2756TIP3   OH229826   3.047   5.238   0.885 -0.5187 -0.1625 -0.1639
 2756TIP3    H129827   3.049   5.297   0.960  0.4605 -1.5973  0.9700
 2756TIP3    H229828   3.105   5.278   0.820 -0.9500  0.8120  0.0490
 2757TIP3   OH229829   1.904   6.520   7.558  0.0317 -0.3001  0.6426
 2757TIP3    H129830   1.920   6.426   7.549  0.7774 -0.1971  0.8859
 2757TIP3    H229831   1.991   6.559   7.565 -0.3067  0.3276  1.3731
 2758TIP3   OH229832   2.600   0.528   6.714 -0.2785 -0.2453  0.3572
 2758TIP3    H129833   2.615   0.611   6.668 -0.0708  0.3903  1.5678
 2758TIP3    H229834   2.643   0.462   6.660 -0.5559  0.4130 -0.6801
 2759TIP3   OH229835   3.013   4.487   1.221  0.0610 -0.3896  0.2418
 2759TIP3    H129836   3.095   4.454   1.186 -0.7814 -1.6693 -0.5456
 2759TIP3    H229837   3.018   4.582   1.210  0.9858 -0.5540 -0.7544
 2760TIP3   OH229838   5.439   2.789   1.464 -0.2050 -0.1196  0.8174
 2760TIP3    H129839   5.433   2.864   1.523 -0.7325  0.8441 -0.4404
 2760TIP3    H229840   5.522   2.802   1.417 -0.5116 -0.0889  0.2800
 2761TIP3   OH229841   4.114   4.901   7.920  0.2769  0.0416  0.1017
 2761TIP3    H129842   4.084   4.889   8.010  1.0360  0.9084  0.4779
 2761TIP3    H229843   4.188   4.841   7.911 -0.1827 -0.4928 -0.1400
 2762TIP3   OH229844   3.328   0.260   7.022 -0.4479  0.2236 -0.6478
 2762TIP3    H129845   3.292   0.174   7.042 -1.0193  0.7575  0.7021
 2762TIP3    H229846   3.284   0.286   6.941 -1.5919 -0.0082 -0.1178
 2763TIP3   OH229847   3.569   4.886   0.869 -0.4520  0.0167 -0.3866
 2763TIP3    H129848   3.617   4.879   0.787  1.7645  1.1576  0.7757
 2763TIP3    H229849   3.586   4.803   0.914 -1.1421 -0.3452 -0.7776
 2764TIP3   OH229850   0.189   0.363   6.312 -0.0601  0.2676 -0.7562
 2764TIP3    H129851   0.171   0.365   6.406 -0.1757  0.6688 -0.7866
 2764TIP3    H229852   0.115   0.409   6.273  0.5544  1.0997 -0.9570
 2765TIP3   OH229853   3.389   5.524   6.925  0.0844  0.6679 -0.6544
 2765TIP3    H129854   3.415   5.432   6.922 -1.1757  0.1986  1.6827
 2765TIP3    H229855   3.324   5.533   6.855 -0.8872 -0.5977  0.0630
 2766TIP3   OH229856   1.474   4.881   7.832 -0.4274  0.3616  0.2023
 2766TIP3    H129857   1.400   4.890   7.893 -0.5315 -1.2127  0.3388
 2766TIP3    H229858   1.480   4.966   7.788 -1.9281  0.7087  0.6419
 2767TIP3   OH229859   1.556   5.753   7.075  0.2529 -0.4067  0.4177
 2767TIP3    H129860   1.556   5.662   7.046 -0.7866 -0.2995  0.0665
 2767TIP3    H229861   1.557   5.804   6.994  0.6843 -0.0955  0.6128
 2768TIP3   OH229862   0.959   0.930   0.056  0.3416  0.2533 -0.4727
 2768TIP3    H129863   0.917   0.858   0.011 -2.5811  1.1499  0.6843
 2768TIP3    H229864   0.967   0.901   0.147 -1.5667  1.6160  0.1698
 2769TIP3   OH229865   5.212   6.653   1.865 -0.3403  0.0396 -1.0825
 2769TIP3    H129866   5.165   6.621   1.942  1.2915  0.3746  0.0765
 2769TIP3    H229867   5.248   6.737   1.893  1.1005 -0.2995 -1.8861
 2770TIP3   OH229868   3.837   6.324   7.633  0.3416  0.2192 -0.1459
 2770TIP3    H129869   3.854   6.233   7.660 -0.0947  0.0351 -0.4812
 2770TIP3    H229870   3.892   6.336   7.556 -0.3881 -0.1008 -0.7238
 2771TIP3   OH229871   4.081   4.582   1.517  0.1157  0.2794  0.0503
 2771TIP3    H129872   4.060   4.512   1.578 -0.5614  1.4443  1.1887
 2771TIP3    H229873   4.148   4.634   1.563  0.6876  0.3196 -0.8237
 2772TIP3   OH229874   2.864   6.864   7.043  0.6934 -0.5193 -0.2077
 2772TIP3    H129875   2.884   6.938   7.101 -2.4799 -1.3563  2.0723
 2772TIP3    H229876   2.890   6.894   6.956  0.1853  2.9854  0.7714
 2773TIP3   OH229877   1.347   4.667   6.972  0.0133  0.3206 -0.5779
 2773TIP3    H129878   1.296   4.632   7.045  1.4352 -1.7580 -0.5284
 2773TIP3    H229879   1.289   4.664   6.897 -0.1748 -1.3637 -0.3761
 2774TIP3   OH229880   2.092   6.261   7.875 -0.4567  0.2385 -0.0216
 2774TIP3    H129881   2.021   6.280   7.814 -0.4715 -0.5181 -0.2462
 2774TIP3    H229882   2.052   6.207   7.943 -0.0781 -0.2820 -0.2045
 2775TIP3   OH229883   0.602   0.394   7.465 -0.0529  0.3281  0.6931
 2775TIP3    H129884   0.545   0.397   7.388  0.0538 -1.0831  0.5490
 2775TIP3    H229885   0.690   0.385   7.429  0.1275  1.0505  0.9518
 2776TIP3   OH229886   3.506   3.712   6.440  0.4422 -0.3532  0.0627
 2776TIP3    H129887   3.504   3.617   6.451  0.7349 -0.7178 -2.6895
 2776TIP3    H229888   3.590   3.729   6.396  0.1997  1.1478  0.1429
 2777TIP3   OH229889   0.323   4.922   7.935  0.3353 -0.4704 -0.1466
 2777TIP3    H129890   0.385   4.849   7.928 -0.4514 -1.0100 -1.7959
 2777TIP3    H229891   0.294   4.937   7.845  0.3046  1.7271  0.2057
 2778TIP3   OH229892   5.886   6.914   7.655 -0.3439 -0.3627  0.6846
 2778TIP3    H129893   5.896   6.954   7.569 -1.5211 -2.1562 -0.3191
 2778TIP3    H229894   5.792   6.920   7.673 -0.4412 -2.0307  0.8022
 2779TIP3   OH229895   2.553   0.179   7.045  0.4608 -0.3490  0.4307
 2779TIP3    H129896   2.557   0.274   7.057  0.1108 -0.0898 -1.3940
 2779TIP3    H229897   2.603   0.144   7.119  3.9108  1.4006 -0.9655
 2780TIP3   OH229898   2.414   1.084   7.439 -0.0629 -0.3133  0.2859
 2780TIP3    H129899   2.437   1.157   7.381  0.2250 -2.2655 -2.1437
 2780TIP3    H229900   2.319   1.080   7.435 -0.2407  1.3773  2.2868
 2781TIP3   OH229901   4.367   6.684   7.320 -0.0362 -0.0391  0.1831
 2781TIP3    H129902   4.380   6.648   7.232  1.4194  0.6985  0.0730
 2781TIP3    H229903   4.456   6.707   7.349 -0.5890  0.3991  1.5553
 2782TIP3   OH229904   2.277   4.750   7.209  0.3323 -0.6535 -0.1075
 2782TIP3    H129905   2.251   4.677   7.264 -0.0354 -0.2782  0.2190
 2782TIP3    H229906   2.363   4.775   7.241 -0.1139 -0.0851  0.6581
 2783TIP3   OH229907   3.235   5.489   7.951  0.5350 -0.5107  0.6177
 2783TIP3    H129908   3.170   5.557   7.931  0.6234 -0.8857 -0.9930
 2783TIP3    H229909   3.201   5.446   8.030  0.5733  1.5106  1.7874
 2784TIP3   OH229910   5.324   5.634   6.419 -0.2256  0.0711 -0.7071
 2784TIP3    H129911   5.405   5.602   6.379  0.8751  2.7740 -0.7513
 2784TIP3    H229912   5.282   5.555   6.453  2.9405 -1.2836  0.2796
 2785TIP3   OH229913   4.718   4.136   1.555  0.5959  0.1056 -0.6865
 2785TIP3    H129914   4.713   4.231   1.569  1.9699  0.2175 -0.8716
 2785TIP3    H229915   4.635   4.114   1.513  0.3072  1.2498 -0.7470
 2786TIP3   OH229916   1.830   5.934   6.588 -0.9872  0.0705  0.2914
 2786TIP3    H129917   1.801   6.021   6.615  0.2502  0.8012 -0.6694
 2786TIP3    H229918   1.884   5.903   6.661  0.6470  1.1820 -0.4087
 2787TIP3   OH229919   3.519   3.784   7.061  0.6677  0.6484  0.2161
 2787TIP3    H129920   3.474   3.713   7.015  1.8834 -0.7453  1.1352
 2787TIP3    H229921   3.456   3.856   7.060 -1.4585 -1.1178  1.1168
 2788TIP3   OH229922   0.872   3.979   6.718 -0.7404  0.4529  0.0318
 2788TIP3    H129923   0.918   3.980   6.634  0.1574  1.3545  0.5269
 2788TIP3    H229924   0.786   4.016   6.699 -0.5937  0.5150 -0.5166
 2789TIP3   OH229925   7.245   6.325   5.996 -0.0260 -0.3410  1.1471
 2789TIP3    H129926   7.310   6.299   6.062 -1.6712  1.8306  3.6778
 2789TIP3    H229927   7.287   6.397   5.949  1.0783 -1.7756 -0.1326
 2790TIP3   OH229928   0.114   2.521   0.136 -0.3211  0.2769 -0.0711
 2790TIP3    H129929   0.042   2.583   0.148  0.7163  2.0472 -2.4422
 2790TIP3    H229930   0.081   2.438   0.171 -4.0107  0.7178 -2.1805
 2791TIP3   OH229931   4.030   5.468   0.794 -0.1212  0.5827 -0.5686
 2791TIP3    H129932   4.090   5.394   0.783  0.3086  0.3859  2.6678
 2791TIP3    H229933   3.962   5.436   0.853  0.1595  2.7780  1.0267
 2792TIP3   OH229934   4.548   0.766   1.403  0.6663  0.2468 -0.4016
 2792TIP3    H129935   4.632   0.721   1.412  0.1939 -0.1821  1.9865
 2792TIP3    H229936   4.564   0.854   1.439  0.3132  0.4462 -0.7235
 2793TIP3   OH229937   4.287   7.056   8.132 -0.6262 -0.2128  0.3870
 2793TIP3    H129938   4.377   7.091   8.130  0.1657 -2.2645 -1.9227
 2793TIP3    H229939   4.296   6.971   8.175 -1.7202  0.2088  1.4568
 2794TIP3   OH229940   3.828   6.306   7.304  0.4653  0.0404  0.0769
 2794TIP3    H129941   3.816   6.387   7.254  1.8628  0.5115  0.4758
 2794TIP3    H229942   3.913   6.317   7.347  0.9800 -1.9501 -0.4085
 2795TIP3   OH229943   7.124   0.892   0.411  0.0946 -0.5775  0.0049
 2795TIP3    H129944   7.092   0.892   0.501 -0.4878 -2.4555 -0.1859
 2795TIP3    H229945   7.219   0.907   0.419  0.2450 -1.9748  1.0188
 2796TIP3   OH229946   3.987   2.032   7.041  0.0822 -0.1775  0.2959
 2796TIP3    H129947   4.073   2.015   7.002  0.4609 -1.0489  1.4508
 2796TIP3    H229948   3.963   2.120   7.012  1.2561 -0.0323 -0.2440
 2797TIP3   OH229949   5.640   6.053   7.587 -0.6445 -0.7642  0.5057
 2797TIP3    H129950   5.708   6.105   7.545 -0.3673 -2.7350 -1.6101
 2797TIP3    H229951   5.612   6.105   7.663  0.9593  1.5108 -0.4276
 2798TIP3   OH229952   5.108   6.192   8.080  0.3087 -0.7241 -0.4927
 2798TIP3    H129953   5.151   6.277   8.075 -2.3155  0.6629 -0.6561
 2798TIP3    H229954   5.088   6.170   7.989  1.9935 -2.0727 -0.5452
 2799TIP3   OH229955   3.433   5.466   0.099 -0.4799 -0.1052 -0.7022
 2799TIP3    H129956   3.348   5.500   0.072 -0.7842  0.4137  0.8462
 2799TIP3    H229957   3.418   5.435   0.189  0.7602 -0.7742 -0.7213
 2800TIP3   OH229958   2.643   5.296   6.832  0.1760 -0.4363 -0.0809
 2800TIP3    H129959   2.617   5.263   6.745 -2.4379  1.5670 -0.1476
 2800TIP3    H229960   2.718   5.353   6.815  1.6139 -2.4549 -0.5972
 2801TIP3   OH229961   4.703   6.419   6.475 -0.0428 -0.4670  0.2173
 2801TIP3    H129962   4.651   6.430   6.396 -1.7597  0.2099  1.4251
 2801TIP3    H229963   4.673   6.336   6.512  0.5819 -0.6638  0.2886
 2802TIP3   OH229964   1.842   4.294   6.598 -0.3840  0.1772  0.1223
 2802TIP3    H129965   1.757   4.327   6.570 -0.4054 -0.3175 -0.4188
 2802TIP3    H229966   1.905   4.342   6.544 -0.2959  0.8752  0.8504
 2803TIP3   OH229967   4.494   0.667   6.897  0.0770 -0.2581  0.4048
 2803TIP3    H129968   4.563   0.643   6.835  0.6438 -3.4473  2.1552
 2803TIP3    H229969   4.440   0.730   6.849  1.0566 -1.8841 -3.0022
 2804TIP3   OH229970   3.400   5.552   6.265  0.4308 -0.5544 -0.4601
 2804TIP3    H129971   3.318   5.503   6.262 -0.1153  0.3100 -0.1438
 2804TIP3    H229972   3.375   5.642   6.242  1.4999 -0.5295 -1.5768
 2805TIP3   OH229973   6.485   6.623   6.751 -0.3348  0.8479  1.0630
 2805TIP3    H129974   6.535   6.679   6.810  0.2463 -0.0288  1.4033
 2805TIP3    H229975   6.430   6.570   6.808  1.8096 -1.5745  1.0006
 2806TIP3   OH229976   3.460   0.445   6.641 -0.1066 -0.2975  0.0719
 2806TIP3    H129977   3.403   0.445   6.719 -1.0156  0.8458 -0.5894
 2806TIP3    H229978   3.413   0.390   6.578  0.5625 -1.1061  0.2740
 2807TIP3   OH229979   4.917   0.824   8.153 -0.1226  0.2763  0.6028
 2807TIP3    H129980   4.857   0.857   8.086 -0.7326  1.2292  1.6233
 2807TIP3    H229981   5.003   0.826   8.110 -1.0093 -2.7905 -1.4772
 2808TIP3   OH229982   5.765   0.462   7.167  0.0506  0.9143  0.1303
 2808TIP3    H129983   5.833   0.401   7.139 -1.6131 -2.1630  2.3714
 2808TIP3    H229984   5.714   0.478   7.088  1.4952  0.6786 -0.8634
 2809TIP3   OH229985   0.035   0.432   0.104 -0.4935 -0.1467  0.0283
 2809TIP3    H129986   0.126   0.404   0.112 -1.2410 -2.3851  1.1115
 2809TIP3    H229987   0.015   0.421   0.011  0.8708  2.2174 -0.5976
 2810TIP3   OH229988   6.542   6.484   6.055  0.8063  0.4479 -0.3170
 2810TIP3    H129989   6.495   6.407   6.087  1.0616  0.2569 -0.4009
 2810TIP3    H229990   6.476   6.553   6.051  0.1831 -0.2310 -1.9763
 2811TIP3   OH229991   3.004   7.071   6.130  0.0429 -0.1099 -0.1175
 2811TIP3    H129992   2.982   7.009   6.061  0.3105  0.3915 -0.6520
 2811TIP3    H229993   2.957   7.151   6.107 -0.2320 -0.0810  0.5257
 2812TIP3   OH229994   7.180   6.243   8.179  0.4466  0.7101 -0.3439
 2812TIP3    H129995   7.185   6.269   8.087  2.0237 -0.4672 -0.6042
 2812TIP3    H229996   7.258   6.280   8.220  0.5831 -0.1029  0.1602
 2813TIP3   OH229997   5.769   6.021   0.093 -0.4355 -0.0934 -0.1697
 2813TIP3    H129998   5.736   5.952   0.036 -0.0511 -0.2300 -0.2271
 2813TIP3    H229999   5.857   5.992   0.118 -0.7534 -0.2307  0.8164
 2814TIP3   OH230000   3.399   0.683   6.207  0.4065 -0.5986  0.0036
 2814TIP3    H130001   3.325   0.720   6.256  1.4165  0.2472  0.9140
 2814TIP3    H230002   3.387   0.589   6.214 -1.4754 -0.4632 -1.2207
 2815TIP3   OH230003   4.943   6.677   7.072  0.6122 -0.1965  0.4121
 2815TIP3    H130004   5.036   6.698   7.083  0.4171  1.2232 -0.5615
 2815TIP3    H230005   4.897   6.750   7.114 -0.0772 -0.7851  0.6899
 2816TIP3   OH230006   5.626   2.082   7.170 -0.1000  0.3591 -0.3970
 2816TIP3    H130007   5.671   1.998   7.173  0.0632  0.3650 -2.4995
 2816TIP3    H230008   5.538   2.063   7.203 -0.3768 -0.8414 -1.7953
 2817TIP3   OH230009   6.295   4.665   6.710 -0.0413 -0.1158  0.2546
 2817TIP3    H130010   6.213   4.632   6.673  0.1311  0.0014 -0.2298
 2817TIP3    H230011   6.346   4.694   6.634  0.5670 -0.4572  0.5314
 2818TIP3   OH230012   4.120   0.158   6.843  0.5924  0.4237  0.0723
 2818TIP3    H130013   4.072   0.099   6.902 -2.0555  1.7573 -0.6438
 2818TIP3    H230014   4.136   0.236   6.895  0.0318  0.8262 -0.3558
 2819TIP3   OH230015   4.523   7.243   0.529  0.1025  0.4935  0.7313
 2819TIP3    H130016   4.590   7.237   0.461 -0.9589  0.0614 -0.3041
 2819TIP3    H230017   4.572   7.246   0.611  1.4003  0.8738 -0.0414
 2820TIP3   OH230018   4.985   6.514   6.796 -0.4034 -0.0642  0.3913
 2820TIP3    H130019   4.950   6.453   6.861  0.1332  1.5884  2.2712
 2820TIP3    H230020   5.077   6.522   6.819 -0.2478  0.6480 -0.4868
 2821TIP3   OH230021   4.734   5.704   0.116  0.0480 -0.2449  0.5983
 2821TIP3    H130022   4.667   5.737   0.056 -1.0661 -1.1374  1.3238
 2821TIP3    H230023   4.692   5.628   0.159  1.3101 -0.4490  1.4879
 2822TIP3   OH230024   4.236   0.395   6.994  0.3059 -0.8351  0.0020
 2822TIP3    H130025   4.332   0.393   6.992  0.3184  0.1743 -0.5443
 2822TIP3    H230026   4.214   0.380   7.086  1.0035 -0.4395  0.2376
 2823TIP3   OH230027   0.436   3.198   7.464 -0.4771  0.4367 -0.2414
 2823TIP3    H130028   0.426   3.116   7.512 -0.7122  1.3689  1.3217
 2823TIP3    H230029   0.510   3.182   7.405 -0.0085 -0.6208  0.6168
 2824TIP3   OH230030   2.393   0.824   0.240 -0.3766 -0.4439 -0.1795
 2824TIP3    H130031   2.391   0.796   0.148  0.0100 -0.2719 -0.2414
 2824TIP3    H230032   2.361   0.914   0.238 -0.5262 -0.4969 -0.1266
 2825TIP3   OH230033   4.990   6.708   7.604 -0.0195  0.3398  0.1285
 2825TIP3    H130034   4.946   6.623   7.613  2.9683 -1.2938  0.0425
 2825TIP3    H230035   5.029   6.705   7.517  1.0611  1.3207  0.5667
 2826TIP3   OH230036   6.871   6.076   7.822 -0.3761 -0.0642  0.8658
 2826TIP3    H130037   6.790   6.102   7.779  0.0481 -0.2418 -0.0514
 2826TIP3    H230038   6.926   6.043   7.752 -0.4436 -2.3307  1.8221
 2827TIP3   OH230039   3.552   0.796   1.341 -0.2321 -0.4408  0.3339
 2827TIP3    H130040   3.567   0.704   1.318 -0.0305 -0.7910  1.8214
 2827TIP3    H230041   3.459   0.801   1.362 -0.4215 -0.1153 -0.5474
 2828TIP3   OH230042   3.777   5.063   1.023 -0.3426  0.0928  0.4359
 2828TIP3    H130043   3.682   5.055   1.038 -0.3370 -1.6834 -0.3301
 2828TIP3    H230044   3.816   5.003   1.086  0.2377  0.4600  0.4216
 2829TIP3   OH230045   4.616   6.730   7.421  0.2373  0.4246  0.1460
 2829TIP3    H130046   4.605   6.638   7.447 -1.1607  0.6640  0.4359
 2829TIP3    H230047   4.593   6.780   7.500  0.8385  1.0265 -0.0557
 2830TIP3   OH230048   3.923   5.220   7.419  0.2507  0.7642 -0.1519
 2830TIP3    H130049   3.992   5.251   7.361  0.7179 -0.4430 -0.2573
 2830TIP3    H230050   3.871   5.161   7.365 -1.2362  2.1336 -0.2504
 2831TIP3   OH230051   4.032   0.175   7.616 -0.9667 -0.4196 -0.6996
 2831TIP3    H130052   4.069   0.175   7.704 -2.7585 -0.7503  0.0877
 2831TIP3    H230053   4.092   0.120   7.565  0.8184  0.8635 -0.0357
 2832TIP3   OH230054   3.856   4.746   0.262 -0.4513 -0.1247 -0.0185
 2832TIP3    H130055   3.819   4.659   0.278  1.0967 -0.6336  0.9898
 2832TIP3    H230056   3.903   4.767   0.343 -0.0863  1.2690 -0.5767
 2833TIP3   OH230057   5.065   1.212   6.732 -0.9138  0.0126 -0.0945
 2833TIP3    H130058   5.008   1.265   6.677  0.4140  0.0228 -1.4604
 2833TIP3    H230059   5.063   1.125   6.692 -0.5783 -0.1888  0.3218
 2834TIP3   OH230060   5.409   0.356   0.539  0.2791 -0.2885 -0.1833
 2834TIP3    H130061   5.439   0.440   0.574 -0.5931 -0.6628  1.5265
 2834TIP3    H230062   5.432   0.293   0.607 -0.0276 -1.2815 -0.9972
 2835TIP3   OH230063   5.436   6.914   2.022  0.4566 -0.6847 -0.1175
 2835TIP3    H130064   5.414   6.831   2.064  0.2397  1.0353  3.3541
 2835TIP3    H230065   5.532   6.912   2.015  0.4145 -1.4302 -0.5335
 2836TIP3   OH230066   0.919   5.784   1.246  0.7118  0.0384  0.5874
 2836TIP3    H130067   0.860   5.842   1.294  1.1864  0.6442  0.4339
 2836TIP3    H230068   0.860   5.720   1.205 -0.0551  1.8634 -1.2907
 2837TIP3   OH230069   4.311   5.248   1.706 -0.5089 -0.0120  0.2055
 2837TIP3    H130070   4.233   5.238   1.653 -0.2389  1.6906 -0.5371
 2837TIP3    H230071   4.286   5.217   1.793 -2.2482  1.2522  0.1714
 2838TIP3   OH230072   2.591   6.970   8.421 -0.1771  0.4289 -0.2269
 2838TIP3    H130073   2.672   7.014   8.448 -0.3051 -0.0745  0.9932
 2838TIP3    H230074   2.540   7.039   8.378  0.7680  0.8221 -0.7345
 2839TIP3   OH230075   4.530   0.998   8.186  0.2171  0.5048 -0.4601
 2839TIP3    H130076   4.536   0.956   8.272  0.7724 -0.3220 -0.9070
 2839TIP3    H230077   4.608   1.052   8.180  0.0846  0.7099 -0.3754
 2840TIP3   OH230078   6.952   4.297   0.678 -0.2637 -0.7423 -0.0210
 2840TIP3    H130079   6.944   4.378   0.626 -2.0053 -0.7366  0.2218
 2840TIP3    H230080   7.006   4.323   0.753  2.2024 -0.7243 -1.7292
 2841TIP3   OH230081   7.051   6.825   0.086  0.2585 -0.2974  0.2411
 2841TIP3    H130082   7.113   6.854   0.020  1.9980 -2.4331  0.9000
 2841TIP3    H230083   7.084   6.862   0.168  0.4205 -1.0935  0.5351
 2842TIP3   OH230084   4.176   0.724   6.690  0.1998 -0.3903  0.9963
 2842TIP3    H130085   4.146   0.702   6.601  0.5082 -1.8674  1.2304
 2842TIP3    H230086   4.214   0.811   6.682  0.5280 -0.6446 -0.4102
 2843TIP3   OH230087   3.454   5.149   0.000  0.1241 -0.8482  0.5098
 2843TIP3    H130088   3.445   5.115  -0.089  1.1288 -0.1260  0.1263
 2843TIP3    H230089   3.493   5.236  -0.011  1.3247 -1.2134  1.7229
 2844TIP3   OH230090   6.301   0.469   0.298  0.3236  0.5857  0.0093
 2844TIP3    H130091   6.268   0.410   0.231  0.1494 -0.7215  1.2178
 2844TIP3    H230092   6.371   0.420   0.340 -0.8463  0.6170  2.0495
 2845TIP3   OH230093   2.759   3.626   0.092 -0.4309  0.5263 -0.0580
 2845TIP3    H130094   2.849   3.640   0.064  0.1439 -1.4303  0.6604
 2845TIP3    H230095   2.714   3.708   0.073  0.6796  0.4160 -3.5730
 2846TIP3   OH230096   2.756   2.248   1.645  0.1930  0.3311  0.1215
 2846TIP3    H130097   2.827   2.296   1.604  0.1127 -0.4008 -0.8979
 2846TIP3    H230098   2.679   2.304   1.634 -0.2357 -0.7080 -2.5017
 2847TIP3   OH230099   4.020   5.067   0.266  1.0964  0.3073  0.3337
 2847TIP3    H130100   3.927   5.061   0.242  0.9806  0.9210  0.6295
 2847TIP3    H230101   4.021   5.049   0.360  1.0840  1.9608  0.6580
 2848TIP3   OH230102   0.728   2.603   6.345 -0.1307  0.5147 -0.2241
 2848TIP3    H130103   0.771   2.666   6.403 -0.1150  0.0966  0.2289
 2848TIP3    H230104   0.694   2.655   6.272 -0.4315  1.0961  0.3263
 2849TIP3   OH230105   4.710   6.612   8.179 -0.2678  0.5096 -0.6845
 2849TIP3    H130106   4.753   6.685   8.223 -1.2728 -0.0641  1.3229
 2849TIP3    H230107   4.782   6.558   8.147  0.5081  0.7624  0.5902
 2850TIP3   OH230108   3.650   4.992   6.351 -0.1571  0.1101  0.1739
 2850TIP3    H130109   3.578   5.016   6.292  0.9967  1.0442 -0.8872
 2850TIP3    H230110   3.663   4.898   6.336 -0.2783  0.2160 -0.6201
 2851TIP3   OH230111   4.113   3.754   7.273 -0.5451  0.0565 -0.4940
 2851TIP3    H130112   4.174   3.782   7.205  0.2667 -1.4579 -0.4020
 2851TIP3    H230113   4.083   3.668   7.245  1.1134 -1.3640  1.8763
 2852TIP3   OH230114   4.620   6.065   1.243 -0.0614  0.4301  0.1782
 2852TIP3    H130115   4.628   6.071   1.148 -0.7087  0.2642  0.1116
 2852TIP3    H230116   4.551   6.001   1.258 -1.3275  1.8757  0.7206
 2853TIP3   OH230117   4.249   5.650   7.781  0.4616  0.7261 -0.4101
 2853TIP3    H130118   4.171   5.703   7.761  1.7881  3.0253  0.3874
 2853TIP3    H230119   4.229   5.609   7.865 -0.7067 -0.3617 -1.1860
 2854TIP3   OH230120   3.746   6.266   6.923 -0.2219 -0.1213  0.0437
 2854TIP3    H130121   3.740   6.293   6.832 -1.0703  0.0747  0.1561
 2854TIP3    H230122   3.677   6.315   6.968 -0.6155 -1.1318  0.5649
 2855TIP3   OH230123   1.054   5.980   7.565 -0.2700  0.4370 -0.0882
 2855TIP3    H130124   1.070   6.039   7.639  1.3005  0.4071 -0.3682
 2855TIP3    H230125   0.965   6.000   7.537 -0.5849  1.0306  1.2898
 2856TIP3   OH230126   7.125   0.792   1.732 -0.2287 -0.1969  0.6256
 2856TIP3    H130127   7.154   0.745   1.811 -0.0934 -0.4308  0.4357
 2856TIP3    H230128   7.030   0.802   1.745 -0.2740 -0.6006  0.6266
 2857TIP3   OH230129   1.627   0.824   7.648  0.3530  0.2239 -0.6071
 2857TIP3    H130130   1.551   0.882   7.641  0.4142  0.3953  0.1151
 2857TIP3    H230131   1.591   0.736   7.658  0.2597  0.1140 -1.8628
 2858TIP3   OH230132   1.840   6.819   7.605  0.2235  0.4874 -0.7178
 2858TIP3    H130133   1.864   6.893   7.550  0.6827  0.2032 -0.9039
 2858TIP3    H230134   1.915   6.760   7.600  0.0916  0.2636 -0.1256
 2859TIP3   OH230135   2.327   6.360   6.718  0.5831 -0.1568  0.0502
 2859TIP3    H130136   2.394   6.379   6.653 -0.0770  3.0451  0.1981
 2859TIP3    H230137   2.323   6.440   6.771 -1.4899 -1.3003  1.6808
 2860TIP3   OH230138   5.033   6.126   7.476 -0.0588  0.0185  0.7115
 2860TIP3    H130139   5.087   6.053   7.446  0.5808  0.8004 -0.0553
 2860TIP3    H230140   4.997   6.164   7.396 -0.7942  0.2344  1.1421
 2861TIP3   OH230141   3.727   6.102   8.192 -0.5978 -0.5196  0.5564
 2861TIP3    H130142   3.691   6.018   8.164 -0.8130 -0.4109  0.5066
 2861TIP3    H230143   3.788   6.127   8.123 -0.1045 -0.9124  0.8469
 2862TIP3   OH230144   0.677   5.518   8.255  0.1384  0.1470 -0.3044
 2862TIP3    H130145   0.619   5.452   8.217 -1.0028  0.3926  0.9656
 2862TIP3    H230146   0.765   5.483   8.241 -0.2616  0.0046 -2.6940
 2863TIP3   OH230147   6.368   6.719   6.075 -0.0616 -0.8052  0.5952
 2863TIP3    H130148   6.306   6.649   6.097 -0.5956 -0.7836 -0.7939
 2863TIP3    H230149   6.348   6.789   6.137 -1.1261 -0.9656  0.4446
 2864TIP3   OH230150   7.052   5.506   8.350 -0.1896  0.5659  0.2661
 2864TIP3    H130151   7.089   5.505   8.262  1.0563 -1.5088  0.7822
 2864TIP3    H230152   7.004   5.423   8.357  2.2263 -0.7153  2.5446
 2865TIP3   OH230153   2.998   7.175   7.501 -0.2371  0.0445 -0.1121
 2865TIP3    H130154   2.987   7.196   7.593 -2.4949 -0.0158 -0.3433
 2865TIP3    H230155   3.063   7.104   7.500 -0.4404 -0.1783  1.4322
 2866TIP3   OH230156   5.935   0.645   8.119 -0.0320 -0.5369 -0.0158
 2866TIP3    H130157   5.873   0.574   8.138  0.3441 -1.4435 -2.0393
 2866TIP3    H230158   6.017   0.616   8.159  0.0918 -1.2145 -0.7394
 2867TIP3   OH230159   3.896   6.711   6.587 -0.2047 -0.3729 -0.2157
 2867TIP3    H130160   3.863   6.788   6.632 -1.1298 -1.6222  1.3223
 2867TIP3    H230161   3.820   6.676   6.540 -0.0966 -0.9992  0.0613
 2868TIP3   OH230162   3.490   6.431   0.861  0.4933  0.6103 -0.6805
 2868TIP3    H130163   3.427   6.420   0.933 -0.1625  1.7107 -1.0786
 2868TIP3    H230164   3.558   6.366   0.880  0.3007  0.8373  0.8975
 2869TIP3   OH230165   1.801   6.479   1.242  0.0018 -0.0442 -0.5734
 2869TIP3    H130166   1.739   6.503   1.311  1.4933  0.2304  0.6918
 2869TIP3    H230167   1.818   6.561   1.195 -1.5600 -0.3676 -1.7483
 2870TIP3   OH230168   1.735   0.105   2.039 -0.3676  0.2298  0.1683
 2870TIP3    H130169   1.648   0.140   2.056 -0.7556 -0.6386 -0.0019
 2870TIP3    H230170   1.758   0.058   2.119  0.6085  1.7688  0.8150
 2871TIP3   OH230171   5.477   6.963   6.619  0.0885 -0.2558 -0.0508
 2871TIP3    H130172   5.390   6.984   6.584 -0.1122  0.5687  0.9018
 2871TIP3    H230173   5.498   7.037   6.677  1.0411 -0.8713  0.4010
 2872TIP3   OH230174   2.639   5.027   1.479  0.0687  0.2124  0.7592
 2872TIP3    H130175   2.587   4.965   1.531 -0.2762 -0.7604 -0.7092
 2872TIP3    H230176   2.592   5.110   1.487 -0.3181 -0.0720  1.4915
 2873TIP3   OH230177   4.215   1.256   6.950  0.3143 -0.1003 -0.2047
 2873TIP3    H130178   4.254   1.254   7.038 -0.8137 -0.9394  0.2852
 2873TIP3    H230179   4.167   1.174   6.943  0.0654  0.1417 -1.4626
 2874TIP3   OH230180   5.488   7.103   7.062 -0.4050  0.7588 -0.1703
 2874TIP3    H130181   5.545   7.173   7.094 -1.1525  1.2916  0.0120
 2874TIP3    H230182   5.403   7.145   7.050 -0.8793 -0.1328  0.0080
 2875TIP3   OH230183   5.236   6.234   6.494 -0.3173  0.1807 -0.9945
 2875TIP3    H130184   5.172   6.210   6.561  0.4120  0.9057 -0.0233
 2875TIP3    H230185   5.229   6.329   6.486 -0.8024  0.0380 -2.3653
 2876TIP3   OH230186   3.614   5.616   7.240  0.0142 -0.5520 -0.2583
 2876TIP3    H130187   3.520   5.612   7.223  0.0242  0.2898 -0.5275
 2876TIP3    H230188   3.635   5.709   7.239  0.4898 -0.6193  1.8214
 2877TIP3   OH230189   3.679   4.243   0.630  0.2318 -0.5743 -0.0255
 2877TIP3    H130190   3.726   4.325   0.613  1.2376 -1.5266 -2.1333
 2877TIP3    H230191   3.603   4.269   0.682  2.0487  1.2858  1.7973
 2878TIP3   OH230192   4.445   5.572   7.601  0.2277  0.7341  0.4486
 2878TIP3    H130193   4.373   5.608   7.653  0.9825  1.7726  0.7950
 2878TIP3    H230194   4.517   5.561   7.663 -0.4469 -2.8567  0.6748
 2879TIP3   OH230195   5.569   0.526   0.988 -0.2671  0.0405 -0.4112
 2879TIP3    H130196   5.488   0.485   1.016 -0.9980  0.8336 -1.3254
 2879TIP3    H230197   5.541   0.600   0.933  1.0264  1.1184  0.3382
 2880TIP3   OH230198   4.345   6.208   6.817 -0.6027 -0.2286 -0.4830
 2880TIP3    H130199   4.387   6.211   6.903 -0.5857  1.5829 -0.5402
 2880TIP3    H230200   4.285   6.133   6.822 -0.0975 -0.5564  0.8543
 2881TIP3   OH230201   6.239   6.378   7.490 -0.0362  0.1623  0.0087
 2881TIP3    H130202   6.209   6.301   7.539  0.7410 -0.0506  0.1538
 2881TIP3    H230203   6.163   6.436   7.487 -0.8313 -0.9076 -0.6987
 2882TIP3   OH230204   5.012   6.029   6.507  0.1359 -0.0550  0.4255
 2882TIP3    H130205   4.942   6.011   6.569 -0.4492  1.1966  0.1554
 2882TIP3    H230206   4.983   5.988   6.426  0.9057 -1.7001  0.9723
 2883TIP3   OH230207   3.896   0.941   0.273 -0.6402 -0.6080  0.1263
 2883TIP3    H130208   3.943   0.872   0.320  2.3442 -1.0679 -3.2187
 2883TIP3    H230209   3.833   0.894   0.218  0.8435 -0.7102 -1.5577
 2884TIP3   OH230210   0.428   7.124   8.423  0.5650 -0.3333  0.0516
 2884TIP3    H130211   0.438   7.053   8.487 -0.5837 -1.7206 -1.2747
 2884TIP3    H230212   0.503   7.182   8.440  3.5199 -3.6389 -1.1014
 2885TIP3   OH230213   6.034   6.449   0.224 -0.1549 -0.1557  0.1318
 2885TIP3    H130214   6.088   6.528   0.214 -1.0154  0.5203  0.7587
 2885TIP3    H230215   6.088   6.379   0.189  2.1124  0.1202  2.9722
 2886TIP3   OH230216   4.196   6.651   0.662  0.0372  0.5757 -0.0176
 2886TIP3    H130217   4.119   6.664   0.718  0.2612  0.7010  0.2641
 2886TIP3    H230218   4.259   6.606   0.718 -1.3259 -3.3331 -1.4489
 2887TIP3   OH230219   2.626   1.272   6.503 -0.4799  0.1659 -0.1884
 2887TIP3    H130220   2.540   1.234   6.486 -0.4646  0.6157 -1.3100
 2887TIP3    H230221   2.675   1.258   6.422  0.9704 -1.3100  0.9193
 2888TIP3   OH230222   3.877   3.858   1.455  0.1120 -0.3346  0.2291
 2888TIP3    H130223   3.879   3.778   1.508  0.6611 -0.1297  0.5245
 2888TIP3    H230224   3.851   3.926   1.517 -0.0609 -0.2346  0.0453
 2889TIP3   OH230225   6.199   6.238   6.777  0.2023 -0.4294  0.0006
 2889TIP3    H130226   6.284   6.269   6.747 -0.5383  0.0594 -1.6195
 2889TIP3    H230227   6.152   6.215   6.697 -1.5232  0.1819  0.8193
 2890TIP3   OH230228   1.948   5.178   7.436  0.2081  0.5226  0.6232
 2890TIP3    H130229   1.973   5.101   7.385 -2.0167  0.8222 -1.0143
 2890TIP3    H230230   1.938   5.145   7.525 -2.8536 -1.6452 -0.4304
 2891TIP3   OH230231   2.557   1.188   7.180 -0.3496  0.0454  0.4096
 2891TIP3    H130232   2.576   1.226   7.094  0.5379 -0.2548  0.4648
 2891TIP3    H230233   2.512   1.106   7.160 -0.6124  0.2322  0.2405
 2892TIP3   OH230234   7.010   0.194   1.561  0.6655  0.0410  0.3934
 2892TIP3    H130235   7.006   0.148   1.645 -1.7581 -0.8784 -0.1876
 2892TIP3    H230236   7.044   0.129   1.500  3.2077  0.9474  0.7550
 2893TIP3   OH230237   5.164   7.200   6.752  0.7471 -0.1128 -0.1371
 2893TIP3    H130238   5.218   7.261   6.703  2.4477 -2.5080 -1.3441
 2893TIP3    H230239   5.105   7.162   6.686 -0.9072  0.8180  0.7597
 2894TIP3   OH230240   5.563   5.287   8.396  0.3674  0.0821 -0.0272
 2894TIP3    H130241   5.590   5.373   8.430 -0.2009  0.5908 -0.8532
 2894TIP3    H230242   5.480   5.269   8.440  0.1040  0.3042 -0.4375
 2895TIP3   OH230243   5.386   0.331   7.321  0.0021 -0.6269  0.8439
 2895TIP3    H130244   5.478   0.313   7.342  0.0631 -1.3945 -0.0281
 2895TIP3    H230245   5.350   0.245   7.299 -1.1997 -0.4871  2.2068
 2896TIP3   OH230246   3.035   6.897   1.600  0.0327 -0.2377 -0.2352
 2896TIP3    H130247   2.966   6.832   1.608  1.8305 -2.0012  1.3658
 2896TIP3    H230248   3.005   6.972   1.652 -0.3669 -1.2609  1.0094
 2897TIP3   OH230249   2.032   6.604   6.370  0.2856 -0.0164 -0.4305
 2897TIP3    H130250   2.099   6.668   6.395  0.4967 -0.5996  0.5203
 2897TIP3    H230251   2.001   6.634   6.285 -0.9813  2.4449  0.8476
 2898TIP3   OH230252   5.271   6.150   1.639 -0.1246  0.1749 -0.6066
 2898TIP3    H130253   5.207   6.157   1.569 -1.8080  0.6003  0.9421
 2898TIP3    H230254   5.241   6.213   1.705  1.1553 -0.5672  0.6963
 2899TIP3   OH230255   1.525   6.060   0.579  0.0497  0.4643  0.0807
 2899TIP3    H130256   1.595   6.078   0.516 -0.1325 -0.0062 -0.2614
 2899TIP3    H230257   1.539   5.969   0.605  0.1329  0.6583  0.7382
 2900TIP3   OH230258   2.994   0.230   0.061  0.0102  0.2588 -0.2532
 2900TIP3    H130259   3.056   0.297   0.032 -0.9987  1.3345  0.0296
 2900TIP3    H230260   2.910   0.260   0.028 -0.5013 -0.7012  0.1700
 2901TIP3   OH230261   1.103   3.397   7.409  0.0198 -0.4020  0.1094
 2901TIP3    H130262   1.175   3.351   7.452  0.0174 -0.8756 -0.3937
 2901TIP3    H230263   1.146   3.447   7.339  0.0028  0.2376  0.5480
 2902TIP3   OH230264   6.279   6.865   6.293 -0.4743  0.2695 -0.0409
 2902TIP3    H130265   6.297   6.881   6.386 -0.8754 -0.0245  0.0893
 2902TIP3    H230266   6.191   6.827   6.292 -0.2915 -0.1427 -0.5000
 2903TIP3   OH230267   3.438   4.983   0.516 -0.0635 -0.4106 -0.0102
 2903TIP3    H130268   3.492   4.926   0.461  1.3348 -0.9307  1.8598
 2903TIP3    H230269   3.475   5.070   0.505  0.0991 -0.4837 -0.0460
 2904TIP3   OH230270   3.543   3.967   8.005  0.3729  0.0233  0.3752
 2904TIP3    H130271   3.612   3.982   7.940 -1.0970  1.3568 -0.9464
 2904TIP3    H230272   3.462   3.972   7.954 -0.8199  1.0929  2.3207
 2905TIP3   OH230273   3.901   6.755   6.918 -1.2320 -0.1938  0.3745
 2905TIP3    H130274   3.959   6.747   6.994 -0.4292 -1.2320 -0.3328
 2905TIP3    H230275   3.918   6.842   6.883 -0.9012 -0.0780  0.8227
 2906TIP3   OH230276   4.348   7.120   0.343  0.1631 -0.0100  0.4716
 2906TIP3    H130277   4.423   7.072   0.309 -0.6428 -3.3106  3.0670
 2906TIP3    H230278   4.381   7.161   0.423  0.1182  1.4846 -0.2714
 2907TIP3   OH230279   2.709   4.442   0.457  0.0559  0.3414 -0.0146
 2907TIP3    H130280   2.777   4.462   0.521  0.2794 -1.5950  0.3839
 2907TIP3    H230281   2.731   4.496   0.381  1.2404  0.7530  0.6109
 2908TIP3   OH230282   5.679   0.844   6.502  0.3856  0.4998 -0.7636
 2908TIP3    H130283   5.667   0.770   6.442 -0.1268  0.0291 -0.0785
 2908TIP3    H230284   5.619   0.911   6.468 -0.6339 -0.1132 -0.2242
 2909TIP3   OH230285   1.474   2.347   6.508 -0.2786 -0.1318 -0.5036
 2909TIP3    H130286   1.384   2.321   6.529 -0.2987 -0.5930 -1.1623
 2909TIP3    H230287   1.466   2.398   6.427  0.1455 -0.8247 -0.9849
 2910TIP3   OH230288   3.954   0.406   7.500 -0.0676  0.2988  0.1820
 2910TIP3    H130289   3.979   0.324   7.543  1.9520  1.0031  0.4307
 2910TIP3    H230290   3.962   0.472   7.569  2.3938  1.3208 -1.0064
 2911TIP3   OH230291   6.214   5.107   7.521  0.5810 -0.2162  0.5387
 2911TIP3    H130292   6.256   5.022   7.538  1.3999  0.1331  0.2542
 2911TIP3    H230293   6.148   5.115   7.590  1.0328 -0.7293  1.0314
 2912TIP3   OH230294   0.220   3.888   0.864  0.0167 -0.3312  0.2625
 2912TIP3    H130295   0.178   3.919   0.784  3.0843  1.6724 -0.6769
 2912TIP3    H230296   0.232   3.967   0.917  0.0849 -1.2883  1.7043
 2913TIP3   OH230297   0.123   3.543   6.575 -0.1306  0.1757  0.2516
 2913TIP3    H130298   0.120   3.539   6.670 -2.0059 -1.4511  0.1644
 2913TIP3    H230299   0.206   3.502   6.551 -1.0014 -2.2470  1.1254
 2914TIP3   OH230300   5.655   5.395   0.273  0.1742  0.2181  0.1419
 2914TIP3    H130301   5.647   5.454   0.348  0.9301 -1.9229  1.9598
 2914TIP3    H230302   5.654   5.453   0.197 -0.9743  2.4131  1.7687
 2915TIP3   OH230303   5.331   5.662   7.015 -0.3882  0.0592 -0.2780
 2915TIP3    H130304   5.265   5.725   6.985 -0.3147 -0.4983 -1.6880
 2915TIP3    H230305   5.382   5.642   6.936 -0.1006 -1.3802  0.2544
 2916TIP3   OH230306   3.332   1.171   7.280  0.0100  0.0136 -0.0047
 2916TIP3    H130307   3.406   1.212   7.234 -0.0858  0.0767 -0.1014
 2916TIP3    H230308   3.373   1.124   7.353  0.2852 -1.1279 -0.8788
 2917TIP3   OH230309   0.454   6.968   6.872  0.1675  0.1185  0.6533
 2917TIP3    H130310   0.417   7.055   6.886 -0.1449  0.1350 -0.2935
 2917TIP3    H230311   0.535   6.983   6.823 -0.3289 -0.1880 -0.2732
 2918TIP3   OH230312   3.066   5.134   6.678 -0.0226  0.1612 -0.1533
 2918TIP3    H130313   3.088   5.046   6.708  1.1475  1.0634  1.6966
 2918TIP3    H230314   2.982   5.123   6.633  0.0683 -1.8756  0.1237
 2919TIP3   OH230315   1.691   0.716   1.954  0.1591 -0.3709 -0.3303
 2919TIP3    H130316   1.690   0.732   2.049 -0.5771 -0.8101 -0.2572
 2919TIP3    H230317   1.736   0.791   1.917  1.0111 -0.5043  0.4336
 2920TIP3   OH230318   0.790   6.615   6.421 -0.4021 -0.3084  0.0991
 2920TIP3    H130319   0.794   6.574   6.334 -0.6180 -0.3018  0.0872
 2920TIP3    H230320   0.811   6.544   6.482  0.1014 -0.2328  0.0212
 2921TIP3   OH230321   1.041   6.583   0.862 -0.5410  0.1687  0.2471
 2921TIP3    H130322   1.018   6.675   0.855  0.4336  0.5163  1.4301
 2921TIP3    H230323   1.134   6.579   0.841 -0.4890 -0.4930  0.5716
 2922TIP3   OH230324   6.029   6.845   8.429 -0.5536 -0.2733  0.3902
 2922TIP3    H130325   6.114   6.869   8.393 -1.2167 -0.4759 -1.3546
 2922TIP3    H230326   6.029   6.749   8.429 -1.0483 -0.2745 -0.2677
 2923TIP3   OH230327   4.784   6.142   6.148 -0.2938 -0.4478 -0.4264
 2923TIP3    H130328   4.784   6.078   6.077 -2.0423 -0.7426 -0.1805
 2923TIP3    H230329   4.715   6.113   6.207 -0.0817  0.8175  0.4779
 2924TIP3   OH230330   3.108   5.671   7.331  0.4710  0.1191 -0.1589
 2924TIP3    H130331   3.064   5.628   7.258  2.2804 -1.3031 -0.4402
 2924TIP3    H230332   3.042   5.672   7.401  0.0803 -2.3592 -0.4340
 2925TIP3   OH230333   7.217   4.953   8.285  0.0970 -0.5286  0.0591
 2925TIP3    H130334   7.181   4.981   8.369  1.0638 -2.6463  1.2108
 2925TIP3    H230335   7.140   4.942   8.229 -0.9546 -3.1034  1.9103
 2926TIP3   OH230336   2.058   6.146   8.301 -0.4264  0.9408  0.8875
 2926TIP3    H130337   1.989   6.092   8.340  1.0560  1.0425  3.8257
 2926TIP3    H230338   2.021   6.235   8.300 -1.9692  0.3069 -1.7276
 2927TIP3   OH230339   5.864   5.827   1.394 -0.0429  0.0922 -0.3222
 2927TIP3    H130340   5.863   5.918   1.425 -0.7740  0.1577 -0.5175
 2927TIP3    H230341   5.867   5.774   1.473 -0.7825  0.2738 -0.1665
 2928TIP3   OH230342   0.979   6.455   6.777  0.8266 -0.1538  0.2788
 2928TIP3    H130343   0.910   6.511   6.813  0.2674  0.3412 -1.5194
 2928TIP3    H230344   1.059   6.505   6.789  0.5033  0.4608 -0.0986
 2929TIP3   OH230345   1.371   6.062   6.353  0.1405 -0.1431  0.1143
 2929TIP3    H130346   1.435   6.065   6.282  0.5439  0.1029  0.4856
 2929TIP3    H230347   1.322   5.981   6.338  0.7351 -0.4856  0.0029
 2930TIP3   OH230348   6.321   6.706   0.542  0.3400  0.1469  0.2271
 2930TIP3    H130349   6.249   6.753   0.584  0.1400 -1.6718  1.9891
 2930TIP3    H230350   6.400   6.745   0.579  0.2451  1.0978 -0.5533
 2931TIP3   OH230351   5.289   7.017   8.195  0.3044  0.1339 -0.2970
 2931TIP3    H130352   5.244   6.945   8.151 -0.7632  0.9572 -0.5826
 2931TIP3    H230353   5.344   7.057   8.128  1.9695 -1.2599  0.2060
 2932TIP3   OH230354   6.484   5.159   7.673 -0.4711 -0.2796 -0.3994
 2932TIP3    H130355   6.391   5.161   7.654 -0.7389 -0.5377  0.8190
 2932TIP3    H230356   6.515   5.077   7.634 -0.9908 -0.7589  0.1719
 2933TIP3   OH230357   0.204   5.619   8.288 -0.1414 -0.8600  0.2731
 2933TIP3    H130358   0.230   5.610   8.380 -2.9992  0.1921  1.2253
 2933TIP3    H230359   0.181   5.530   8.261 -0.6255 -0.9505  0.9841
 2934TIP3   OH230360   3.595   5.949   5.944  0.0301  0.2245 -0.2356
 2934TIP3    H130361   3.643   5.964   6.026 -1.2454  0.7663  0.4333
 2934TIP3    H230362   3.521   5.894   5.970  0.0535 -0.2437 -1.1696
 2935TIP3   OH230363   3.470   6.197   0.522 -0.0959  0.2173 -0.3830
 2935TIP3    H130364   3.403   6.218   0.457 -0.7533  0.0683  0.2373
 2935TIP3    H230365   3.550   6.186   0.472 -0.7726 -0.7616 -1.2705
 2936TIP3   OH230366   1.319   7.198   6.082  0.1358  0.3959 -0.2768
 2936TIP3    H130367   1.400   7.159   6.116  0.4206  1.3543  0.1472
 2936TIP3    H230368   1.326   7.189   5.987 -0.4014 -1.7709 -0.1513
 2937TIP3   OH230369   1.175   4.618   7.182 -0.4335 -0.4667 -0.0105
 2937TIP3    H130370   1.151   4.555   7.250 -4.1458  0.4589 -0.3665
 2937TIP3    H230371   1.156   4.703   7.220 -0.6291  0.1508 -1.4464
 2938TIP3   OH230372   5.900   4.109   7.012 -0.4997 -0.5664 -0.3169
 2938TIP3    H130373   5.859   4.180   7.061  0.6800 -1.1077  1.4943
 2938TIP3    H230374   5.983   4.145   6.982 -0.8226 -0.5278 -1.1959
 2939TIP3   OH230375   5.294   5.055   6.400 -0.4227  0.6599 -0.0455
 2939TIP3    H130376   5.242   5.104   6.336  2.2246  1.1658 -1.8914
 2939TIP3    H230377   5.298   4.966   6.364 -0.2151  0.5714  0.1955
 2940TIP3   OH230378   6.500   4.972   0.282 -0.2463  0.6351 -0.4551
 2940TIP3    H130379   6.557   4.985   0.206  0.6292  0.4515  0.1604
 2940TIP3    H230380   6.421   4.932   0.246  0.8976 -1.1740 -1.0444
 2941TIP3   OH230381   6.667   4.944   6.582 -0.0017 -0.5644  0.3655
 2941TIP3    H130382   6.657   4.929   6.488  1.5932 -0.5251  0.1737
 2941TIP3    H230383   6.684   5.037   6.590 -0.7309 -0.4610  0.7522
 2942TIP3   OH230384   5.247   7.044   6.486  0.4581  0.1813 -0.2149
 2942TIP3    H130385   5.237   7.042   6.391  0.0055 -0.3908 -0.1581
 2942TIP3    H230386   5.162   7.074   6.518  0.5232  0.1047  0.0264
 2943TIP3   OH230387   2.714   4.504   6.896  0.5322  0.8093  0.1792
 2943TIP3    H130388   2.805   4.478   6.883  0.6378  1.0895  0.3492
 2943TIP3    H230389   2.682   4.447   6.967 -0.2388 -1.1768 -1.7130
 2944TIP3   OH230390   4.213   6.926   7.393  0.5558 -0.4712 -0.0165
 2944TIP3    H130391   4.209   6.986   7.319  0.1209  0.7882  0.9958
 2944TIP3    H230392   4.262   6.850   7.361 -1.0184 -0.6581 -2.0631
 2945TIP3   OH230393   6.702   6.871   7.118 -0.2243  0.1764 -0.1223
 2945TIP3    H130394   6.773   6.865   7.055  0.6250 -0.6556  0.8899
 2945TIP3    H230395   6.661   6.785   7.116 -0.6736  0.3864 -0.0849
 2946TIP3   OH230396   3.661   6.137   7.142  0.6916  0.3025 -0.4700
 2946TIP3    H130397   3.737   6.151   7.199  1.5809 -0.9344 -1.3074
 2946TIP3    H230398   3.694   6.155   7.054  0.0546 -0.4113 -0.8563
 2947TIP3   OH230399   4.603   6.100   6.360 -0.1891 -0.5439  0.1316
 2947TIP3    H130400   4.635   6.042   6.429  0.2785 -1.3474 -0.7528
 2947TIP3    H230401   4.513   6.071   6.344  0.3147 -1.5737 -0.8836
 2948TIP3   OH230402   6.596   6.508   0.924 -0.1569  0.1822  0.6496
 2948TIP3    H130403   6.541   6.455   0.983 -0.2524 -0.0390  0.3583
 2948TIP3    H230404   6.685   6.495   0.957 -0.0583 -0.9923 -0.0674
 2949TIP3   OH230405   0.071   3.471   0.275 -0.0972 -0.0242  0.4862
 2949TIP3    H130406   0.098   3.556   0.239 -0.5487  0.2323  0.7591
 2949TIP3    H230407   0.114   3.407   0.218  0.7385  0.3826  0.6450
 2950TIP3   OH230408   0.521   3.966   0.805 -0.0576 -0.1134 -0.4769
 2950TIP3    H130409   0.453   4.025   0.772 -2.2079 -2.1956  0.0442
 2950TIP3    H230410   0.570   3.940   0.727  2.4325  4.0833 -0.4251
 2951TIP3   OH230411   0.199   0.421   7.296  0.5008  0.1473  0.0131
 2951TIP3    H130412   0.289   0.393   7.279 -0.0313 -1.4547 -0.2561
 2951TIP3    H230413   0.208   0.497   7.354  2.0070 -0.1853  0.2375
 2952TIP3   OH230414   6.463   6.154   7.993  0.0212  0.6316 -0.7234
 2952TIP3    H130415   6.447   6.189   8.080  0.1779 -0.5561 -0.2010
 2952TIP3    H230416   6.421   6.068   7.993  2.6835 -0.7480 -0.7403
 2953TIP3   OH230417   6.795   0.946   7.015 -0.0901  0.0744 -0.4066
 2953TIP3    H130418   6.827   0.909   6.933  0.5845 -0.7034  0.1902
 2953TIP3    H230419   6.773   0.870   7.069 -0.3838  0.5686  0.1873
 2954TIP3   OH230420   6.913   1.114   7.492  0.6546  0.7979  0.0225
 2954TIP3    H130421   6.858   1.189   7.512  0.5330  0.8528 -0.5066
 2954TIP3    H230422   6.894   1.050   7.561 -1.0110  0.3158 -0.8625
 2955TIP3   OH230423   1.320   7.136   7.967 -0.0218 -0.4713  0.3843
 2955TIP3    H130424   1.409   7.112   7.939 -0.0390  1.2564 -1.2514
 2955TIP3    H230425   1.329   7.223   8.004 -1.3572  0.6397 -1.7948
 2956TIP3   OH230426   6.342   5.296   6.999  0.2591 -0.3240 -0.7533
 2956TIP3    H130427   6.360   5.376   6.949 -0.6330  1.2271  1.3487
 2956TIP3    H230428   6.426   5.272   7.038  0.4323 -0.1477 -1.0133
 2957TIP3   OH230429   7.084   6.817   6.642  0.1214  0.1238  0.2487
 2957TIP3    H130430   7.121   6.730   6.627  0.2231  0.4146 -1.2626
 2957TIP3    H230431   6.994   6.800   6.668  1.0168 -0.5483  3.0138
 2958TIP3   OH230432   0.320   7.200   6.873 -0.0910  0.7495 -0.2377
 2958TIP3    H130433   0.243   7.159   6.913 -0.0072  0.4387 -0.3999
 2958TIP3    H230434   0.326   7.285   6.917 -1.2454  1.2916 -1.0779
 2959TIP3   OH230435   6.236   0.276   6.595  0.4635  0.3652  0.3381
 2959TIP3    H130436   6.255   0.312   6.682  0.7217 -1.6650  1.1569
 2959TIP3    H230437   6.317   0.233   6.568 -0.0028 -0.0931 -0.3575
 2960TIP3   OH230438   0.622   4.712   8.132  0.5516  0.0386 -0.1065
 2960TIP3    H130439   0.567   4.689   8.206  0.4012 -0.3769 -0.3478
 2960TIP3    H230440   0.705   4.666   8.147  0.5315 -0.0225 -0.1862
 2961TIP3   OH230441   3.238   5.628   2.359  0.0131 -0.7679 -0.4018
 2961TIP3    H130442   3.299   5.687   2.314 -0.1028  0.7936  1.4044
 2961TIP3    H230443   3.152   5.670   2.348 -0.4854 -1.9832 -1.3228
 2962TIP3   OH230444   4.592   6.877   6.890 -0.0229  0.6342 -0.3087
 2962TIP3    H130445   4.639   6.795   6.903  0.8584  0.9569 -1.4418
 2962TIP3    H230446   4.567   6.877   6.798  0.9854  2.1617 -0.6080
 2963TIP3   OH230447   2.974   5.955   0.208 -0.2080  0.7302 -0.1910
 2963TIP3    H130448   3.007   5.866   0.223 -3.8045 -0.5916  0.5690
 2963TIP3    H230449   3.016   5.983   0.127  0.0223 -2.2175 -1.1662
 2964TIP3   OH230450   0.157   0.341   8.350 -0.3893 -0.0657  0.6311
 2964TIP3    H130451   0.187   0.288   8.423 -0.8039 -0.0613  0.8050
 2964TIP3    H230452   0.235   0.388   8.321  0.1063 -1.1794  0.1287
 2965TIP3   OH230453   7.124   0.113   7.053 -0.5160 -0.6090 -0.0830
 2965TIP3    H130454   7.085   0.086   7.136  1.8775  0.5424  1.4541
 2965TIP3    H230455   7.115   0.209   7.053 -0.5564 -0.6102 -1.1909
 2966TIP3   OH230456   1.748   6.999   8.068  0.4973 -0.7934  0.6247
 2966TIP3    H130457   1.697   6.947   8.006  0.8609 -1.6673  1.0619
 2966TIP3    H230458   1.839   6.976   8.050  0.6799 -0.1083  0.6433
 2967TIP3   OH230459   6.259   6.856   7.483  0.1547  0.1714  0.1814
 2967TIP3    H130460   6.267   6.907   7.402  1.2760 -0.8394 -0.3647
 2967TIP3    H230461   6.348   6.827   7.502 -0.5282 -2.0815  0.1266
 2968TIP3   OH230462   0.882   0.379   0.280  0.1238 -0.3948 -0.0247
 2968TIP3    H130463   0.888   0.388   0.376  1.2698  0.1841 -0.1379
 2968TIP3    H230464   0.835   0.458   0.252  0.4175 -0.2134 -0.0063
 2969TIP3   OH230465   0.555   0.128   6.450 -0.3030  0.3998  0.0600
 2969TIP3    H130466   0.591   0.216   6.444 -0.5167  0.5722  1.0944
 2969TIP3    H230467   0.630   0.070   6.443  0.0350  0.7189  0.9528
 2970TIP3   OH230468   0.426   6.260   7.653  0.2795 -0.3247  0.2870
 2970TIP3    H130469   0.468   6.175   7.666 -1.3414 -1.2928 -0.5814
 2970TIP3    H230470   0.409   6.292   7.742  0.3985 -1.1653  0.6160
 2971TIP3   OH230471   0.354   6.200   8.144  0.0516 -0.0553 -0.2710
 2971TIP3    H130472   0.417   6.131   8.121 -1.2422 -1.3414 -0.0120
 2971TIP3    H230473   0.359   6.206   8.239 -0.5533 -0.4927 -0.2094
 2972TIP3   OH230474   1.021   0.314   6.671 -0.5478 -0.0968 -0.1749
 2972TIP3    H130475   1.052   0.381   6.732 -1.4888 -0.4865  0.7325
 2972TIP3    H230476   1.051   0.345   6.585 -1.3160  1.7166  0.1761
 2973TIP3   OH230477   5.806   5.476   0.769 -0.5528 -0.1649 -0.1543
 2973TIP3    H130478   5.891   5.504   0.803 -0.8533  0.8818 -0.2321
 2973TIP3    H230479   5.746   5.484   0.844 -0.6121 -0.7416 -0.1409
 2974TIP3   OH230480   5.059   7.156   7.228  0.0412  0.2910  0.0686
 2974TIP3    H130481   5.124   7.176   7.160  0.8872  1.2339  1.1519
 2974TIP3    H230482   4.994   7.226   7.220 -0.3562 -0.1187 -0.3728
 2975TIP3   OH230483   0.079   1.403   7.690 -0.1051  0.3234 -0.4299
 2975TIP3    H130484   0.002   1.366   7.734 -0.3393  0.0379 -1.0730
 2975TIP3    H230485   0.062   1.390   7.597  0.3573  0.9886 -0.6127
 2976TIP3   OH230486   4.908   6.093   6.767 -0.5025  0.3866 -0.3386
 2976TIP3    H130487   4.848   6.162   6.795  0.0284  1.1312 -1.0018
 2976TIP3    H230488   4.993   6.137   6.758 -0.0740 -0.4350 -0.3961
 2977TIP3   OH230489   7.192   4.025   7.372  0.2230  0.1836 -0.1211
 2977TIP3    H130490   7.162   3.965   7.440  0.3914 -0.2839 -0.4487
 2977TIP3    H230491   7.285   4.038   7.390  0.9621 -2.2050 -1.8865
 2978TIP3   OH230492   5.487   1.062   8.315  0.0218  0.6376  0.2115
 2978TIP3    H130493   5.564   1.010   8.292  0.2720  0.5627  1.2011
 2978TIP3    H230494   5.522   1.137   8.364 -0.4628  1.0363 -0.0422
 2979TIP3   OH230495   2.786   6.966   7.538 -0.0389  0.6127 -0.1736
 2979TIP3    H130496   2.853   7.015   7.491  0.8563 -1.1786 -0.8272
 2979TIP3    H230497   2.814   6.969   7.629 -0.2401  1.6765 -0.1361
 2980TIP3   OH230498   2.361   5.657   6.576 -0.4405 -0.1172 -0.4104
 2980TIP3    H130499   2.416   5.732   6.554  2.0531 -2.3007 -1.9903
 2980TIP3    H230500   2.383   5.636   6.667  0.6167 -0.3749 -0.7233
 2981TIP3   OH230501   4.661   7.081   7.810 -0.4368  0.3352 -0.4822
 2981TIP3    H130502   4.752   7.104   7.788 -0.6991  1.7213 -0.1609
 2981TIP3    H230503   4.609   7.151   7.771 -1.2113  0.6680  1.1106
 2982TIP3   OH230504   5.350   5.930   8.247 -0.7205  0.1606 -0.1019
 2982TIP3    H130505   5.260   5.955   8.226 -0.1782  1.9315 -0.3656
 2982TIP3    H230506   5.387   6.007   8.290  0.7586 -0.4678 -0.2358
 2983TIP3   OH230507   6.137   5.712   8.092  0.1513  0.0980  0.5117
 2983TIP3    H130508   6.059   5.705   8.147  0.3504 -1.6541  0.5924
 2983TIP3    H230509   6.210   5.699   8.151  0.4195 -0.4019  0.0746
 2984TIP3   OH230510   0.552   0.065   6.120 -0.0818 -0.6615 -0.3548
 2984TIP3    H130511   0.537   0.127   6.048  0.5131  1.6389  1.4643
 2984TIP3    H230512   0.645   0.042   6.113 -0.0980 -0.6843 -0.5000
 2985TIP3   OH230513   1.974   6.044   1.816 -0.4192  0.0998 -0.1752
 2985TIP3    H130514   2.055   6.084   1.784 -1.1187  2.1680  0.5885
 2985TIP3    H230515   1.943   6.103   1.885 -1.7422 -1.5059  0.6458
 2986TIP3   OH230516   6.317   6.935   5.900 -0.0983  0.0296  0.1252
 2986TIP3    H130517   6.352   6.852   5.931  0.8787 -0.3836 -2.0196
 2986TIP3    H230518   6.389   6.998   5.910  0.2316 -0.1095 -1.2544
 2987TIP3   OH230519   0.706   6.160   0.784 -0.5971  0.3095  0.0402
 2987TIP3    H130520   0.636   6.143   0.848 -0.6503  0.1693 -0.0547
 2987TIP3    H230521   0.782   6.113   0.819  0.2198  2.6460  1.5506
 2988TIP3   OH230522   4.601   1.217   7.134 -0.1364 -0.0132 -0.5636
 2988TIP3    H130523   4.573   1.126   7.123  2.9886 -0.9031 -1.5382
 2988TIP3    H230524   4.614   1.228   7.228 -0.5713 -0.5382 -0.4419
 2989TIP3   OH230525   1.418   7.025   2.468 -0.4239  0.0443 -0.3708
 2989TIP3    H130526   1.469   7.025   2.387 -0.5485 -0.0280 -0.4493
 2989TIP3    H230527   1.425   7.115   2.500 -0.9042  0.2366 -0.7962
 2990TIP3   OH230528   2.296   1.232   1.563  0.0474 -0.0054 -0.1545
 2990TIP3    H130529   2.355   1.157   1.574 -1.6253 -1.2559  0.4290
 2990TIP3    H230530   2.209   1.198   1.583 -0.6773  2.2547  0.7730
 2991TIP3   OH230531   2.049   5.686   7.088  0.1580  0.1095 -0.3116
 2991TIP3    H130532   2.126   5.740   7.106  0.1006 -0.2367  0.9798
 2991TIP3    H230533   1.975   5.740   7.118 -0.0510  0.1669 -0.9309
 2992TIP3   OH230534   4.485   6.163   7.555 -0.1504  0.0301  0.7577
 2992TIP3    H130535   4.433   6.082   7.558 -1.5092  0.8827  0.9600
 2992TIP3    H230536   4.467   6.199   7.468  1.2660 -0.3817  0.2727
 2993TIP3   OH230537   6.971   7.008   7.308  0.8079 -0.0773 -0.1680
 2993TIP3    H130538   7.008   6.938   7.254 -0.0244 -1.3444  0.8639
 2993TIP3    H230539   7.017   7.002   7.392  1.5373  1.3671 -0.4467
 2994TIP3   OH230540   7.194   4.629   0.066  0.2361 -0.1615 -0.1700
 2994TIP3    H130541   7.149   4.580   0.135 -0.9386  0.5362 -0.4171
 2994TIP3    H230542   7.286   4.626   0.090 -0.3155  1.4819  2.3225
 2995TIP3   OH230543   0.738   2.177   6.076  0.3702 -0.3009 -0.0020
 2995TIP3    H130544   0.766   2.240   6.142 -1.1267 -1.3055  1.6348
 2995TIP3    H230545   0.643   2.190   6.069  0.2493 -1.4630 -0.6013
 2996TIP3   OH230546   1.079   4.887   7.273  0.7806  0.0215  0.1892
 2996TIP3    H130547   1.010   4.949   7.249  0.5502 -0.5654 -0.6682
 2996TIP3    H230548   1.110   4.918   7.358  1.2447  1.8210 -0.6179
 2997TIP3   OH230549   7.007   5.151   6.312  0.5602  0.0724  0.2429
 2997TIP3    H130550   6.935   5.156   6.249  0.8081 -2.4937 -0.2976
 2997TIP3    H230551   7.075   5.206   6.275  0.1161 -0.1616 -0.9505
 2998TIP3   OH230552   6.180   5.190   1.425  0.0781  0.1009  0.1681
 2998TIP3    H130553   6.090   5.207   1.453  0.6202  1.4039  1.1313
 2998TIP3    H230554   6.233   5.204   1.504  1.0882 -1.1019 -0.2753
 2999TIP3   OH230555   6.307   7.198   7.012 -0.1627  0.3532  0.1597
 2999TIP3    H130556   6.376   7.188   7.077  0.9040  2.2317 -0.6489
 2999TIP3    H230557   6.317   7.287   6.980 -1.5489 -0.0942 -1.5991
 3000TIP3   OH230558   4.343   7.282   7.202 -0.2076  0.2607 -0.7991
 3000TIP3    H130559   4.409   7.280   7.133  0.6900 -1.4661  0.0769
 3000TIP3    H230560   4.373   7.351   7.261  1.1947 -0.9377 -0.0776
 3001TIP3   OH230561   6.710   6.380   6.589  0.1490 -0.0194  0.2397
 3001TIP3    H130562   6.754   6.430   6.520 -1.5799  1.4633  0.1729
 3001TIP3    H230563   6.746   6.292   6.582  0.9252  0.4331 -1.7316
 3002TIP3   OH230564   7.241   6.595   6.637 -0.1148 -0.1016 -0.1631
 3002TIP3    H130565   7.194   6.511   6.632 -1.6714  0.7683 -0.5474
 3002TIP3    H230566   7.308   6.581   6.703 -0.5473 -1.5693 -0.0102
 3003TIP3   OH230567   7.067   1.119   8.369  0.3555  0.2311 -0.7703
 3003TIP3    H130568   7.070   1.183   8.441  0.7001  1.0902 -1.5404
 3003TIP3    H230569   6.975   1.111   8.347  0.2003 -0.3778  0.0658
 3004TIP3   OH230570   5.724   0.560   6.878 -0.2251 -0.5628 -0.4349
 3004TIP3    H130571   5.779   0.618   6.825  0.6392 -0.0573  0.9838
 3004TIP3    H230572   5.752   0.472   6.853 -0.1302 -0.3335 -1.1435
 3005TIP3   OH230573   4.645   6.616   0.032  0.1882 -0.5587  0.0648
 3005TIP3    H130574   4.705   6.560  -0.016  0.6751 -0.8005  0.9480
 3005TIP3    H230575   4.700   6.685   0.069 -0.2676 -0.0407 -0.2249
 3006TIP3   OH230576   5.835   5.954   6.714  0.1922 -0.2852  1.1530
 3006TIP3    H130577   5.926   5.935   6.690 -0.4621 -0.5237 -1.3680
 3006TIP3    H230578   5.790   5.870   6.702 -0.9481  0.5689 -0.8390
 3007TIP3   OH230579   2.098   6.596   6.720  0.4796  0.0452 -0.7049
 3007TIP3    H130580   2.034   6.582   6.790 -0.9267 -1.8575 -2.3204
 3007TIP3    H230581   2.083   6.523   6.660  1.9077  1.4562 -2.8014
 3008TIP3   OH230582   1.422   6.963   7.186 -0.1600  0.5858 -0.0228
 3008TIP3    H130583   1.472   6.884   7.203 -0.2268  0.5648  0.0731
 3008TIP3    H230584   1.465   7.002   7.109 -0.8391 -0.1576 -0.7924
 3009TIP3   OH230585   6.748   6.970   6.692  0.5108 -0.3573  0.5588
 3009TIP3    H130586   6.677   7.018   6.733  0.8946  1.3312 -0.6991
 3009TIP3    H230587   6.713   6.942   6.607  0.9784 -0.4739  0.3968
 3010TIP3   OH230588   5.447   7.221   0.407  0.5831  0.0773  0.2853
 3010TIP3    H130589   5.377   7.222   0.472 -1.1558 -1.8213 -1.4817
 3010TIP3    H230590   5.512   7.161   0.442 -0.6413 -1.4318 -0.0116
 3011TIP3   OH230591   1.335   1.580   7.705  0.5433 -0.2803  0.4604
 3011TIP3    H130592   1.267   1.585   7.772 -0.3549 -1.4887 -0.3275
 3011TIP3    H230593   1.398   1.648   7.729  0.6425 -1.2085  2.9547
 3012TIP3   OH230594   3.449   6.133   7.767 -0.1561 -0.5033 -0.2506
 3012TIP3    H130595   3.471   6.060   7.709 -1.7739 -0.9220 -0.3898
 3012TIP3    H230596   3.494   6.113   7.849 -1.6296 -2.4043  0.1589
 3013TIP3   OH230597   7.285   6.578   6.961 -0.8447  0.0868  0.3917
 3013TIP3    H130598   7.360   6.571   6.902 -0.5604 -2.4671  0.9804
 3013TIP3    H230599   7.275   6.672   6.976  1.8927  0.5191 -0.1259
 3014TIP3   OH230600   0.171   4.015   7.366  0.2404 -0.5756  0.1180
 3014TIP3    H130601   0.149   3.929   7.402  0.2983 -0.2584  0.9226
 3014TIP3    H230602   0.266   4.013   7.354  0.2143 -0.7010 -0.0687
 3015TIP3   OH230603   7.242   3.104   7.505 -0.4212  0.3039 -0.2554
 3015TIP3    H130604   7.260   3.010   7.491  1.1758  0.7298 -1.2061
 3015TIP3    H230605   7.186   3.128   7.431 -0.0246  0.3187 -0.5540
 3016TIP3   OH230606   1.246   6.948   6.587 -0.1108 -0.5316 -0.1455
 3016TIP3    H130607   1.270   6.982   6.500  1.5539  1.5371  1.0542
 3016TIP3    H230608   1.157   6.979   6.602  1.7082  4.5033  1.3486
 3017TIP3   OH230609   5.138   6.210   6.866  0.1763 -0.1111 -0.4030
 3017TIP3    H130610   5.158   6.302   6.847 -0.3527  0.1453  0.2760
 3017TIP3    H230611   5.183   6.193   6.949  0.5901 -0.5729 -0.7252
 3018TIP3   OH230612   6.329   6.879   6.550 -0.5501 -1.0391 -0.7419
 3018TIP3    H130613   6.412   6.831   6.548 -1.1517 -2.1803  0.8145
 3018TIP3    H230614   6.266   6.816   6.585 -1.6094  0.5259  0.2063
 3019TIP3   OH230615   6.227   6.512   6.142  0.3605  0.6277 -0.4864
 3019TIP3    H130616   6.153   6.485   6.196  0.4116  0.7690 -0.3454
 3019TIP3    H230617   6.287   6.437   6.144 -0.7095 -0.3340 -2.3003
 3020TIP3   OH230618   6.979   6.012   6.987 -0.1394  0.0984 -0.3248
 3020TIP3    H130619   7.028   6.088   7.019 -0.8437 -0.0989  1.2719
 3020TIP3    H230620   6.986   6.017   6.892 -0.0666  2.1069 -0.2383
 3021TIP3   OH230621   4.922   2.110   2.294 -0.0653 -0.0524  0.0341
 3021TIP3    H130622   4.866   2.185   2.273  0.0374  0.1779  0.5796
 3021TIP3    H230623   4.862   2.040   2.318 -0.1474 -0.0264 -0.0964
 3022TIP3   OH230624   6.611   0.849   7.489  0.6962 -0.0911  0.5492
 3022TIP3    H130625   6.556   0.834   7.412  0.2533 -1.6309  1.1406
 3022TIP3    H230626   6.657   0.930   7.470  0.6084 -0.4564 -1.3506
 3023TIP3   OH230627   7.105   6.197   0.603 -0.6342 -0.0712  0.3343
 3023TIP3    H130628   7.194   6.173   0.577 -0.8125 -1.4243  0.9249
 3023TIP3    H230629   7.049   6.129   0.565 -1.4604  0.9449 -0.3038
 3024TIP3   OH230630   2.278   2.399   7.300  0.1086  0.8074 -0.2372
 3024TIP3    H130631   2.317   2.362   7.220 -1.1082 -1.1874  0.0663
 3024TIP3    H230632   2.203   2.450   7.269 -0.7450 -0.4874 -0.3448
 3025TIP3   OH230633   4.262   5.907   7.472  0.2688 -0.0116 -0.2396
 3025TIP3    H130634   4.250   5.889   7.565  0.1971 -0.8197 -0.4084
 3025TIP3    H230635   4.176   5.894   7.433  0.7488 -1.7457 -0.7638
 3026TIP3   OH230636   0.336   1.891   7.681  0.3909  0.0989  0.0248
 3026TIP3    H130637   0.278   1.820   7.706  3.1957 -2.0131  0.7697
 3026TIP3    H230638   0.340   1.948   7.759  0.8868 -0.8334  0.6884
 3027TIP3   OH230639   4.176   7.162   6.791 -0.7864  0.1927  0.2638
 3027TIP3    H130640   4.200   7.158   6.698 -0.8880 -0.0637  0.2462
 3027TIP3    H230641   4.095   7.111   6.797 -0.8417  0.3042  0.4741
 3028TIP3   OH230642   5.842   6.664   7.400  0.0009  0.0655  0.1401
 3028TIP3    H130643   5.806   6.621   7.322 -1.3330  0.2750  0.6342
 3028TIP3    H230644   5.765   6.695   7.448  0.8985  2.4165  0.1311
 3029TIP3   OH230645   6.416   6.591   7.470  0.3410 -0.1449 -0.1322
 3029TIP3    H130646   6.350   6.522   7.464 -0.2208  0.3358  0.4809
 3029TIP3    H230647   6.424   6.609   7.563  0.2048  0.8898 -0.3097
 3030TIP3   OH230648   5.818   0.844   7.386  0.2015  0.2884  0.2569
 3030TIP3    H130649   5.912   0.856   7.370  0.7130 -0.4137  2.5944
 3030TIP3    H230650   5.782   0.933   7.384  0.6623  0.4560 -1.9800
 3031TIP3   OH230651   1.844   5.364   6.849 -0.3127 -0.1331  0.7204
 3031TIP3    H130652   1.818   5.450   6.814 -2.6107 -1.7646 -1.7355
 3031TIP3    H230653   1.900   5.326   6.782 -2.0318 -1.9021  0.2403
 3032TIP3   OH230654   0.214   5.506   7.498 -0.0186 -0.0930  0.4631
 3032TIP3    H130655   0.217   5.432   7.559 -1.0941 -0.7184 -0.2201
 3032TIP3    H230656   0.261   5.576   7.542  0.4780 -1.0008  1.3842
 3033TIP3   OH230657   3.756   4.244   6.654 -0.1882  0.8745 -0.2252
 3033TIP3    H130658   3.752   4.325   6.705  1.4377 -0.2379  1.7573
 3033TIP3    H230659   3.740   4.175   6.718  2.4311 -0.5961 -1.1154
 3034TIP3   OH230660   0.163   0.222   6.850  0.2251  0.9183  0.2571
 3034TIP3    H130661   0.130   0.269   6.927  1.8668  1.5711  0.5904
 3034TIP3    H230662   0.256   0.212   6.867 -0.0277 -2.1450 -0.0065
 3035TIP3   OH230663   1.075   0.918   0.652  0.3540  0.6953 -0.0911
 3035TIP3    H130664   1.050   0.981   0.719  0.1227  0.0535  0.4415
 3035TIP3    H230665   1.160   0.948   0.621  0.5309  0.9168  0.5979
 3036TIP3   OH230666   6.958   6.433   6.106  0.0974 -0.2912  0.1971
 3036TIP3    H130667   7.042   6.413   6.065 -0.3584  0.7519 -1.2954
 3036TIP3    H230668   6.893   6.410   6.040 -0.9386 -2.8755  2.0316
 3037TIP3   OH230669   5.131   5.685   7.404 -0.5605 -0.3958  0.4369
 3037TIP3    H130670   5.057   5.690   7.464 -2.4202  3.4031 -1.9698
 3037TIP3    H230671   5.110   5.612   7.346 -1.7496 -0.2235  0.6390
 3038TIP3   OH230672   4.283   6.839   6.985  0.5736 -0.1119  0.7810
 3038TIP3    H130673   4.354   6.891   6.947  1.3681  0.3185  2.8140
 3038TIP3    H230674   4.240   6.898   7.047  1.1272 -1.6905  2.6936
 3039TIP3   OH230675   0.524   5.376   0.527 -0.3375 -0.0028 -0.1395
 3039TIP3    H130676   0.465   5.400   0.598  1.3099 -0.1441  1.3203
 3039TIP3    H230677   0.607   5.419   0.549 -0.1526  1.0406 -2.6810
 3040TIP3   OH230678   0.151   0.424   7.738  0.1171 -0.4004  0.4100
 3040TIP3    H130679   0.109   0.352   7.783 -2.0626  1.4280  1.3860
 3040TIP3    H230680   0.091   0.498   7.748  2.6399  1.7955  0.1815
 3041TIP3   OH230681   4.488   6.841   0.503 -0.1404 -0.1112  0.3254
 3041TIP3    H130682   4.397   6.831   0.530  0.4974 -2.0152  1.8676
 3041TIP3    H230683   4.518   6.920   0.547 -1.0491  0.5321 -0.2101
 3042TIP3   OH230684   5.719   5.361   7.454 -0.4487 -0.0378 -0.1072
 3042TIP3    H130685   5.684   5.291   7.399 -1.0648 -0.6203  1.0046
 3042TIP3    H230686   5.809   5.335   7.472  0.5960  1.4073 -2.8830
 3043TIP3   OH230687   0.004   5.400   6.149  0.1075 -0.0530 -0.1569
 3043TIP3    H130688   0.067   5.439   6.089  0.0236 -0.2949 -0.4017
 3043TIP3    H230689   0.044   5.317   6.175 -0.0945 -0.1922 -0.2877
 3044TIP3   OH230690   6.172   6.378   7.197 -0.3352 -0.5137  0.3516
 3044TIP3    H130691   6.236   6.345   7.259 -0.7267 -1.5777  0.2100
 3044TIP3    H230692   6.143   6.462   7.233 -0.0321 -0.7820  1.2254
 3045TIP3   OH230693   0.598   0.109   8.130 -0.1198 -0.2552 -0.1412
 3045TIP3    H130694   0.522   0.115   8.189  0.7897 -0.0009  1.0204
 3045TIP3    H230695   0.604   0.195   8.090  0.8053  0.4049  1.3591
 3046TIP3   OH230696   4.987   5.247   8.123  0.1432  0.0737 -0.3215
 3046TIP3    H130697   4.916   5.266   8.184 -0.4704  2.8373 -1.8217
 3046TIP3    H230698   5.064   5.287   8.163  0.5781 -1.5657  0.5354
 3047TIP3   OH230699   1.146   5.956   7.291  0.4454 -0.5351 -0.5973
 3047TIP3    H130700   1.076   5.927   7.232  1.0495 -1.3204 -0.9417
 3047TIP3    H230701   1.114   5.935   7.378 -0.2562  0.1987 -0.6789
 3048TIP3   OH230702   1.868   1.257   6.630  0.2250 -0.1624  0.5106
 3048TIP3    H130703   1.800   1.299   6.578  0.9037 -0.8300 -0.9259
 3048TIP3    H230704   1.855   1.292   6.719  0.5666  2.8100 -0.5632
 3049TIP3   OH230705   6.699   5.624   7.967  0.1349 -0.5147  0.5447
 3049TIP3    H130706   6.689   5.547   7.911 -1.2500 -0.6941  1.0127
 3049TIP3    H230707   6.612   5.664   7.967  1.5626  2.7728 -2.1412
 3050TIP3   OH230708   4.757   5.004   0.980 -0.9209  0.0585  0.0550
 3050TIP3    H130709   4.717   5.068   1.038 -0.2098  0.8746 -0.3549
 3050TIP3    H230710   4.803   4.943   1.038 -0.9702  0.3469  0.3947
 3051TIP3   OH230711   7.259   6.692   1.056 -0.0663 -0.1028  0.0167
 3051TIP3    H130712   7.250   6.764   1.119  0.7005  0.4457 -0.4976
 3051TIP3    H230713   7.314   6.727   0.987 -2.1915 -0.1825 -1.7762
 3052TIP3   OH230714   1.780   5.579   6.680 -0.1435  0.2279 -0.1197
 3052TIP3    H130715   1.821   5.601   6.597  2.0326  0.4843  0.9783
 3052TIP3    H230716   1.689   5.607   6.670 -0.2007 -0.7508 -2.7714
 3053TIP3   OH230717   0.890   6.371   6.531  0.1445 -0.0333  0.0490
 3053TIP3    H130718   0.930   6.311   6.468 -0.9192 -1.7475  0.9790
 3053TIP3    H230719   0.957   6.383   6.598 -0.1438 -1.3113  0.5793
 3054TIP3   OH230720   7.258   7.000   7.400 -0.8969  0.3403  0.8710
 3054TIP3    H130721   7.259   7.095   7.384  2.5384  0.0287 -1.3462
 3054TIP3    H230722   7.283   6.990   7.491  0.5693  1.5309  0.6162
 3055TIP3   OH230723   7.086   5.401   2.115  0.0881  0.0270 -0.4275
 3055TIP3    H130724   7.156   5.408   2.050  0.9477  1.9322  0.6542
 3055TIP3    H230725   7.068   5.492   2.141 -1.1188 -0.6140  1.0604
 3056TIP3   OH230726   6.752   6.523   6.823  0.3132 -0.0667  0.1929
 3056TIP3    H130727   6.690   6.476   6.880  0.8628 -1.3045 -0.2138
 3056TIP3    H230728   6.732   6.490   6.736  1.2319 -0.1038  0.0020
 3057TIP3   OH230729   6.930   1.802   6.865 -0.1283 -0.3028 -0.4448
 3057TIP3    H130730   6.988   1.733   6.833  0.0494 -0.0811 -0.6039
 3057TIP3    H230731   6.976   1.884   6.845 -0.6928 -0.1056 -0.9723
 3058TIP3   OH230732   5.403   0.600   7.270 -0.2825 -0.7367 -0.3968
 3058TIP3    H130733   5.366   0.615   7.183 -0.4987 -1.8003 -0.4990
 3058TIP3    H230734   5.402   0.505   7.280  1.0176 -0.6989  0.2127
 3059TIP3   OH230735   4.382   0.269   7.348 -0.4030 -0.0252  0.4405
 3059TIP3    H130736   4.303   0.308   7.309 -0.5728 -0.6489  0.1622
 3059TIP3    H230737   4.449   0.338   7.339 -1.1498  0.8508  1.5133
 3060TIP3   OH230738   4.497   4.228   1.214 -0.1926  0.2520  0.0346
 3060TIP3    H130739   4.551   4.307   1.209 -1.0884  1.1253  3.0188
 3060TIP3    H230740   4.449   4.237   1.296 -0.9619 -3.0056  0.0167
 3061TIP3   OH230741   2.684   6.358   7.783  0.3986 -0.1145 -0.6305
 3061TIP3    H130742   2.696   6.427   7.717 -0.6489  0.0259 -0.6735
 3061TIP3    H230743   2.763   6.304   7.776 -0.0323 -0.5200 -2.5066
 3062TIP3   OH230744   6.576   7.157   7.124  0.1175 -0.1629  0.6559
 3062TIP3    H130745   6.667   7.177   7.146 -0.6365  0.9839  2.7933
 3062TIP3    H230746   6.583   7.086   7.059  2.5187 -0.0197  0.6982
 3063TIP3   OH230747   7.090   5.596   7.135  0.2371  0.2652 -0.2352
 3063TIP3    H130748   7.181   5.568   7.131  0.5073  1.0696  0.3561
 3063TIP3    H230749   7.040   5.516   7.117  1.0550 -0.1583 -0.6391
 3064TIP3   OH230750   1.142   6.145   0.128 -0.0809  0.1353  0.1743
 3064TIP3    H130751   1.202   6.184   0.191  0.2211 -0.1009  0.0286
 3064TIP3    H230752   1.100   6.073   0.175 -0.6628  0.6525  0.4544
 3065TIP3   OH230753   6.746   6.294   5.952  0.9024 -0.7995  0.2355
 3065TIP3    H130754   6.703   6.241   5.885  1.7141  0.3378 -1.2140
 3065TIP3    H230755   6.683   6.362   5.975  0.3793 -1.5627  1.1213
 3066TIP3   OH230756   5.361   0.979   7.010 -0.1747  0.8668 -0.0311
 3066TIP3    H130757   5.404   0.951   7.092 -1.1209 -0.9412 -0.1361
 3066TIP3    H230758   5.280   0.929   7.007 -0.8605  2.0294 -1.3620
 3067TIP3   OH230759   5.562   5.529   6.859 -0.1756  0.2410  0.2467
 3067TIP3    H130760   5.573   5.446   6.905 -0.2856 -0.9730 -1.8457
 3067TIP3    H230761   5.471   5.527   6.828  0.9278 -0.7053 -3.2047
 3068TIP3   OH230762   6.070   0.662   2.106 -0.0235  0.2479 -0.0830
 3068TIP3    H130763   6.092   0.702   2.022  1.9439  1.9246  1.1829
 3068TIP3    H230764   6.005   0.721   2.144 -0.0357  0.1291  0.0797
 3069TIP3   OH230765   6.900   6.538   7.214 -0.0895  0.2119  0.6020
 3069TIP3    H130766   6.923   6.516   7.123  1.6144  1.4371  0.7069
 3069TIP3    H230767   6.865   6.457   7.250 -1.2771 -0.1502 -1.2964
 3070TIP3   OH230768   2.666   4.967   6.749  0.0833 -0.0643  0.3340
 3070TIP3    H130769   2.704   5.010   6.825  1.2183 -1.1871  0.4202
 3070TIP3    H230770   2.696   5.019   6.674  2.3804 -1.2873  0.3460
 3071TIP3   OH230771   0.984   7.212   8.479  0.3204 -0.1434  0.8114
 3071TIP3    H130772   1.073   7.182   8.501  0.6584  1.1219  1.1810
 3071TIP3    H230773   0.956   7.263   8.555 -0.8014 -0.6893  0.7722
 3072TIP3   OH230774   6.605   5.264   7.066 -0.6971  0.3064  0.4982
 3072TIP3    H130775   6.646   5.199   7.123 -0.9486 -0.6983 -0.4472
 3072TIP3    H230776   6.678   5.308   7.023 -0.5677 -1.6914 -1.4195
 3073TIP3   OH230777   5.919   5.480   6.708 -0.1609 -0.1499  0.0060
 3073TIP3    H130778   5.989   5.545   6.713  0.1285 -0.2354 -2.3608
 3073TIP3    H230779   5.849   5.524   6.660  0.1735 -1.6626 -1.9353
 3074TIP3   OH230780   4.930   6.444   7.536  0.0356 -0.5686 -0.2656
 3074TIP3    H130781   4.942   6.425   7.443 -0.6194 -1.3772 -0.1946
 3074TIP3    H230782   4.885   6.367   7.571  1.4615 -0.8511  1.0074
 3075TIP3   OH230783   6.672   5.706   6.915 -0.5589 -0.4107  0.2819
 3075TIP3    H130784   6.731   5.782   6.920 -0.8660 -0.2458  1.5195
 3075TIP3    H230785   6.598   5.731   6.969 -0.9810 -1.3262  0.1167
 3076TIP3   OH230786   0.686   4.479   0.223 -0.4368 -0.7726 -0.0758
 3076TIP3    H130787   0.732   4.537   0.284 -0.2462 -0.0805 -0.8542
 3076TIP3    H230788   0.726   4.498   0.138 -2.5543  0.2775 -0.8866
 3077TIP3   OH230789   6.447   3.763   6.915 -0.3403 -0.7436 -0.0615
 3077TIP3    H130790   6.414   3.731   6.831 -0.6494  1.9505 -1.0134
 3077TIP3    H230791   6.373   3.808   6.955  0.8287  1.2340 -0.0678
 3078TIP3   OH230792   4.023   5.457   7.494  0.4536 -0.0009  0.9032
 3078TIP3    H130793   3.964   5.521   7.534  1.1955  1.1940  0.1445
 3078TIP3    H230794   3.983   5.372   7.513 -1.9065  0.7983 -0.2166
 3079TIP3   OH230795   0.162   5.546   5.982  0.5375 -0.3307  0.2404
 3079TIP3    H130796   0.193   5.510   5.899 -1.3344 -0.3706 -0.4681
 3079TIP3    H230797   0.183   5.640   5.977  1.9896 -0.6390  0.4696
 3080TIP3   OH230798   7.160   0.836   7.047 -0.1626  0.4085 -0.1902
 3080TIP3    H130799   7.083   0.789   7.079  0.4052  0.3786  1.1648
 3080TIP3    H230800   7.213   0.851   7.125  2.3235 -1.6025 -1.4122
 3081TIP3   OH230801   6.411   1.265   7.468 -0.1243 -0.2338 -0.3615
 3081TIP3    H130802   6.345   1.199   7.488 -0.2529 -0.4870 -1.6322
 3081TIP3    H230803   6.490   1.234   7.513 -0.4862 -0.6519 -0.0080
 3082TIP3   OH230804   0.544   1.746   6.759  0.0553  0.0266  0.5940
 3082TIP3    H130805   0.631   1.784   6.740  1.4226 -3.2873 -0.1150
 3082TIP3    H230806   0.556   1.652   6.746 -3.5535 -0.5451  1.0164
 3083TIP3   OH230807   1.938   6.328   6.150  0.2248 -0.3744  0.1133
 3083TIP3    H130808   1.982   6.412   6.165 -0.3400 -0.0734  0.0896
 3083TIP3    H230809   2.009   6.263   6.155  1.0091  0.2817 -1.8078
 3084TIP3   OH230810   2.834   1.542   8.032 -0.2237 -0.3578 -0.0897
 3084TIP3    H130811   2.902   1.540   7.963 -1.2426 -0.5445 -1.1039
 3084TIP3    H230812   2.753   1.561   7.984 -1.0112 -0.8983  1.0230
 3085TIP3   OH230813   4.206   3.574   1.556  0.6197  0.6794  0.0142
 3085TIP3    H130814   4.287   3.611   1.591  0.1754  1.9911 -0.3054
 3085TIP3    H230815   4.226   3.482   1.542  1.4832  0.5948  1.6617
 3086TIP3   OH230816   2.274   3.019   0.643  0.5905 -0.4679  0.2116
 3086TIP3    H130817   2.278   2.935   0.689 -1.2961 -0.1606  0.9557
 3086TIP3    H230818   2.200   3.065   0.682  2.2747  2.0267  0.6049
 3087TIP3   OH230819   2.992   6.569   7.890  0.4921  0.3502 -0.5094
 3087TIP3    H130820   2.923   6.634   7.894 -0.0807 -0.1847 -1.5232
 3087TIP3    H230821   2.962   6.498   7.947  1.2459  1.0818  0.8164
 3088TIP3   OH230822   1.453   6.800   7.721  0.0623  0.2770  0.0231
 3088TIP3    H130823   1.457   6.744   7.644 -0.5154 -2.4792  1.9244
 3088TIP3    H230824   1.364   6.834   7.722  0.3740  1.1645 -1.0601
 3089TIP3   OH230825   4.469   5.446   0.464 -0.3400 -0.3321 -0.7673
 3089TIP3    H130826   4.540   5.406   0.515 -1.6178 -0.5319  0.9116
 3089TIP3    H230827   4.480   5.540   0.478 -0.9322 -0.4040  0.2443
 3090TIP3   OH230828   2.253   1.319   0.448 -0.6859  0.6364  0.1937
 3090TIP3    H130829   2.206   1.338   0.367  1.1416  1.5596 -0.6767
 3090TIP3    H230830   2.236   1.394   0.505  1.4331  2.0196 -0.9245
 3091TIP3   OH230831   2.187   6.122   6.984  0.1291 -0.1601 -0.0248
 3091TIP3    H130832   2.233   6.044   7.014  1.4288 -0.4522 -2.6657
 3091TIP3    H230833   2.245   6.195   7.007  0.0820 -0.1729  0.1398
 3092TIP3   OH230834   1.693   2.401   7.857 -0.0937  0.0009 -0.8875
 3092TIP3    H130835   1.625   2.399   7.924  0.1356 -0.0873 -0.6549
 3092TIP3    H230836   1.731   2.313   7.859  0.0392  0.0561 -1.0046
 3093TIP3   OH230837   2.077   1.923   8.251  0.2111  0.6747 -0.0999
 3093TIP3    H130838   2.147   1.901   8.312 -0.9839 -0.0111  1.0471
 3093TIP3    H230839   2.007   1.860   8.271  0.2873 -0.4114 -3.0291
 3094TIP3   OH230840   0.046   1.717   1.419 -0.8822 -0.0311  0.0010
 3094TIP3    H130841   0.096   1.706   1.500  0.6208  1.9945 -0.6222
 3094TIP3    H230842  -0.041   1.744   1.449 -0.3011  0.8403  0.9290
 3095TIP3   OH230843   0.732   1.026   1.421 -0.4347  0.2707  0.4006
 3095TIP3    H130844   0.788   1.099   1.447 -1.1175 -0.0714  3.0077
 3095TIP3    H230845   0.783   0.948   1.442 -0.6667 -0.0240 -0.1077
 3096TIP3   OH230846   1.976   1.857   0.877  0.2561 -0.3160  0.3248
 3096TIP3    H130847   1.960   1.843   0.784 -0.8615 -0.8616  0.5871
 3096TIP3    H230848   2.001   1.950   0.884 -3.4314  0.7882 -0.0717
 3097TIP3   OH230849   2.385   0.940   7.024  0.1055  0.3746  0.3179
 3097TIP3    H130850   2.420   0.899   7.103 -0.3717  1.1081  0.9175
 3097TIP3    H230851   2.459   0.942   6.963  0.3805 -0.5063  0.6219
 3098TIP3   OH230852   0.170   3.399   1.403 -0.1533 -0.1917  0.3859
 3098TIP3    H130853   0.251   3.401   1.352  0.6801  0.1193  1.7119
 3098TIP3    H230854   0.104   3.435   1.343  0.7252 -0.1863 -0.6094
 3099TIP3   OH230855   2.610   3.635   1.508  1.0140  0.5852  0.2136
 3099TIP3    H130856   2.683   3.608   1.452  2.0342  2.1236  0.7723
 3099TIP3    H230857   2.626   3.591   1.592  1.7345  1.5232  0.5778
 3100TIP3   OH230858   0.877   2.637   6.939 -0.5166  0.1804 -0.2410
 3100TIP3    H130859   0.873   2.544   6.917  1.4022  0.1830 -0.6879
 3100TIP3    H230860   0.931   2.676   6.870  0.7668  1.1884  1.3022
 3101TIP3   OH230861   2.424   3.957   6.170  0.0976 -0.5993  0.0997
 3101TIP3    H130862   2.329   3.958   6.180 -0.1679 -1.5134 -1.9708
 3101TIP3    H230863   2.443   3.869   6.137  1.5102 -0.0189 -0.6823
 3102TIP3   OH230864   6.196   1.576   1.392  0.9654 -0.8294  0.0928
 3102TIP3    H130865   6.227   1.652   1.441 -0.4016  1.4506 -2.4611
 3102TIP3    H230866   6.262   1.562   1.325  0.2063 -0.5968 -0.7142
 3103TIP3   OH230867   3.176   6.169   6.568 -0.0684  0.2692 -0.1610
 3103TIP3    H130868   3.241   6.105   6.595  0.4138  1.1082  0.7115
 3103TIP3    H230869   3.188   6.178   6.473  0.3923 -0.3279 -0.1578
 3104TIP3   OH230870   2.539   3.249   6.165 -0.0018 -0.0262  0.0564
 3104TIP3    H130871   2.526   3.185   6.095  2.7134 -0.4565 -0.1090
 3104TIP3    H230872   2.462   3.306   6.160  0.6169  0.6279 -4.0298
 3105TIP3   OH230873   1.341   2.110   6.319 -0.1659 -0.4286 -0.4338
 3105TIP3    H130874   1.258   2.103   6.272 -0.9591  0.7710  0.7495
 3105TIP3    H230875   1.323   2.172   6.390  1.4936 -0.8510  0.3759
 3106TIP3   OH230876   1.153   3.844   8.134 -0.2967 -0.1086 -0.1774
 3106TIP3    H130877   1.108   3.908   8.079  1.3578  1.0768 -0.1898
 3106TIP3    H230878   1.117   3.858   8.221 -0.6993  0.1365 -0.3840
 3107TIP3   OH230879   1.426   5.058   1.433  0.0319  0.1061 -0.3298
 3107TIP3    H130880   1.395   5.145   1.456 -0.0179 -0.5329  2.1300
 3107TIP3    H230881   1.500   5.042   1.492  1.7173 -0.5074 -2.5200
 3108TIP3   OH230882   1.852   2.077   6.125  0.5744 -0.3246 -0.0058
 3108TIP3    H130883   1.836   1.983   6.135 -0.3333 -0.2531 -0.7204
 3108TIP3    H230884   1.770   2.118   6.153  1.4452  0.3214  1.6125
 3109TIP3   OH230885   3.836   0.244   7.310  0.0104 -0.0107 -0.1980
 3109TIP3    H130886   3.792   0.186   7.372 -4.1895  1.8519 -1.2894
 3109TIP3    H230887   3.884   0.306   7.365 -0.0868 -1.0207  1.0551
 3110TIP3   OH230888   0.957   6.758   7.134  0.5888 -0.2860 -0.2373
 3110TIP3    H130889   1.041   6.794   7.105  0.4078  0.2409 -0.1070
 3110TIP3    H230890   0.891   6.818   7.098  0.3724  0.5198  1.4766
 3111TIP3   OH230891   2.807   6.893   8.199  0.1568  0.3280  0.0752
 3111TIP3    H130892   2.779   6.802   8.187  1.5805 -0.0480 -0.5651
 3111TIP3    H230893   2.785   6.913   8.290 -1.7755 -0.0667 -0.2788
 3112TIP3   OH230894   1.464   1.334   7.095 -0.0244  0.4367 -0.6875
 3112TIP3    H130895   1.495   1.412   7.141  2.3349  0.3639 -2.1157
 3112TIP3    H230896   1.434   1.366   7.010 -2.0211  0.2094 -0.0910
 3113TIP3   OH230897   6.805   2.368   1.437 -0.1103  0.0220 -0.5148
 3113TIP3    H130898   6.770   2.364   1.526 -3.0757  1.1398 -1.5418
 3113TIP3    H230899   6.788   2.281   1.400 -0.5790  0.1299 -0.5600
 3114TIP3   OH230900   5.331   1.211   6.546  0.2435 -0.0512  0.6442
 3114TIP3    H130901   5.239   1.221   6.570  0.0876 -0.3612  0.1613
 3114TIP3    H230902   5.373   1.180   6.627 -0.2939 -1.1122  0.5180
 3115TIP3   OH230903   1.010   3.331   8.448 -0.2905 -0.1550  0.4786
 3115TIP3    H130904   1.014   3.368   8.537 -0.2499 -0.7664  0.7300
 3115TIP3    H230905   1.056   3.248   8.455  1.4458  0.6947 -0.5644
 3116TIP3   OH230906   0.449   0.602   6.595  0.1943  0.2617 -0.0081
 3116TIP3    H130907   0.356   0.600   6.617  0.3630 -0.8706  0.5969
 3116TIP3    H230908   0.451   0.641   6.507 -0.9392 -0.6983 -0.4798
 3117TIP3   OH230909   1.745   7.116   0.874  0.9456 -0.1622  0.0151
 3117TIP3    H130910   1.747   7.023   0.895 -0.1997  0.1583  1.6348
 3117TIP3    H230911   1.704   7.157   0.949  0.7221  1.5766 -1.0199
 3118TIP3   OH230912   0.953   0.836   7.127  0.3431 -0.3020  0.3643
 3118TIP3    H130913   0.980   0.824   7.218  0.1627 -0.7838  0.3566
 3118TIP3    H230914   0.860   0.812   7.127 -0.2458  1.8544  0.5028
 3119TIP3   OH230915   6.384   0.514   6.390  0.5306  0.1955 -0.4576
 3119TIP3    H130916   6.377   0.475   6.303  1.4121  0.9878 -0.8834
 3119TIP3    H230917   6.305   0.566   6.400 -1.5389 -3.0575  0.8057
 3120TIP3   OH230918   2.868   4.972   8.404  0.4758  0.0544  0.4813
 3120TIP3    H130919   2.822   5.003   8.326  0.7507  0.3387  0.4299
 3120TIP3    H230920   2.960   4.971   8.378  0.5743  0.2193  0.8241
 3121TIP3   OH230921   0.818   2.108   6.680  0.1503  0.0256 -0.1722
 3121TIP3    H130922   0.908   2.120   6.712 -0.0332 -0.9774  0.7276
 3121TIP3    H230923   0.767   2.176   6.724  0.2785 -0.0424  0.0789
 3122TIP3   OH230924   0.625   2.049   0.117  0.4409  0.1299 -0.3127
 3122TIP3    H130925   0.559   1.985   0.142 -0.9960  1.8960  0.5703
 3122TIP3    H230926   0.706   2.016   0.155 -0.2644 -1.1984  0.0581
 3123TIP3   OH230927   3.713   1.130   7.976  0.2318  0.2647  0.0056
 3123TIP3    H130928   3.659   1.155   7.901  1.9949  0.5118 -1.2204
 3123TIP3    H230929   3.735   1.038   7.959  0.7526  0.3644  0.1331
 3124TIP3   OH230930   2.849   0.498   6.929  0.1940  0.0036  0.3975
 3124TIP3    H130931   2.762   0.526   6.958 -0.5841 -1.6099 -0.3110
 3124TIP3    H230932   2.895   0.476   7.009 -1.3466 -2.7224  0.6030
 3125TIP3   OH230933   4.366   7.231   0.005  0.4628 -0.0995  0.4549
 3125TIP3    H130934   4.432   7.170  -0.029  0.8705  0.4888  0.1956
 3125TIP3    H230935   4.283   7.183  -0.002  0.6013 -0.1460 -0.9574
 3126TIP3   OH230936   4.452   5.375   6.464  0.4953 -0.1143 -1.0278
 3126TIP3    H130937   4.468   5.291   6.505  2.5476  0.7402 -0.0311
 3126TIP3    H230938   4.533   5.425   6.476 -0.8717  2.2335 -1.0567
 3127TIP3   OH230939   2.856   2.324   7.516  0.1877 -0.3187 -0.4209
 3127TIP3    H130940   2.943   2.283   7.517  0.3659  0.0639 -0.0951
 3127TIP3    H230941   2.836   2.336   7.424  0.5274 -0.3087 -0.4937
 3128TIP3   OH230942   4.207   0.415   1.128  0.2407  0.5013 -1.5541
 3128TIP3    H130943   4.179   0.329   1.097 -0.0425 -0.0859  0.2222
 3128TIP3    H230944   4.284   0.396   1.183  0.2351  1.3815 -1.2358
 3129TIP3   OH230945   2.797   1.955   1.580  0.5794 -0.3914  0.7520
 3129TIP3    H130946   2.847   2.028   1.616  0.0387 -0.9889  2.7554
 3129TIP3    H230947   2.729   1.996   1.527 -0.0296  0.5827  2.2623
 3130TIP3   OH230948   4.029   7.186   8.053 -0.5375  0.1127  0.3253
 3130TIP3    H130949   4.102   7.142   8.097 -0.8226  0.3956  1.0893
 3130TIP3    H230950   4.046   7.279   8.067 -0.8094  0.1929  0.1170
 3131TIP3   OH230951   1.003   0.803   5.904  0.5413 -0.8378  0.5807
 3131TIP3    H130952   0.921   0.770   5.868 -0.3344  0.8930  0.9415
 3131TIP3    H230953   0.983   0.892   5.932  2.9390  0.1953 -0.8041
 3132TIP3   OH230954   2.553   3.065   1.690 -0.4720  0.1113  0.2039
 3132TIP3    H130955   2.642   3.098   1.677 -0.0923 -0.8688  0.2703
 3132TIP3    H230956   2.508   3.134   1.738  0.4156  0.3778  0.6642
 3133TIP3   OH230957   2.987   3.228   0.024  0.5678 -0.2383 -0.0613
 3133TIP3    H130958   3.056   3.215   0.089  0.8421  1.5310  0.0338
 3133TIP3    H230959   3.017   3.303  -0.028 -1.2198  0.4838 -0.0862
 3134TIP3   OH230960   3.267   6.449   7.909 -0.2003  0.8712 -0.0200
 3134TIP3    H130961   3.293   6.416   7.823 -0.4009 -2.1207  0.9978
 3134TIP3    H230962   3.179   6.482   7.897 -0.0109  1.0155 -1.0867
 3135TIP3   OH230963   3.279   0.854   6.626  0.1615  0.0996 -0.0665
 3135TIP3    H130964   3.268   0.781   6.687  0.4764 -0.8587 -1.1379
 3135TIP3    H230965   3.213   0.839   6.558  0.4508  0.6214 -0.4731
 3136TIP3   OH230966   0.929   2.441   7.532  0.2429  0.6799 -0.5364
 3136TIP3    H130967   0.897   2.440   7.622 -2.3524  0.7788 -1.4108
 3136TIP3    H230968   0.898   2.358   7.495  2.2921  0.1071 -1.0262
 3137TIP3   OH230969   1.823   5.661   7.848 -0.1116 -0.0887 -0.3297
 3137TIP3    H130970   1.910   5.624   7.859  0.3112  1.4084  1.5846
 3137TIP3    H230971   1.767   5.607   7.904 -0.2065 -0.2743 -0.6003
 3138TIP3   OH230972   2.837   2.121   2.029  0.4141  0.0780  0.6712
 3138TIP3    H130973   2.760   2.143   2.081  1.6613  3.3193  1.2614
 3138TIP3    H230974   2.827   2.173   1.949  0.9785 -1.0376 -0.1345
 3139TIP3   OH230975   4.877   6.206   0.677 -0.3255  0.3922 -0.0930
 3139TIP3    H130976   4.854   6.214   0.770 -1.4420 -0.3456 -0.3003
 3139TIP3    H230977   4.922   6.288   0.656 -0.3361  0.6885  1.0187
 3140TIP3   OH230978   2.660   7.196   0.162  0.3930 -0.1452 -0.2963
 3140TIP3    H130979   2.674   7.273   0.217  2.5405 -0.4093 -0.4358
 3140TIP3    H230980   2.748   7.158   0.151 -0.4651 -1.9272 -1.2163
 3141TIP3   OH230981   3.568   2.027   0.982  0.0996  1.2944  0.4297
 3141TIP3    H130982   3.598   2.103   1.032 -1.1940  1.1048  1.5190
 3141TIP3    H230983   3.606   2.039   0.895 -1.0386  3.8047  0.2370
 3142TIP3   OH230984   1.415   0.465   6.585  0.8078 -0.1475  0.2565
 3142TIP3    H130985   1.442   0.382   6.546  1.9115  0.3607 -0.0809
 3142TIP3    H230986   1.358   0.505   6.520  0.7517 -0.3749  0.1665
 3143TIP3   OH230987   2.675   1.170   6.874  0.7311 -0.2334  0.0481
 3143TIP3    H130988   2.734   1.245   6.875  0.6140 -0.1397 -0.1085
 3143TIP3    H230989   2.602   1.198   6.818  0.6008 -0.3954  0.1391
 3144TIP3   OH230990   3.503   7.287   7.974 -0.4754  0.4229  0.8557
 3144TIP3    H130991   3.464   7.229   8.039  0.0320 -1.0982 -0.1816
 3144TIP3    H230992   3.590   7.306   8.009  0.4043 -1.6864 -0.1381
 3145TIP3   OH230993   0.736   4.142   7.728 -0.1662  0.0598 -0.2577
 3145TIP3    H130994   0.830   4.132   7.742 -0.6393 -1.1001  2.4213
 3145TIP3    H230995   0.701   4.054   7.733 -1.4423  0.5191 -0.8791
 3146TIP3   OH230996   4.137   3.004   6.990 -0.5502 -1.1851 -0.2721
 3146TIP3    H130997   4.053   3.046   6.971  0.1361 -0.1343 -1.0046
 3146TIP3    H230998   4.200   3.052   6.938  0.5509 -1.8369  0.4490
 3147TIP3   OH230999   4.003   0.152   8.106 -0.4247  0.2082 -0.4742
 3147TIP3    H131000   3.912   0.182   8.102 -0.2737  1.2511  2.5587
 3147TIP3    H231001   4.050   0.209   8.044 -1.7101  0.1135 -1.5433
 3148TIP3   OH231002   5.499   1.609   7.404 -0.2379  0.0969 -0.1539
 3148TIP3    H131003   5.414   1.642   7.376 -1.2329 -2.8847 -0.7540
 3148TIP3    H231004   5.562   1.666   7.360 -1.8775  0.3921 -2.1923
 3149TIP3   OH231005   5.554   0.115   1.824  0.0434 -0.3030 -0.6384
 3149TIP3    H131006   5.599   0.088   1.905  1.9644  0.5305 -1.3818
 3149TIP3    H231007   5.463   0.127   1.850  0.6747  0.1994  1.4791
 3150TIP3   OH231008   1.022   1.161   7.562  0.1626  0.4941  0.2788
 3150TIP3    H131009   1.043   1.227   7.628  2.1256  0.1922 -0.0143
 3150TIP3    H231010   1.043   1.202   7.478 -1.3255  0.5079 -0.0933
 3151TIP3   OH231011   2.722   0.757   8.488  0.0508  0.4461 -0.1962
 3151TIP3    H131012   2.656   0.704   8.532 -0.0474  0.8254  0.1194
 3151TIP3    H231013   2.708   0.846   8.522  1.8297  0.2342  1.2080
 3152TIP3   OH231014   2.870   0.454   7.880  0.3576 -0.2231 -0.3495
 3152TIP3    H131015   2.900   0.483   7.966  0.0066 -2.1183  0.4460
 3152TIP3    H231016   2.818   0.375   7.898 -1.6425  0.6639 -2.0888
 3153TIP3   OH231017   4.127   1.579   6.574  0.4274  0.1478  0.3879
 3153TIP3    H131018   4.065   1.632   6.625 -0.2740 -1.7450  1.5621
 3153TIP3    H231019   4.186   1.543   6.639  1.2600 -0.0448 -0.4697
 3154TIP3   OH231020   3.618   0.687   6.010 -0.0620  0.0715  0.3219
 3154TIP3    H131021   3.704   0.657   6.037 -0.1539 -0.6317 -0.1457
 3154TIP3    H231022   3.557   0.622   6.047 -0.5081  1.3139  1.8203
 3155TIP3   OH231023   3.235   6.988   7.445  0.0802 -0.3727  0.3157
 3155TIP3    H131024   3.226   6.924   7.515  0.7772  1.0925  1.8070
 3155TIP3    H231025   3.325   7.021   7.454  0.3668 -0.5585 -1.6284
 3156TIP3   OH231026   1.609   1.948   6.895 -0.0978  0.1351 -0.4733
 3156TIP3    H131027   1.608   1.929   6.989  1.8210  1.6935 -0.1136
 3156TIP3    H231028   1.547   2.021   6.886 -0.1271  0.1237 -0.3742
 3157TIP3   OH231029   5.156   3.903   6.089  0.2287  0.0494  0.1829
 3157TIP3    H131030   5.152   3.987   6.044  0.6806 -0.1185 -0.1739
 3157TIP3    H231031   5.077   3.900   6.143 -1.3894 -0.6391 -2.1354
 3158TIP3   OH231032   3.028   5.439   7.134  0.1567  0.1705  0.0531
 3158TIP3    H131033   2.952   5.387   7.109 -0.0001  0.7803 -0.7661
 3158TIP3    H231034   3.092   5.375   7.164 -0.8837 -0.3097  1.3270
 3159TIP3   OH231035   4.024   5.792   7.754  0.2449  0.3406  0.8311
 3159TIP3    H131036   3.961   5.786   7.682  0.2236  1.0252  0.7913
 3159TIP3    H231037   4.023   5.884   7.779 -1.0770 -0.2097  2.9143
 3160TIP3   OH231038   3.334   0.911   8.027 -0.6955 -0.3473 -0.2334
 3160TIP3    H131039   3.266   0.845   8.041  0.3850 -1.4342 -0.0482
 3160TIP3    H231040   3.381   0.880   7.949 -1.1549  1.0303 -1.0703
 3161TIP3   OH231041   3.996   6.579   0.879  0.5085  0.1359 -0.5085
 3161TIP3    H131042   3.984   6.515   0.808  0.7117 -1.2800  0.7052
 3161TIP3    H231043   3.907   6.597   0.910  0.5035 -0.1744 -0.3349
 3162TIP3   OH231044   1.903   0.106   0.442  0.3218 -0.1944 -0.7976
 3162TIP3    H131045   1.839   0.043   0.474 -1.9846  1.4211 -2.1131
 3162TIP3    H231046   1.897   0.180   0.501  0.1115  0.4560 -1.6179
 3163TIP3   OH231047   4.613   2.854   7.018  0.4146  0.1765  0.6032
 3163TIP3    H131048   4.522   2.824   7.007  0.3414 -0.3780  2.6464
 3163TIP3    H231049   4.608   2.948   7.004 -0.3987  0.0819  0.2072
 3164TIP3   OH231050   3.996   1.761   1.156  0.1110  0.3694 -0.5954
 3164TIP3    H131051   4.048   1.786   1.080 -0.3501  1.6019 -0.5132
 3164TIP3    H231052   3.905   1.781   1.131 -0.2853 -1.2662 -0.5426
 3165TIP3   OH231053   2.921   2.181   0.258  0.2404 -0.2331  0.1197
 3165TIP3    H131054   2.916   2.087   0.241 -1.7854  0.0664 -1.1394
 3165TIP3    H231055   3.009   2.195   0.294  0.9308 -2.4378 -0.6560
 3166TIP3   OH231056   5.941   7.003   7.109  0.4339  1.5102  0.4304
 3166TIP3    H131057   6.028   7.013   7.148  0.2403  2.3033  0.6743
 3166TIP3    H231058   5.900   6.932   7.159  0.6019  1.7650  0.9342
 3167TIP3   OH231059   6.760   5.664   1.471  0.4292  0.4766 -0.1661
 3167TIP3    H131060   6.723   5.729   1.411  1.3547  0.4772 -0.7381
 3167TIP3    H231061   6.810   5.715   1.535 -0.9328  0.5119  0.8927
 3168TIP3   OH231062   4.719   4.941   1.290  0.9201 -0.2300  0.3959
 3168TIP3    H131063   4.706   4.868   1.352  0.7728 -1.1282 -0.6744
 3168TIP3    H231064   4.814   4.942   1.274  0.8219 -0.7889 -0.2829
 3169TIP3   OH231065   5.886   2.493   1.876  0.9747  0.5096 -0.7500
 3169TIP3    H131066   5.855   2.493   1.967  3.9684  1.9891  0.3455
 3169TIP3    H231067   5.812   2.459   1.825 -1.0777  0.4962  2.1245
 3170TIP3   OH231068   3.703   1.510   6.048  0.2309  0.0799 -0.1486
 3170TIP3    H131069   3.767   1.440   6.058 -0.2395 -0.8803 -3.3927
 3170TIP3    H231070   3.756   1.588   6.031  0.6413 -0.0149  0.6570
 3171TIP3   OH231071   2.758   6.510   6.388  0.0314  0.5700  0.0070
 3171TIP3    H131072   2.788   6.437   6.441  0.0043  0.2411 -0.4238
 3171TIP3    H231073   2.738   6.471   6.303  0.1087  1.0945 -0.2555
 3172TIP3   OH231074   4.243   1.497   6.797 -0.3358 -0.1176  0.0008
 3172TIP3    H131075   4.236   1.576   6.851  0.3305  0.3872 -0.6399
 3172TIP3    H231076   4.234   1.424   6.859 -0.9984  0.4614  0.5857
 3173TIP3   OH231077   3.533   4.607   8.028  1.1546 -0.7056 -0.7472
 3173TIP3    H131078   3.560   4.699   8.025  0.4043 -0.4037  1.0027
 3173TIP3    H231079   3.443   4.607   7.994  0.9033 -0.6668 -0.1037
 3174TIP3   OH231080   4.812   1.628   6.618  0.3245  0.6801  0.3495
 3174TIP3    H131081   4.734   1.579   6.642  0.2129  1.5506  1.8306
 3174TIP3    H231082   4.884   1.566   6.628 -0.0476  0.1995  0.0660
 3175TIP3   OH231083   2.220   0.655   8.387 -0.3040  0.1323  0.1988
 3175TIP3    H131084   2.152   0.636   8.323  0.4393  0.7207 -0.7821
 3175TIP3    H231085   2.301   0.625   8.346  0.0339 -0.5668  1.3582
 3176TIP3   OH231086   4.079   5.221   7.147  0.2972 -0.2487 -0.1919
 3176TIP3    H131087   4.008   5.157   7.145 -0.6521  0.7236  0.8842
 3176TIP3    H231088   4.150   5.180   7.099 -0.6029 -1.7233 -0.3094
 3177TIP3   OH231089   5.421   0.125   6.882 -0.4125 -0.5575 -0.2832
 3177TIP3    H131090   5.488   0.177   6.837 -0.6986 -0.8595 -1.0733
 3177TIP3    H231091   5.427   0.039   6.840 -0.3619 -0.9803  0.5896
 3178TIP3   OH231092   4.712   5.052   1.722  0.1126  0.2380 -0.9169
 3178TIP3    H131093   4.784   4.990   1.722  1.5399  1.8551 -0.9617
 3178TIP3    H231094   4.709   5.086   1.811 -0.1139  0.7129 -1.1032
 3179TIP3   OH231095   3.946   1.907   7.304  0.2681  0.4580  0.2466
 3179TIP3    H131096   3.994   1.933   7.226 -0.7507 -2.5314 -1.4757
 3179TIP3    H231097   4.003   1.843   7.347 -1.3926 -1.9631 -1.0074
 3180TIP3   OH231098   3.124   1.694   6.803 -0.1731  0.0954  0.2643
 3180TIP3    H131099   3.142   1.699   6.709  0.3281 -1.3316  0.2719
 3180TIP3    H231100   3.164   1.612   6.831 -1.1844  0.0145  1.5381
 3181TIP3   OH231101   2.268   2.897   8.233 -0.2367 -0.0357 -0.1339
 3181TIP3    H131102   2.238   2.864   8.148 -1.5558 -0.2633  0.4145
 3181TIP3    H231103   2.234   2.834   8.297  0.9730 -0.0165  0.5521
 3182TIP3   OH231104   0.535   0.222   1.485  0.4780  0.3722 -0.1552
 3182TIP3    H131105   0.460   0.239   1.542 -0.2016  1.4633 -1.3599
 3182TIP3    H231106   0.607   0.271   1.526  0.3557 -0.0298  0.5546
 3183TIP3   OH231107   6.350   7.057   0.713 -0.2992  0.1680 -0.4240
 3183TIP3    H131108   6.439   7.089   0.729  0.0201 -1.1165  0.3456
 3183TIP3    H231109   6.303   7.076   0.794 -0.6774  0.6578 -0.7569
 3184TIP3   OH231110   5.442   5.037   0.885  0.0913  0.1010  0.3355
 3184TIP3    H131111   5.459   5.039   0.791  0.0444  1.3438  0.3444
 3184TIP3    H231112   5.442   4.944   0.908  0.9885 -0.1702 -0.7330
 3185TIP3   OH231113   3.810   0.817   7.975  0.3684 -0.0733 -0.8137
 3185TIP3    H131114   3.835   0.786   7.888  0.6046 -1.1957 -0.3497
 3185TIP3    H231115   3.798   0.738   8.027 -0.8667  0.5422 -0.1112
 3186TIP3   OH231116   5.688   6.850   1.984 -0.2101 -0.1365  0.5060
 3186TIP3    H131117   5.745   6.903   1.928 -1.9841  1.0101 -0.2556
 3186TIP3    H231118   5.746   6.820   2.055  1.1205  1.7835  0.2844
 3187TIP3   OH231119   3.664   5.408   0.905 -0.0005 -0.5343  0.2661
 3187TIP3    H131120   3.651   5.492   0.948  0.0420 -0.8956  0.9908
 3187TIP3    H231121   3.578   5.366   0.907  0.0823 -0.7026  0.3163
 3188TIP3   OH231122   5.286   1.427   6.785 -0.0706 -0.5073  0.6002
 3188TIP3    H131123   5.264   1.347   6.737  1.3088 -0.8049  0.4597
 3188TIP3    H231124   5.284   1.401   6.877  2.9022 -1.3651  0.4609
 3189TIP3   OH231125   2.834   0.013   1.287  0.3250 -0.8353 -0.4078
 3189TIP3    H131126   2.755   0.054   1.322  1.2600  1.4607 -0.8390
 3189TIP3    H231127   2.829  -0.078   1.314 -0.1254  0.3060  3.6490
 3190TIP3   OH231128   6.409   0.809   1.659 -0.1646  0.0398  0.2302
 3190TIP3    H131129   6.466   0.870   1.611 -0.7870  1.6381  1.4504
 3190TIP3    H231130   6.349   0.775   1.592 -0.2142  1.2708 -0.3872
 3191TIP3   OH231131   6.235   1.793   1.563  0.3136  0.0576 -0.2368
 3191TIP3    H131132   6.319   1.796   1.609 -0.3310  0.4083  0.9341
 3191TIP3    H231133   6.245   1.856   1.492  0.5422  1.2162  0.7972
 3192TIP3   OH231134   5.219   0.028   1.588 -0.5442  0.1258  0.2257
 3192TIP3    H131135   5.195  -0.049   1.536 -0.5362  0.8360 -0.8595
 3192TIP3    H231136   5.261   0.087   1.525 -1.1316  1.2905  0.8998
 3193TIP3   OH231137   4.716   0.983   0.923  0.2606  0.3648  0.1945
 3193TIP3    H131138   4.795   1.032   0.900  2.3992 -2.6449  0.8111
 3193TIP3    H231139   4.686   0.947   0.840 -1.0499  2.2410 -0.1854
 3194TIP3   OH231140   3.562   0.977   0.849  0.1316  0.4554 -0.0735
 3194TIP3    H131141   3.560   0.960   0.943 -0.3343 -0.2978 -0.2155
 3194TIP3    H231142   3.471   0.975   0.822  0.2175  1.2789 -0.4428
 3195TIP3   OH231143   5.063   6.170   7.761 -0.2020  0.3690 -0.0271
 3195TIP3    H131144   5.057   6.156   7.666 -1.8470 -2.5328  0.4719
 3195TIP3    H231145   4.985   6.219   7.783 -2.6103 -3.5251  0.5482
 3196TIP3   OH231146   3.034   2.165   7.219  0.1259 -0.3371  0.0557
 3196TIP3    H131147   3.036   2.181   7.313 -0.2597  0.8340 -0.1207
 3196TIP3    H231148   2.947   2.195   7.192 -0.1144 -1.5380 -0.5230
 3197TIP3   OH231149   6.070   5.946   0.128  0.1568  0.2751 -0.4995
 3197TIP3    H131150   6.121   5.898   0.063 -2.1029  0.0962 -2.1876
 3197TIP3    H231151   6.064   5.886   0.203 -0.3615 -1.0199 -1.5588
 3198TIP3   OH231152   3.098   0.186   6.625 -0.4845 -0.2337  0.1610
 3198TIP3    H131153   3.043   0.264   6.635  0.0736  0.0530  1.0402
 3198TIP3    H231154   3.042   0.114   6.655 -1.0566 -0.2020 -0.8112
 3199TIP3   OH231155   4.322   6.478   6.791  0.0989 -0.0532  0.0690
 3199TIP3    H131156   4.307   6.384   6.792 -0.4970  0.0011 -1.9451
 3199TIP3    H231157   4.251   6.514   6.738 -0.4957  1.6994  1.9881
 3200TIP3   OH231158   4.530   5.958   0.907  0.2145  0.5408  0.3313
 3200TIP3    H131159   4.558   5.953   0.816  0.6048  0.2822  0.4653
 3200TIP3    H231160   4.461   5.892   0.915  0.8601 -0.1185  0.4699
 3201TIP3   OH231161   6.720   0.134   0.421 -0.1612 -0.3537  0.4807
 3201TIP3    H131162   6.723   0.156   0.328 -2.6112  0.4972  0.5567
 3201TIP3    H231163   6.644   0.075   0.429  0.8417 -1.5141  1.7357
 3202TIP3   OH231164   5.281   5.504   1.597  0.0935  0.0655 -0.2139
 3202TIP3    H131165   5.190   5.476   1.595  0.0945  0.1249 -1.5282
 3202TIP3    H231166   5.289   5.566   1.524  1.1042  0.2937  0.0784
 3203TIP3   OH231167   5.203   0.003   8.402 -0.2429  0.3815  0.5210
 3203TIP3    H131168   5.155  -0.079   8.392  0.0736 -0.1141  2.8505
 3203TIP3    H231169   5.135   0.070   8.402 -0.4599  0.2178 -2.0339
 3204TIP3   OH231170   4.709   5.989   6.591  0.0745 -0.0278  0.4294
 3204TIP3    H131171   4.763   5.982   6.670 -0.5698  1.5126  1.0329
 3204TIP3    H231172   4.695   5.899   6.563  2.4730 -0.4790  0.5848
 3205TIP3   OH231173   4.464   2.346   6.405  0.2116  0.6019  0.1449
 3205TIP3    H131174   4.427   2.335   6.318 -0.9738  0.6595  0.6369
 3205TIP3    H231175   4.389   2.349   6.464  1.0568 -0.8564  1.3387
 3206TIP3   OH231176   4.396   6.182   7.083 -0.6504 -0.1110  0.1685
 3206TIP3    H131177   4.355   6.253   7.132  1.1052  0.6761  0.5513
 3206TIP3    H231178   4.482   6.171   7.124 -1.3689 -3.3488  0.9603
 3207TIP3   OH231179   6.528   3.033   1.516  0.4002 -0.0223  0.3522
 3207TIP3    H131180   6.616   2.996   1.520  0.7298  0.8452  1.4902
 3207TIP3    H231181   6.537   3.111   1.461  0.4772  0.3877  0.9349
 3208TIP3   OH231182   6.433   0.174   6.998  0.3399  0.3044  0.3147
 3208TIP3    H131183   6.516   0.160   7.043  0.5340  0.8608  0.1339
 3208TIP3    H231184   6.445   0.132   6.912  0.4121  0.3370  0.3090
 3209TIP3   OH231185   1.119   1.854   6.422  0.4810  0.0697 -0.5408
 3209TIP3    H131186   1.203   1.813   6.398 -0.6916 -1.1581 -2.7251
 3209TIP3    H231187   1.117   1.935   6.370 -0.9244 -1.3187 -2.7095
 3210TIP3   OH231188   3.417   2.605   6.759 -0.0148 -0.7009 -0.4274
 3210TIP3    H131189   3.405   2.697   6.783  0.2885 -0.4539 -1.2134
 3210TIP3    H231190   3.434   2.561   6.842  3.2406  0.5108 -0.3857
 3211TIP3   OH231191   0.799   7.297   7.895 -0.2915  0.1118 -0.0888
 3211TIP3    H131192   0.885   7.255   7.897  1.4967  3.6245  2.1488
 3211TIP3    H231193   0.745   7.245   7.955  1.2081 -0.2923  0.9300
 3212TIP3   OH231194   6.793   6.284   7.246 -0.0582 -0.1766  0.1127
 3212TIP3    H131195   6.712   6.330   7.224 -0.6827 -0.3055  2.0897
 3212TIP3    H231196   6.765   6.196   7.269  0.6065 -0.1483  1.0572
 3213TIP3   OH231197   0.286   0.740   1.879 -0.1423 -0.0785  0.6355
 3213TIP3    H131198   0.268   0.751   1.973 -0.5696  0.6764  0.4725
 3213TIP3    H231199   0.204   0.709   1.842 -0.7632  2.1371  0.0971
 3214TIP3   OH231200   5.084   1.376   7.093 -0.2941  0.6828  0.0431
 3214TIP3    H131201   5.174   1.346   7.089 -0.1019  1.1862  0.4940
 3214TIP3    H231202   5.088   1.469   7.070 -0.4001  1.2457  2.1399
 3215TIP3   OH231203   6.250   0.790   6.671  0.3374  0.0845 -0.2226
 3215TIP3    H131204   6.297   0.768   6.590  1.9235 -0.3566  0.8105
 3215TIP3    H231205   6.225   0.705   6.708  0.3680  0.2596  0.1995
 3216TIP3   OH231206   0.337   0.578   7.518 -0.4250 -0.2122 -0.0513
 3216TIP3    H131207   0.421   0.582   7.562  0.4033 -2.3290 -1.3980
 3216TIP3    H231208   0.286   0.515   7.569  0.6032 -2.8153 -2.1624
 3217TIP3   OH231209   7.250   7.283   7.460  0.9373  0.1372 -0.0292
 3217TIP3    H131210   7.267   7.376   7.474 -0.1971  0.3447 -0.0181
 3217TIP3    H231211   7.231   7.248   7.547  1.9904 -0.2443  0.0593
 3218TIP3   OH231212   4.675   0.901   6.996 -0.4833 -0.1018 -0.3077
 3218TIP3    H131213   4.590   0.921   7.035  0.2360  1.0834  0.6745
 3218TIP3    H231214   4.717   0.841   7.059 -0.4395 -0.3994 -0.6152
 3219TIP3   OH231215   2.537   7.265   1.362 -0.2551 -0.0940  0.3846
 3219TIP3    H131216   2.544   7.231   1.272  0.0685  1.7653 -0.3202
 3219TIP3    H231217   2.445   7.290   1.371 -1.3186 -4.2530  2.0980
 3220TIP3   OH231218   5.965   1.059   8.444 -0.6715  0.1603  0.0689
 3220TIP3    H131219   6.001   1.015   8.366  0.2307  0.1451  0.4871
 3220TIP3    H231220   5.871   1.043   8.439 -0.4006 -1.5121  0.0216
 3221TIP3   OH231221   1.758   1.160   7.525 -0.5978 -0.2448 -1.1301
 3221TIP3    H131222   1.823   1.125   7.585 -0.3783 -1.2572 -1.9348
 3221TIP3    H231223   1.746   1.090   7.460 -2.9429 -0.3278 -0.6491
 3222TIP3   OH231224   4.768   0.621   1.479  0.6963  0.0391 -0.1147
 3222TIP3    H131225   4.807   0.553   1.424  0.0666 -0.7608  0.4012
 3222TIP3    H231226   4.756   0.579   1.564 -0.4388  0.5455 -0.0071
 3223TIP3   OH231227   1.130   0.004   0.745 -0.3504  0.2264 -0.2528
 3223TIP3    H131228   1.119   0.047   0.829 -0.5312  1.4742 -0.9070
 3223TIP3    H231229   1.041  -0.009   0.713 -0.3348 -1.3975  0.3091
 3224TIP3   OH231230   5.583   1.940   2.506 -0.5520  0.4345  0.6743
 3224TIP3    H131231   5.554   1.920   2.417  0.4227  0.0857  0.4380
 3224TIP3    H231232   5.596   2.035   2.506  0.0562  0.3542  0.2619
 3225TIP3   OH231233   5.559   6.416   0.871 -0.0852  0.0179  0.2857
 3225TIP3    H131234   5.600   6.395   0.955  1.2474  1.3119 -0.0105
 3225TIP3    H231235   5.595   6.351   0.811  0.1530  0.0377  0.4031
 3226TIP3   OH231236   6.813   4.065   7.189  0.7657 -0.2509  0.1373
 3226TIP3    H131237   6.787   4.157   7.180 -0.9821 -0.8776 -1.6576
 3226TIP3    H231238   6.759   4.019   7.124  1.9666 -2.4765  0.6837
 3227TIP3   OH231239   6.444   1.033   0.544  0.0160 -0.3862  0.5317
 3227TIP3    H131240   6.451   0.948   0.501  4.5628  0.6869 -1.1077
 3227TIP3    H231241   6.390   1.085   0.484  1.4024 -0.6561 -0.9960
 3228TIP3   OH231242   0.710   3.009   6.470  0.2830  0.0781  0.0728
 3228TIP3    H131243   0.634   2.963   6.432  0.9765 -0.0042 -1.2504
 3228TIP3    H231244   0.768   3.024   6.395  1.5620  0.1636  1.0746
 3229TIP3   OH231245   4.598   0.084   6.427 -0.1007  0.5225 -0.3456
 3229TIP3    H131246   4.530   0.024   6.456 -0.4268 -0.7749 -3.6145
 3229TIP3    H231247   4.675   0.060   6.477 -1.4915  0.6513  1.9049
 3230TIP3   OH231248   1.891   0.054   0.989  0.2517  0.1395  0.0976
 3230TIP3    H131249   1.821   0.006   1.032 -1.5268  0.6356 -2.1591
 3230TIP3    H231250   1.911   0.126   1.049 -2.1384  0.7944  0.1602
 3231TIP3   OH231251   0.632   2.700   0.748  0.0362  0.1011  0.4170
 3231TIP3    H131252   0.720   2.730   0.726  0.6152 -1.3386  0.6906
 3231TIP3    H231253   0.645   2.637   0.819 -0.8129 -2.9574 -2.0024
 3232TIP3   OH231254   0.534   0.924   0.757  0.1860  0.0655  0.5107
 3232TIP3    H131255   0.478   0.902   0.832  0.0647  1.2786  0.7851
 3232TIP3    H231256   0.518   0.854   0.694 -1.4735  0.2658  0.6821
 3233TIP3   OH231257   1.766   0.605   7.702  0.3898  0.3020 -0.4155
 3233TIP3    H131258   1.761   0.701   7.706 -1.6299  0.1933  0.2193
 3233TIP3    H231259   1.846   0.583   7.750  0.7089  1.6569 -0.3130
 3234TIP3   OH231260   5.771   1.153   7.060  0.7147  0.2544  0.1640
 3234TIP3    H131261   5.829   1.226   7.082  1.3651 -0.3961  0.6316
 3234TIP3    H231262   5.828   1.076   7.057 -0.1710 -0.4539  0.9727
 3235TIP3   OH231263   6.529   6.761   0.088  0.4707 -0.0419 -0.4668
 3235TIP3    H131264   6.558   6.797   0.172  1.2256 -0.7569 -0.4185
 3235TIP3    H231265   6.558   6.670   0.090  0.7126  0.0093 -1.6109
 3236TIP3   OH231266   2.479   3.112   7.822 -0.4562 -0.7319  0.2032
 3236TIP3    H131267   2.496   3.018   7.816 -0.4163 -0.7044 -0.1796
 3236TIP3    H231268   2.392   3.123   7.782  1.1414 -0.1383 -3.3116
 3237TIP3   OH231269   5.168   7.006   2.057 -0.1951  0.1838  0.1228
 3237TIP3    H131270   5.134   7.007   1.968 -0.3388  1.5622  0.1823
 3237TIP3    H231271   5.262   6.990   2.047 -0.1454  0.7358 -0.3079
 3238TIP3   OH231272   6.195   5.637   6.664 -0.6343  0.0959 -0.2626
 3238TIP3    H131273   6.195   5.619   6.570  0.8755 -0.9919 -0.0610
 3238TIP3    H231274   6.223   5.729   6.671 -1.8261  0.5251 -0.9157
 3239TIP3   OH231275   1.672   2.203   0.531  0.0705 -0.3258  0.1907
 3239TIP3    H131276   1.710   2.181   0.446  0.0942 -0.3988  0.2194
 3239TIP3    H231277   1.710   2.288   0.554 -0.4205 -0.0109 -0.1572
 3240TIP3   OH231278   4.692   2.146   6.657  0.2478  0.0158 -0.2278
 3240TIP3    H131279   4.740   2.065   6.678  0.6240  0.2495 -0.1900
 3240TIP3    H231280   4.701   2.201   6.735 -0.0011  0.1014 -0.2575
 3241TIP3   OH231281   1.091   2.672   7.116 -0.0526 -0.0401 -0.4555
 3241TIP3    H131282   1.016   2.657   7.059  0.7588 -1.3119 -1.2427
 3241TIP3    H231283   1.056   2.667   7.204 -0.9133 -0.5207 -0.8187
 3242TIP3   OH231284   2.448   4.082   1.256 -0.1138 -0.4092 -0.1672
 3242TIP3    H131285   2.440   4.138   1.178 -0.2871  0.4234  0.4440
 3242TIP3    H231286   2.536   4.099   1.289 -0.9622  1.2128  1.3116
 3243TIP3   OH231287   6.004   1.915   7.021  0.3830 -0.2896 -0.0322
 3243TIP3    H131288   6.062   1.885   7.091  1.5340 -1.9766 -1.6464
 3243TIP3    H231289   6.062   1.950   6.955 -0.6978  1.2925 -0.1682
 3244TIP3   OH231290   0.811   0.301   7.281  0.3807 -0.2382 -0.9322
 3244TIP3    H131291   0.783   0.223   7.233  1.4235 -0.4230 -1.2530
 3244TIP3    H231292   0.862   0.352   7.218  1.0822 -0.0939 -0.2641
 3245TIP3   OH231293   0.468   4.337   6.119  0.2861  0.3754 -0.5060
 3245TIP3    H131294   0.516   4.376   6.192  0.7304  0.5374 -0.8742
 3245TIP3    H231295   0.421   4.411   6.079  0.6907  0.4368 -0.8722
 3246TIP3   OH231296   4.300   6.011   0.720  0.7078 -0.0786 -0.0849
 3246TIP3    H131297   4.300   6.007   0.816  1.8283 -1.5244 -0.1247
 3246TIP3    H231298   4.237   5.943   0.693 -0.4999  1.1217 -0.3772
 3247TIP3   OH231299   7.292   5.136   0.348 -0.1580 -0.3231  0.0911
 3247TIP3    H131300   7.259   5.048   0.331 -2.8058  0.7091 -0.2825
 3247TIP3    H231301   7.346   5.157   0.271 -1.2900 -0.8082 -0.8569
 3248TIP3   OH231302   2.719   0.129   0.246  0.2953  0.0991  0.8612
 3248TIP3    H131303   2.740   0.139   0.154  0.7281  0.0357  0.9536
 3248TIP3    H231304   2.801   0.147   0.292 -0.2734  1.5672  1.3119
 3249TIP3   OH231305   1.246   2.785   0.711  0.1020 -0.6280 -0.2411
 3249TIP3    H131306   1.252   2.770   0.806 -0.7532  0.2348 -0.0438
 3249TIP3    H231307   1.329   2.827   0.688  0.3016 -0.8124  0.1371
 3250TIP3   OH231308   1.912   2.524   7.984 -0.4413 -0.3763  0.1462
 3250TIP3    H131309   1.956   2.587   7.927  0.7607 -0.4871  0.9269
 3250TIP3    H231310   1.833   2.499   7.936 -1.5418  2.5468  0.2900
 3251TIP3   OH231311   1.665   1.183   0.306  0.4352  0.5310 -0.6751
 3251TIP3    H131312   1.649   1.137   0.224  0.9852 -2.6137  0.8984
 3251TIP3    H231313   1.595   1.154   0.364 -0.6045  3.5664 -0.2918
 3252TIP3   OH231314   7.170   3.261   2.643  0.4451  0.3134  0.2923
 3252TIP3    H131315   7.194   3.207   2.567  0.9679 -1.3437  1.6094
 3252TIP3    H231316   7.077   3.243   2.655  0.2990  0.7872 -0.1175
 3253TIP3   OH231317   1.919   1.659   0.381  0.5385  0.2456 -0.3800
 3253TIP3    H131318   1.855   1.620   0.322  1.2031 -1.8540  0.2546
 3253TIP3    H231319   2.004   1.646   0.337  1.0439 -1.3958  1.0464
 3254TIP3   OH231320   3.195   3.191   1.770 -0.0933 -0.1351 -0.2564
 3254TIP3    H131321   3.266   3.140   1.732  0.7305  1.0068 -0.2776
 3254TIP3    H231322   3.174   3.146   1.852  1.7802  0.4405  0.5660
 3255TIP3   OH231323   3.207   2.697   0.667 -0.0905 -0.4517 -0.1535
 3255TIP3    H131324   3.269   2.755   0.624 -0.6321  0.8577  0.8080
 3255TIP3    H231325   3.124   2.745   0.666 -0.7004 -1.4856  0.0539
 3256TIP3   OH231326   2.519   5.702   1.482 -0.7172  0.0923 -0.2770
 3256TIP3    H131327   2.502   5.617   1.441 -0.7290 -0.3322  0.5944
 3256TIP3    H231328   2.590   5.685   1.543 -2.5739  0.0672  1.9443
 3257TIP3   OH231329   0.766   3.819   7.895 -0.1547 -0.1999 -0.5597
 3257TIP3    H131330   0.838   3.763   7.923 -2.4382 -2.4805  1.1096
 3257TIP3    H231331   0.760   3.805   7.801 -1.2333 -3.6006 -0.0668
 3258TIP3   OH231332   6.879   5.404   7.931 -0.4819  0.4470 -0.6237
 3258TIP3    H131333   6.793   5.427   7.966 -0.5853 -2.2992  0.9795
 3258TIP3    H231334   6.862   5.331   7.871  0.7515 -0.2406 -0.1440
 3259TIP3   OH231335   7.054   4.842   1.317 -0.1055  0.5040 -0.3500
 3259TIP3    H131336   7.080   4.896   1.392 -1.4848  0.8255 -0.1007
 3259TIP3    H231337   7.093   4.756   1.334  0.0016  0.7185  0.4864
 3260TIP3   OH231338   1.142   3.432   0.532 -0.2578 -0.4550 -0.4438
 3260TIP3    H131339   1.089   3.352   0.538  0.2363 -0.8477 -1.2158
 3260TIP3    H231340   1.129   3.462   0.443  2.1633 -1.5054 -1.1779
 3261TIP3   OH231341   5.699   5.709   6.684 -0.0804  0.5580  0.3543
 3261TIP3    H131342   5.675   5.664   6.603  0.0453  0.8223  0.1701
 3261TIP3    H231343   5.657   5.658   6.753  1.7925 -1.1216  0.3315
 3262TIP3   OH231344   6.388   6.675   7.773  0.3614 -0.0502 -0.6050
 3262TIP3    H131345   6.451   6.716   7.832 -0.5340  0.9906 -0.3539
 3262TIP3    H231346   6.318   6.740   7.763 -2.1113 -2.2685  1.4295
 3263TIP3   OH231347   0.248   1.825   1.279 -0.4536  0.2491 -0.2669
 3263TIP3    H131348   0.180   1.790   1.336  1.1215 -0.2403  1.3826
 3263TIP3    H231349   0.240   1.920   1.289  0.3265  0.1525  1.4355
 3264TIP3   OH231350   0.035   5.958   2.011  0.3204  0.3514 -0.0124
 3264TIP3    H131351  -0.017   5.966   2.091 -0.1373  1.0469 -0.3720
 3264TIP3    H231352   0.109   5.903   2.035  0.0955  0.4254  0.8480
 3265TIP3   OH231353   2.966   0.786   8.332  0.1289 -0.2019 -0.0654
 3265TIP3    H131354   3.014   0.736   8.397  0.6787  2.0378  1.3164
 3265TIP3    H231355   2.873   0.770   8.353  0.2447 -2.3293 -1.0247
 3266TIP3   OH231356   1.442   6.504   1.902 -0.3114  0.1327  0.3370
 3266TIP3    H131357   1.465   6.445   1.831  0.0040  0.5266  0.1073
 3266TIP3    H231358   1.393   6.575   1.859 -0.1102  0.3768  0.5084
 3267TIP3   OH231359   6.216   1.163   6.305 -0.4951 -0.0123  0.0885
 3267TIP3    H131360   6.245   1.099   6.370  0.0085 -1.0909 -1.1868
 3267TIP3    H231361   6.128   1.135   6.280  0.4712 -1.3681 -1.9059
 3268TIP3   OH231362   2.400   3.543   8.092 -0.2027  0.3860  0.3480
 3268TIP3    H131363   2.306   3.541   8.107 -0.1988  1.2403  0.5628
 3268TIP3    H231364   2.410   3.524   7.999 -0.5824  0.1735  0.3499
 3269TIP3   OH231365   0.467   0.321   7.709  0.4051 -0.0356  0.0519
 3269TIP3    H131366   0.503   0.290   7.626 -0.8767  2.0065 -1.3133
 3269TIP3    H231367   0.383   0.275   7.718  0.4871 -0.1644  0.1649
 3270TIP3   OH231368   1.636   2.227   7.539  0.4528 -0.0574 -0.1196
 3270TIP3    H131369   1.594   2.165   7.479  1.5351 -0.6356 -0.2918
 3270TIP3    H231370   1.563   2.271   7.583 -0.3391 -0.3290 -1.1472
 3271TIP3   OH231371   6.269   0.175   1.632  0.0077 -0.2182 -0.0226
 3271TIP3    H131372   6.272   0.218   1.718  0.5116 -0.4957  0.0971
 3271TIP3    H231373   6.358   0.144   1.617  0.2554  1.0507 -1.2772
 3272TIP3   OH231374   1.456   4.673   2.256  1.3049 -0.1292  0.3678
 3272TIP3    H131375   1.455   4.589   2.302 -2.5188 -0.7474 -0.6541
 3272TIP3    H231376   1.387   4.724   2.298  0.9157  1.0062 -1.6073
 3273TIP3   OH231377   1.339   2.170   1.233 -0.6010 -0.5189 -0.7752
 3273TIP3    H131378   1.376   2.259   1.231  0.0093 -0.7431  0.1590
 3273TIP3    H231379   1.415   2.113   1.221 -0.3931 -1.0392  2.6083
 3274TIP3   OH231380   1.473   3.297   0.180  0.0204  0.5028 -0.4327
 3274TIP3    H131381   1.409   3.358   0.218 -0.0932  0.6108 -0.7913
 3274TIP3    H231382   1.479   3.226   0.243 -1.0788  0.0831 -0.7692
 3275TIP3   OH231383   4.661   0.953   8.431 -0.9844 -0.0550  0.4693
 3275TIP3    H131384   4.750   0.986   8.415  0.1361 -2.6295  1.0792
 3275TIP3    H231385   4.632   1.000   8.510 -0.2454  0.9635  0.1461
 3276TIP3   OH231386   1.344   3.448   1.983  0.6287 -0.6330 -0.8107
 3276TIP3    H131387   1.292   3.522   2.013  1.5437 -0.4613  0.3858
 3276TIP3    H231388   1.282   3.375   1.979  0.0001 -0.1047 -0.7792
 3277TIP3   OH231389   6.090   1.530   6.911  0.5733  0.2576  0.4453
 3277TIP3    H131390   6.018   1.509   6.852 -1.1758  1.2984  2.1536
 3277TIP3    H231391   6.122   1.444   6.941  0.9837 -0.2518 -1.3733
 3278TIP3   OH231392   0.747   3.069   7.966  0.1831  0.4004  0.2182
 3278TIP3    H131393   0.743   3.089   7.872 -0.5714 -0.9899 -0.0698
 3278TIP3    H231394   0.832   3.025   7.977 -0.0907 -0.1979  0.0099
 3279TIP3   OH231395   0.747   2.384   8.054  0.5474 -0.0541  0.0502
 3279TIP3    H131396   0.808   2.366   8.126  1.9498 -0.2492 -1.1619
 3279TIP3    H231397   0.676   2.322   8.067  0.5573  0.2259  1.5387
 3280TIP3   OH231398   3.148   0.110   0.469 -0.0706 -0.4081  0.9186
 3280TIP3    H131399   3.119   0.036   0.415 -2.4787  0.9526  0.2520
 3280TIP3    H231400   3.227   0.141   0.427 -1.4241  0.0655 -1.3687
 3281TIP3   OH231401   1.636   1.838   8.341 -0.2616 -0.2512 -0.4059
 3281TIP3    H131402   1.614   1.786   8.419  1.3070 -1.0686 -0.5006
 3281TIP3    H231403   1.623   1.929   8.369  0.9528 -0.5066  1.0330
 3282TIP3   OH231404   7.285   4.756   1.964  0.2338  0.0344  0.4397
 3282TIP3    H131405   7.190   4.768   1.961  0.1268 -0.6153  1.1034
 3282TIP3    H231406   7.311   4.753   1.872 -0.6717 -1.8571  0.2195
 3283TIP3   OH231407   1.135   0.547   7.393  0.0320 -0.6272 -0.0221
 3283TIP3    H131408   1.189   0.624   7.405 -1.7143  0.6518 -0.1937
 3283TIP3    H231409   1.089   0.536   7.476 -3.2106  1.3183 -1.4484
 3284TIP3   OH231410   3.579   2.874   6.596 -0.5601 -0.0001  0.0568
 3284TIP3    H131411   3.619   2.891   6.511 -1.4147 -1.1282 -0.5848
 3284TIP3    H231412   3.501   2.929   6.597 -1.0029 -0.6270 -0.2323
 3285TIP3   OH231413   3.445   4.227   1.862 -0.6619  0.4529  0.3771
 3285TIP3    H131414   3.397   4.191   1.936  0.4909 -1.0073  0.4174
 3285TIP3    H231415   3.508   4.288   1.901 -0.6200  0.3123  0.5250
 3286TIP3   OH231416   1.992   2.207   8.362 -0.0547  0.1529  0.6450
 3286TIP3    H131417   2.023   2.120   8.337 -3.0472 -0.6649 -0.4080
 3286TIP3    H231418   2.003   2.260   8.283  1.1860  0.6092  1.1034
 3287TIP3   OH231419   2.435   3.499   1.721  0.4240  0.4250 -0.3704
 3287TIP3    H131420   2.525   3.469   1.716  0.3509  0.3541 -1.2937
 3287TIP3    H231421   2.396   3.475   1.637 -0.8682 -0.8831  0.5665
 3288TIP3   OH231422   2.150   3.104   7.115  0.2361  0.3480 -0.6460
 3288TIP3    H131423   2.184   3.068   7.197 -0.3240 -0.6133 -0.8379
 3288TIP3    H231424   2.153   3.031   7.053 -0.4758  0.7491 -1.1545
 3289TIP3   OH231425   0.103   4.303   0.811  0.2954 -0.6283 -0.4280
 3289TIP3    H131426   0.066   4.262   0.732  0.7993  1.2876 -1.7136
 3289TIP3    H231427   0.026   4.325   0.864 -0.1338 -0.9224 -0.9208
 3290TIP3   OH231428   3.858   1.410   8.161  0.2113  0.3784 -0.5206
 3290TIP3    H131429   3.777   1.445   8.198  1.6698  1.2096  2.0679
 3290TIP3    H231430   3.861   1.319   8.192  0.9807  0.7944  0.6441
 3291TIP3   OH231431   2.605   1.458   0.011 -0.3423  0.0484  0.7166
 3291TIP3    H131432   2.588   1.514   0.086 -0.7871  0.8852 -0.0067
 3291TIP3    H231433   2.631   1.518  -0.059 -2.2995 -0.4780 -0.5114
 3292TIP3   OH231434   3.948   0.814   6.829 -0.2028  0.1582  0.1093
 3292TIP3    H131435   4.021   0.808   6.767  2.1464  0.9429  2.6664
 3292TIP3    H231436   3.911   0.726   6.831  0.4326 -0.1596 -1.5454
 3293TIP3   OH231437   3.961   3.659   1.225  0.1518  0.1367 -0.5332
 3293TIP3    H131438   3.891   3.669   1.290  1.1969  2.1489  0.3224
 3293TIP3    H231439   3.918   3.678   1.142 -0.9069 -1.1859 -0.2986
 3294TIP3   OH231440   2.684   6.910   2.675  0.1814  0.2919 -0.3422
 3294TIP3    H131441   2.693   6.821   2.709  1.0232 -0.4137 -2.3264
 3294TIP3    H231442   2.754   6.960   2.717  0.1449 -0.1445  0.2368
 3295TIP3   OH231443   3.576   2.057   7.160  0.1603  0.1324  0.9059
 3295TIP3    H131444   3.557   2.060   7.254  0.9595  2.1682  1.0315
 3295TIP3    H231445   3.636   1.983   7.150 -1.6512 -1.4734  1.6532
 3296TIP3   OH231446   3.108   1.778   6.541  0.0728 -0.2053  0.5932
 3296TIP3    H131447   3.135   1.769   6.449  0.1043  0.3227  0.5524
 3296TIP3    H231448   3.059   1.860   6.544 -2.7895 -1.8553  0.3766
 3297TIP3   OH231449   1.669   6.284   1.815 -0.0949 -0.1563  0.0329
 3297TIP3    H131450   1.724   6.288   1.893  0.1897 -0.3919 -0.1536
 3297TIP3    H231451   1.621   6.202   1.824 -0.7337  0.2557  0.4058
 3298TIP3   OH231452   3.374   2.156   1.926 -0.2824  0.2618 -0.3789
 3298TIP3    H131453   3.455   2.174   1.880 -0.1212 -0.0745 -0.2286
 3298TIP3    H231454   3.372   2.218   1.999  0.9948 -1.2867  1.0259
 3299TIP3   OH231455   4.673   0.595   6.691  0.4032 -0.5388  0.3021
 3299TIP3    H131456   4.759   0.627   6.666  0.9288 -1.6629  0.6691
 3299TIP3    H231457   4.662   0.513   6.643 -0.7416 -0.0744 -0.2590
 3300TIP3   OH231458   2.075   4.030   0.840 -0.1073  0.0604 -0.2235
 3300TIP3    H131459   2.070   4.038   0.935 -1.4844  0.3497 -0.3166
 3300TIP3    H231460   2.096   3.937   0.825 -1.6752 -0.3808  0.3063
 3301TIP3   OH231461   1.145   3.693   7.641 -0.2152 -0.4277  0.0557
 3301TIP3    H131462   1.087   3.729   7.575  1.0268 -0.3190 -0.9898
 3301TIP3    H231463   1.231   3.728   7.620  0.5907 -2.1130  0.4210
 3302TIP3   OH231464   0.754   1.520   1.593 -0.0817  0.6777 -0.6913
 3302TIP3    H131465   0.687   1.479   1.649  0.3640  0.0311 -0.6265
 3302TIP3    H231466   0.770   1.456   1.524  1.4389  0.2523  0.0432
 3303TIP3   OH231467   2.334   4.969   8.279  0.7239 -0.4735 -0.6283
 3303TIP3    H131468   2.362   4.975   8.187 -0.5740 -1.1156 -1.0744
 3303TIP3    H231469   2.333   5.060   8.309 -0.5029 -0.0913 -1.7624
 3304TIP3   OH231470   4.171   4.165   7.039  0.3027  0.0089  0.1014
 3304TIP3    H131471   4.164   4.158   7.135  0.6843 -0.9243  0.0670
 3304TIP3    H231472   4.088   4.129   7.007 -0.5287  1.8541  0.1221
 3305TIP3   OH231473   6.517   0.199   8.440 -0.5553 -0.1320 -0.4119
 3305TIP3    H131474   6.541   0.208   8.348  3.0052 -1.0076  0.3449
 3305TIP3    H231475   6.509   0.289   8.472 -0.5769  0.1724 -1.2735
 3306TIP3   OH231476   3.854   3.403   6.533  0.2596  0.2374 -0.0317
 3306TIP3    H131477   3.788   3.379   6.467  1.6159 -1.2169 -0.8933
 3306TIP3    H231478   3.904   3.474   6.493  0.2260  0.2698 -0.0169
 3307TIP3   OH231479   1.283   3.294   7.994  0.9505  0.0320  0.0668
 3307TIP3    H131480   1.287   3.357   7.921  0.4545 -0.2541 -0.2128
 3307TIP3    H231481   1.244   3.343   8.066  1.5509  0.3518  0.1778
 3308TIP3   OH231482   2.460   2.031   0.719  0.4895 -0.3559 -0.0778
 3308TIP3    H131483   2.415   2.113   0.699 -0.7704 -0.1004  3.4598
 3308TIP3    H231484   2.518   2.052   0.793  0.1304 -2.6320  0.9037
 3309TIP3   OH231485   2.962   4.940   0.310  0.2618  0.2131 -0.3529
 3309TIP3    H131486   2.935   4.943   0.401  1.3080  1.4239 -0.0669
 3309TIP3    H231487   3.048   4.898   0.312 -0.3386 -1.0862 -0.9504
 3310TIP3   OH231488   1.939   4.374   0.549  0.4158  0.2603  0.4182
 3310TIP3    H131489   1.947   4.364   0.454  2.4187  2.4229  0.3320
 3310TIP3    H231490   1.869   4.438   0.560 -1.2234 -1.4950  0.5010
 3311TIP3   OH231491   0.798   4.272   0.408  0.2015 -0.6272 -0.2882
 3311TIP3    H131492   0.732   4.320   0.456  0.8569  1.3413 -1.3236
 3311TIP3    H231493   0.863   4.337   0.383  1.5786 -2.1937 -0.9259
 3312TIP3   OH231494   7.159   3.987   2.059 -0.1867  0.4832 -0.5366
 3312TIP3    H131495   7.206   3.995   2.142  0.3309  1.3271 -0.8973
 3312TIP3    H231496   7.221   3.944   2.000 -1.7940 -3.4030  0.4609
 3313TIP3   OH231497   2.815   2.280   0.625  0.3984 -0.2318 -0.0080
 3313TIP3    H131498   2.740   2.240   0.580  1.6051 -0.9064 -1.4526
 3313TIP3    H231499   2.835   2.220   0.697 -0.7484  0.2077  0.6977
 3314TIP3   OH231500   3.212   1.162   6.691 -1.0350  0.1334 -0.2019
 3314TIP3    H131501   3.146   1.222   6.655 -0.4634  0.1365 -1.2640
 3314TIP3    H231502   3.210   1.086   6.633 -0.9126 -0.3751  0.4451
 3315TIP3   OH231503   4.887   5.796   1.658  0.0493 -0.1283  0.3315
 3315TIP3    H131504   4.871   5.843   1.740  2.1445  1.0421  0.1089
 3315TIP3    H231505   4.801   5.790   1.617 -0.6647  1.2231  1.5783
 3316TIP3   OH231506   1.441   4.500   0.155  0.4044  0.4741 -0.3667
 3316TIP3    H131507   1.493   4.528   0.230 -0.3308 -0.9511  0.7218
 3316TIP3    H231508   1.365   4.457   0.194  0.2892 -0.8054 -1.9373
 3317TIP3   OH231509   3.526   4.772   7.454  0.7966 -0.2635  0.0976
 3317TIP3    H131510   3.492   4.692   7.495  2.3263 -1.7204 -1.4150
 3317TIP3    H231511   3.621   4.766   7.467  1.1467  0.0781 -2.1675
 3318TIP3   OH231512   3.660   0.131   7.499  0.3178 -0.1393  0.1654
 3318TIP3    H131513   3.634   0.164   7.585 -1.1676 -0.8170 -0.0078
 3318TIP3    H231514   3.680   0.039   7.515  3.9779  0.6640  0.5591
 3319TIP3   OH231515   2.069   1.586   7.307  0.3644 -0.0117 -0.1575
 3319TIP3    H131516   2.019   1.521   7.357 -0.2821  0.4183 -0.2289
 3319TIP3    H231517   2.158   1.581   7.341  0.0888 -0.2413  0.5220
 3320TIP3   OH231518   2.264   3.802   0.370  0.4743  0.2054  0.5182
 3320TIP3    H131519   2.278   3.716   0.329  1.2483  1.5426 -2.1393
 3320TIP3    H231520   2.308   3.795   0.455  0.2613 -2.1307  0.4781
 3321TIP3   OH231521   0.651   1.651   7.868  0.1938 -0.0142  0.0830
 3321TIP3    H131522   0.603   1.720   7.915 -0.2985  1.4080 -2.4402
 3321TIP3    H231523   0.742   1.681   7.867  0.1401  0.1345 -0.2144
 3322TIP3   OH231524   0.404   6.196   8.428 -0.4046  0.1756 -0.4086
 3322TIP3    H131525   0.367   6.283   8.445 -2.5693 -0.7613 -0.2169
 3322TIP3    H231526   0.416   6.157   8.514 -0.2323 -0.0491 -0.5334
 3323TIP3   OH231527   3.352   4.019   0.022  0.1147  0.0982  0.3896
 3323TIP3    H131528   3.345   3.952   0.089  1.5972  0.1080  0.5824
 3323TIP3    H231529   3.398   4.091   0.065  3.8953 -1.0831 -1.4606
 3324TIP3   OH231530   2.499   6.159   7.756 -0.0894  1.0189  0.6989
 3324TIP3    H131531   2.564   6.228   7.766  2.0950 -0.7060 -1.0420
 3324TIP3    H231532   2.546   6.088   7.711 -2.1682 -1.7007  2.6243
 3325TIP3   OH231533   3.957   0.056   8.424  0.0798 -0.2094  0.3365
 3325TIP3    H131534   4.011  -0.014   8.390 -1.6656 -0.8022 -1.2881
 3325TIP3    H231535   4.009   0.136   8.412 -0.0052 -0.5658 -2.5891
 3326TIP3   OH231536   0.083   2.499   0.508 -0.2088  0.8066 -0.1309
 3326TIP3    H131537   0.035   2.520   0.428  2.9254  0.6101 -2.1733
 3326TIP3    H231538   0.099   2.584   0.550 -0.7137  1.0414 -0.4103
 3327TIP3   OH231539   3.199   3.154   7.656  0.7165 -0.2807 -0.4052
 3327TIP3    H131540   3.224   3.064   7.676  2.9289  0.2791 -0.6051
 3327TIP3    H231541   3.104   3.150   7.643  0.6121 -2.3447  0.8538
 3328TIP3   OH231542   3.723   4.565   6.633 -0.6784  0.2470 -0.2652
 3328TIP3    H131543   3.775   4.543   6.555 -1.3069 -1.5058 -0.2099
 3328TIP3    H231544   3.788   4.582   6.701 -0.1485 -1.3550 -0.3526
 3329TIP3   OH231545   2.438   6.199   0.397 -0.1671  0.2073 -0.1002
 3329TIP3    H131546   2.427   6.293   0.384  0.6303  0.1654 -1.0657
 3329TIP3    H231547   2.489   6.169   0.322  0.0604 -0.9054  0.4773
 3330TIP3   OH231548   2.692   2.786   1.270  0.1393 -0.1579  0.2634
 3330TIP3    H131549   2.734   2.746   1.194  0.4785 -1.8610  1.3184
 3330TIP3    H231550   2.649   2.864   1.235  3.6466  1.3426 -0.9654
 3331TIP3   OH231551   3.574   5.697   0.159  0.0779  0.4556 -0.0950
 3331TIP3    H131552   3.527   5.623   0.121  1.0440 -0.5289  0.5874
 3331TIP3    H231553   3.659   5.697   0.116 -0.6016  2.4039 -1.5313
 3332TIP3   OH231554   6.863   0.857   1.770 -0.1139 -0.4051  0.0131
 3332TIP3    H131555   6.837   0.767   1.751 -1.8879  0.1363 -0.2016
 3332TIP3    H231556   6.847   0.905   1.689  1.7050 -0.0583 -0.1642
 3333TIP3   OH231557   5.239   2.332   2.304  0.3716  0.4314  0.0397
 3333TIP3    H131558   5.191   2.324   2.222  0.0124 -0.3842  0.3209
 3333TIP3    H231559   5.190   2.278   2.366  1.1483  0.2974  0.5566
 3334TIP3   OH231560   2.568   1.576   0.231  0.4313  0.5368 -0.3438
 3334TIP3    H131561   2.642   1.585   0.291  0.5518 -1.1249 -0.2157
 3334TIP3    H231562   2.491   1.589   0.286  0.5695 -0.0466 -0.0120
 3335TIP3   OH231563   2.454   7.060   0.270 -0.0436  0.1036  0.0982
 3335TIP3    H131564   2.442   6.978   0.222 -1.8939 -0.0212  0.7349
 3335TIP3    H231565   2.532   7.099   0.231 -0.0885 -1.1694 -1.3316
 3336TIP3   OH231566   6.048   2.276   2.099  0.3457 -0.2386  0.1726
 3336TIP3    H131567   6.132   2.315   2.125  0.8830  0.0315 -1.8902
 3336TIP3    H231568   5.985   2.348   2.107  0.9105  0.4454 -1.3648
 3337TIP3   OH231569   3.502   2.498   1.152 -0.1614 -0.4656 -0.3539
 3337TIP3    H131570   3.538   2.571   1.203 -0.1179  0.2059 -1.3257
 3337TIP3    H231571   3.579   2.445   1.129  0.0163  0.0898 -1.0557
 3338TIP3   OH231572   5.210   4.030   1.486  0.0472 -0.0490  0.0372
 3338TIP3    H131573   5.125   4.027   1.530  0.1166  0.9474  0.2530
 3338TIP3    H231574   5.226   3.940   1.459 -2.8710  0.3496 -3.4187
 3339TIP3   OH231575   0.722   0.814   8.416  0.3450  0.2246 -0.4277
 3339TIP3    H131576   0.765   0.857   8.341  0.9956  0.9397  0.3457
 3339TIP3    H231577   0.632   0.800   8.387  0.4794  0.8939 -1.1939
 3340TIP3   OH231578   2.711   2.755   6.974  0.3174  0.2638  0.0588
 3340TIP3    H131579   2.675   2.751   6.885 -2.1520 -1.1293  1.0721
 3340TIP3    H231580   2.696   2.845   7.002 -0.4818  0.2467 -0.2995
 3341TIP3   OH231581   4.249   4.647   0.548  0.0043 -0.2058  0.0438
 3341TIP3    H131582   4.330   4.666   0.596  0.8808 -1.6468 -0.8166
 3341TIP3    H231583   4.279   4.624   0.460 -1.2677 -1.7236 -0.0115
 3342TIP3   OH231584   1.676   1.489   7.941 -0.2138  0.0419 -0.0521
 3342TIP3    H131585   1.758   1.441   7.952  1.0777  2.4946  1.4574
 3342TIP3    H231586   1.655   1.522   8.028 -0.5259  2.9849 -1.1695
 3343TIP3   OH231587   1.464   2.772   7.393 -0.0605 -0.0916 -0.4162
 3343TIP3    H131588   1.525   2.845   7.405  0.9150 -0.7871 -0.9870
 3343TIP3    H231589   1.449   2.768   7.299 -1.2461  0.2708 -0.2425
 3344TIP3   OH231590   4.958   6.731   1.746 -0.8821 -0.8096  0.1645
 3344TIP3    H131591   4.867   6.748   1.720 -0.7515 -0.4958 -0.0867
 3344TIP3    H231592   4.984   6.809   1.796 -0.6920 -0.8159  0.0775
 3345TIP3   OH231593   1.516   1.984   0.574  0.3221  0.4661 -0.2023
 3345TIP3    H131594   1.554   1.897   0.584  1.0168  0.4864 -2.4451
 3345TIP3    H231595   1.590   2.040   0.549 -0.5513  1.2024 -1.1641
 3346TIP3   OH231596   4.848   6.957   7.560 -0.1216  0.1442  0.0600
 3346TIP3    H131597   4.872   6.869   7.589 -0.3579  0.7244  2.0922
 3346TIP3    H231598   4.756   6.951   7.536  0.0948 -0.3567 -0.6583
 3347TIP3   OH231599   4.040   4.275   6.731 -0.0262  0.0570 -0.3381
 3347TIP3    H131600   3.968   4.283   6.668  0.2391 -1.4993 -0.8768
 3347TIP3    H231601   3.997   4.273   6.817 -0.6111 -0.4737 -0.6389
 3348TIP3   OH231602   3.484   4.206   0.163  0.1257 -0.5115 -0.7064
 3348TIP3    H131603   3.518   4.254   0.088  0.2160  1.3862  0.5230
 3348TIP3    H231604   3.551   4.216   0.230  0.1788 -2.4454 -0.4255
 3349TIP3   OH231605   6.758   1.051   0.101 -0.7551 -0.0807 -0.3346
 3349TIP3    H131606   6.759   1.117   0.171 -0.3793  0.7396 -1.1082
 3349TIP3    H231607   6.829   0.991   0.123  0.0313  0.7548 -0.5567
 3350TIP3   OH231608   3.002   0.515   8.103  0.3725 -0.4398  0.0138
 3350TIP3    H131609   3.061   0.589   8.085 -0.8680  0.4611 -0.4475
 3350TIP3    H231610   3.055   0.454   8.153  1.0371  1.3887  1.6136
 3351TIP3   OH231611   1.468   3.243   1.491  0.0271  0.2813  0.4792
 3351TIP3    H131612   1.422   3.322   1.518  0.3335  0.7262 -0.2809
 3351TIP3    H231613   1.514   3.213   1.569 -1.7407 -0.3015  1.3211
 3352TIP3   OH231614   0.321   6.154   7.034  0.5895  0.0830 -0.2114
 3352TIP3    H131615   0.356   6.108   7.110 -0.4805  2.0438  1.5413
 3352TIP3    H231616   0.398   6.178   6.982  1.4086 -0.5193  0.7155
 3353TIP3   OH231617   5.021   5.884   7.764 -0.0886  0.0944  0.6658
 3353TIP3    H131618   5.025   5.957   7.827  0.5501 -0.1485  0.9104
 3353TIP3    H231619   5.112   5.854   7.757 -0.0835  0.4528 -0.7638
 3354TIP3   OH231620   0.787   1.385   7.597  0.0045  0.0575 -0.2312
 3354TIP3    H131621   0.747   1.298   7.599  1.4702 -0.5927  2.2948
 3354TIP3    H231622   0.843   1.383   7.519 -1.2157 -0.6735 -1.1117
 3355TIP3   OH231623   2.679   2.856   6.356  0.5421 -0.0068  0.2875
 3355TIP3    H131624   2.653   2.945   6.376  0.0810 -0.0721 -0.0020
 3355TIP3    H231625   2.598   2.806   6.359  0.5764 -0.1665 -0.8777
 3356TIP3   OH231626   3.695   6.948   7.894  0.0367 -0.3973  0.1369
 3356TIP3    H131627   3.675   6.861   7.859  0.5118 -0.2718 -0.4604
 3356TIP3    H231628   3.665   6.946   7.984 -0.7226 -0.9130 -0.1260
 3357TIP3   OH231629   4.030   6.866   8.148  0.3432 -0.0406  0.5875
 3357TIP3    H131630   4.042   6.775   8.175  0.3206  0.7197  3.3730
 3357TIP3    H231631   3.935   6.880   8.152  0.0835 -0.5856 -2.4167
 3358TIP3   OH231632   3.118   3.269   0.392  0.0341  0.3310 -0.0313
 3358TIP3    H131633   3.176   3.319   0.335 -0.7454 -0.5492 -1.6281
 3358TIP3    H231634   3.154   3.281   0.480  1.8445  0.8652 -0.8296
 3359TIP3   OH231635   4.880   7.250   8.093 -0.2828  0.1989 -1.0029
 3359TIP3    H131636   4.851   7.334   8.129  1.6718  0.6392 -0.4043
 3359TIP3    H231637   4.889   7.193   8.169  1.4547  0.4026 -1.0297
 3360TIP3   OH231638   7.032   0.959   0.673 -0.2274 -0.5033 -0.3764
 3360TIP3    H131639   6.965   1.001   0.618  0.0350 -0.4182 -0.6309
 3360TIP3    H231640   6.982   0.908   0.736 -0.5695  0.6695  0.3191
 3361TIP3   OH231641   4.651   1.870   6.078  0.3511  0.1808 -0.0346
 3361TIP3    H131642   4.567   1.900   6.114 -0.1075  0.7374 -1.5262
 3361TIP3    H231643   4.716   1.926   6.119 -0.3945  2.4648 -1.8722
 3362TIP3   OH231644   4.293   6.419   0.495  0.4220 -0.0732 -0.3951
 3362TIP3    H131645   4.222   6.359   0.473  0.0137  0.2625 -0.0303
 3362TIP3    H231646   4.248   6.496   0.531  0.8867  0.8729 -1.8295
 3363TIP3   OH231647   3.014   1.230   0.592  0.3289 -0.0519  0.0189
 3363TIP3    H131648   2.976   1.311   0.627 -1.7092 -0.4322 -1.2075
 3363TIP3    H231649   3.097   1.258   0.553 -0.4597  1.5090 -0.5933
 3364TIP3   OH231650   3.134   0.724   7.122 -0.7063 -0.0711  0.2850
 3364TIP3    H131651   3.099   0.813   7.127 -0.1041  0.1135  1.2692
 3364TIP3    H231652   3.193   0.717   7.197  0.1189 -0.9241 -0.4332
 3365TIP3   OH231653   5.551   7.213   7.960 -0.1957 -0.5550  0.9868
 3365TIP3    H131654   5.632   7.163   7.969  0.1225 -0.0697  0.8728
 3365TIP3    H231655   5.524   7.231   8.050  0.3603  0.1215  1.0293
 3366TIP3   OH231656   1.194   3.210   1.980  0.1641 -0.1604 -0.2852
 3366TIP3    H131657   1.106   3.194   1.944 -0.3253  0.1846  0.7422
 3366TIP3    H231658   1.254   3.177   1.912 -0.7615 -1.3848 -0.5302
 3367TIP3   OH231659   2.137   1.302   1.961 -0.0490 -0.2497  0.2257
 3367TIP3    H131660   2.127   1.300   2.056  0.2888  0.4419  0.2736
 3367TIP3    H231661   2.214   1.249   1.943 -0.1435 -0.4225  0.3291
 3368TIP3   OH231662   0.671   3.225   7.282 -0.4175  0.0998 -0.1673
 3368TIP3    H131663   0.659   3.137   7.248 -1.3536  0.3881 -0.6090
 3368TIP3    H231664   0.748   3.219   7.338  0.6899 -0.5658 -1.7222
 3369TIP3   OH231665   0.457   5.934   1.229 -0.3266  0.6642 -0.0587
 3369TIP3    H131666   0.489   6.009   1.179  0.0248 -0.5307 -1.6473
 3369TIP3    H231667   0.396   5.890   1.170  0.0368 -0.7253  0.5920
 3370TIP3   OH231668   0.247   3.539   1.610 -0.7093  0.2759  0.4767
 3370TIP3    H131669   0.197   3.483   1.551  0.0992 -0.0573  0.0992
 3370TIP3    H231670   0.292   3.478   1.669 -0.7258  0.5704  0.7977
 3371TIP3   OH231671   4.718   5.404   0.589  0.6479 -0.3181 -0.3897
 3371TIP3    H131672   4.729   5.309   0.582  1.2104 -0.3704  1.0213
 3371TIP3    H231673   4.733   5.437   0.501 -2.2128 -1.7870 -1.4794
 3372TIP3   OH231674   1.803   2.547   8.271 -0.3182 -1.0153  0.7765
 3372TIP3    H131675   1.782   2.454   8.275  0.0067 -1.1349 -0.2304
 3372TIP3    H231676   1.816   2.565   8.178  2.0055 -0.4833  1.1684
 3373TIP3   OH231677   6.829   5.617   7.493  0.2241  0.0185 -0.5511
 3373TIP3    H131678   6.824   5.537   7.546 -2.5610 -0.5233 -1.5876
 3373TIP3    H231679   6.782   5.683   7.543  0.3788  0.3742 -0.8681
 3374TIP3   OH231680   0.271   1.035   7.097  0.1025  0.2120  0.6878
 3374TIP3    H131681   0.209   1.023   7.169 -0.4064 -0.7281  0.0976
 3374TIP3    H231682   0.218   1.026   7.018  0.0715  4.1243  0.1425
 3375TIP3   OH231683   2.354   1.532   7.483  0.6644  0.0618  0.1461
 3375TIP3    H131684   2.317   1.493   7.563  1.4222 -0.7179  0.1218
 3375TIP3    H231685   2.430   1.478   7.463 -1.1493 -1.5502 -2.7569
 3376TIP3   OH231686   2.874   1.166   1.178 -0.3567  0.0933 -0.2212
 3376TIP3    H131687   2.928   1.179   1.256 -0.1885 -1.0873 -0.1460
 3376TIP3    H231688   2.930   1.120   1.116 -0.7474  0.3338 -0.7636
 3377TIP3   OH231689   1.475   1.283   1.144  0.5092 -0.4249 -0.2533
 3377TIP3    H131690   1.380   1.273   1.145  0.3466  0.8353  3.3051
 3377TIP3    H231691   1.507   1.212   1.201  1.1822  2.6611  3.4371
 3378TIP3   OH231692   1.289   5.536   6.969 -0.4875  0.2349 -0.5558
 3378TIP3    H131693   1.246   5.473   6.911  0.6826 -0.2913 -0.8844
 3378TIP3    H231694   1.326   5.601   6.910 -0.5819  0.5159 -0.3039
 3379TIP3   OH231695   0.840   2.956   1.322 -0.0611 -0.6482 -0.1593
 3379TIP3    H131696   0.889   2.948   1.241  0.2730  0.5364 -0.0770
 3379TIP3    H231697   0.841   3.049   1.343 -2.2602 -0.6091 -0.0970
 3380TIP3   OH231698   6.874   2.075   0.791 -0.1100  0.4144  0.5462
 3380TIP3    H131699   6.830   2.024   0.722 -0.6442  0.0001  1.1928
 3380TIP3    H231700   6.924   2.010   0.840 -0.0665  0.6561  0.8194
 3381TIP3   OH231701   6.677   0.165   7.851 -0.5396  0.7862  0.3148
 3381TIP3    H131702   6.588   0.132   7.863  0.5240 -1.6349  1.9666
 3381TIP3    H231703   6.733   0.093   7.880  1.9403  2.7322  0.5128
 3382TIP3   OH231704   5.637   6.325   1.148 -0.5443  0.5414 -0.2844
 3382TIP3    H131705   5.650   6.230   1.142 -1.3026  0.5767 -3.0684
 3382TIP3    H231706   5.588   6.338   1.230  1.9995 -1.1618  1.5920
 3383TIP3   OH231707   6.747   0.160   1.429  0.3705 -0.3754 -0.3948
 3383TIP3    H131708   6.750   0.094   1.360  0.1668  1.0132 -1.7580
 3383TIP3    H231709   6.836   0.163   1.464  0.2327 -1.7931  0.1015
 3384TIP3   OH231710   5.589   6.749   6.771  0.3799  0.3277  0.8222
 3384TIP3    H131711   5.621   6.717   6.687 -2.5029 -2.2422  0.5829
 3384TIP3    H231712   5.547   6.833   6.750 -2.9089 -1.6334 -0.9841
 3385TIP3   OH231713   4.199   3.766   6.981  0.8150  0.5791 -0.0745
 3385TIP3    H131714   4.285   3.804   6.962  1.7970 -0.7330  1.5992
 3385TIP3    H231715   4.214   3.671   6.978 -0.1755  0.3482  1.9531
 3386TIP3   OH231716   5.805   1.021   0.740  0.0206 -0.5802 -0.6806
 3386TIP3    H131717   5.855   0.948   0.704  0.0705 -0.6466 -0.4795
 3386TIP3    H231718   5.868   1.093   0.743 -0.1988 -0.3458 -1.4729
 3387TIP3   OH231719   1.404   2.817   1.589  0.0947 -0.6035 -0.4316
 3387TIP3    H131720   1.477   2.787   1.535 -0.1454 -2.0322  0.0229
 3387TIP3    H231721   1.445   2.850   1.669  0.3710  0.4384 -0.9979
 3388TIP3   OH231722   1.226   0.640   0.687 -0.1735 -0.1469  0.1758
 3388TIP3    H131723   1.153   0.702   0.683 -0.4144 -0.4597 -0.3008
 3388TIP3    H231724   1.285   0.668   0.617  0.6773  0.7360  1.2104
 3389TIP3   OH231725   0.830   4.972   0.123 -0.1824 -0.6126 -0.2007
 3389TIP3    H131726   0.910   5.022   0.111  0.1860 -0.6361  1.9552
 3389TIP3    H231727   0.858   4.880   0.123  0.0094 -0.5820  1.8237
 3390TIP3   OH231728   1.659   4.161   0.477  0.1441 -0.6904 -0.3248
 3390TIP3    H131729   1.641   4.073   0.511 -0.3956  0.0080  1.2275
 3390TIP3    H231730   1.732   4.193   0.530  0.1989 -0.1195 -0.7382
 3391TIP3   OH231731   0.722   4.921   7.995  0.3345  0.0554 -0.2735
 3391TIP3    H131732   0.712   4.835   8.035  0.9662 -0.5395 -1.3919
 3391TIP3    H231733   0.803   4.914   7.944 -0.7297  0.6703 -2.0539
 3392TIP3   OH231734   1.812   2.838   0.735 -0.0964  0.3166 -0.4494
 3392TIP3    H131735   1.858   2.812   0.815 -1.6437 -1.7384 -0.1842
 3392TIP3    H231736   1.810   2.934   0.738 -0.1789  0.2600  1.9923
 3393TIP3   OH231737   5.277   4.851   7.633  0.7503  0.2186  0.3421
 3393TIP3    H131738   5.316   4.770   7.666  0.2358 -0.4248 -0.6434
 3393TIP3    H231739   5.344   4.918   7.651  1.6009 -0.5879  0.2295
 3394TIP3   OH231740   5.382   6.536   7.430 -0.1104  0.2278 -0.8636
 3394TIP3    H131741   5.373   6.581   7.514  0.8054 -0.0222 -0.6268
 3394TIP3    H231742   5.426   6.600   7.373  1.1183 -0.3291 -0.5506
 3395TIP3   OH231743   5.248   6.159   0.589  0.6295 -0.5752  0.4025
 3395TIP3    H131744   5.246   6.235   0.532  0.3781 -0.6838  0.2671
 3395TIP3    H231745   5.280   6.087   0.534  2.7200 -0.1636  1.0139
 3396TIP3   OH231746   6.897   3.020   7.081 -0.5080  0.2840  0.4545
 3396TIP3    H131747   6.834   3.091   7.071  0.9527  1.4558 -0.7494
 3396TIP3    H231748   6.890   2.970   6.999 -0.5739 -0.1486  0.7263
 3397TIP3   OH231749   5.191   0.316   6.730 -0.0253 -0.8081 -0.4786
 3397TIP3    H131750   5.236   0.232   6.734  1.7108  0.1767  1.1230
 3397TIP3    H231751   5.202   0.354   6.817 -1.6487  0.6576 -0.8765
 3398TIP3   OH231752   0.970   0.987   6.908  0.5299 -0.8670  0.0235
 3398TIP3    H131753   0.976   0.924   6.980 -0.5238  0.0689  0.9446
 3398TIP3    H231754   0.981   1.072   6.950  1.5867 -0.4011 -1.1617
 3399TIP3   OH231755   2.196   4.330   0.586  0.7244  0.1121 -0.2624
 3399TIP3    H131756   2.190   4.237   0.609  1.6150 -0.2026 -1.2259
 3399TIP3    H231757   2.108   4.354   0.558  0.9598 -0.9951 -1.9898
 3400TIP3   OH231758   6.110   4.649   7.243  0.0357 -0.4232 -0.5734
 3400TIP3    H131759   6.042   4.692   7.192 -0.1295 -0.8069 -0.6812
 3400TIP3    H231760   6.063   4.611   7.318  0.5626  1.9543  1.0294
 3401TIP3   OH231761   0.788   5.864   2.462 -0.0186  0.0806  0.3425
 3401TIP3    H131762   0.712   5.875   2.405 -1.1055  0.5564  1.8613
 3401TIP3    H231763   0.776   5.778   2.502  0.3172  0.0940  0.4739
 3402TIP3   OH231764   0.807   5.048   8.241  0.5873 -0.4017 -0.4378
 3402TIP3    H131765   0.748   5.014   8.308  0.7420 -0.9379 -0.5751
 3402TIP3    H231766   0.784   5.002   8.161  1.3218 -0.7580 -0.4489
 3403TIP3   OH231767   7.110   3.279   1.149  0.0178 -0.3173  0.4104
 3403TIP3    H131768   7.046   3.218   1.113 -2.0711  2.2123 -0.3015
 3403TIP3    H231769   7.082   3.292   1.240 -1.1165  1.5633 -0.1866
 3404TIP3   OH231770   1.410   6.749   8.032 -0.1376 -0.0314  0.1241
 3404TIP3    H131771   1.483   6.689   8.050  0.5761  0.6257 -0.5787
 3404TIP3    H231772   1.412   6.762   7.937 -0.1016  1.3441  0.3077
 3405TIP3   OH231773   0.029   5.890   7.766 -0.5319  0.3015  0.9016
 3405TIP3    H131774  -0.060   5.859   7.751 -1.3957  2.5269  1.2211
 3405TIP3    H231775   0.021   5.985   7.772  1.9863  0.6222  0.0894
 3406TIP3   OH231776   0.566   4.379   7.718 -0.0806 -0.3062  0.3292
 3406TIP3    H131777   0.622   4.304   7.700  1.4836  0.7951  0.5112
 3406TIP3    H231778   0.504   4.347   7.784  0.1404 -1.6274 -0.0994
 3407TIP3   OH231779   0.318   1.743   6.955  0.0578 -0.2271  0.3527
 3407TIP3    H131780   0.263   1.713   7.028  0.3958 -0.5605  0.4731
 3407TIP3    H231781   0.267   1.813   6.914 -1.0097 -1.3680 -0.3030
 3408TIP3   OH231782   2.205   5.758   1.876  0.2812  0.3279 -0.1661
 3408TIP3    H131783   2.146   5.687   1.901  0.5005 -0.2094 -1.1446
 3408TIP3    H231784   2.244   5.788   1.959 -1.4308  0.7564  0.4978
 3409TIP3   OH231785   0.610   6.476   1.406 -0.0981  0.0105  0.3084
 3409TIP3    H131786   0.549   6.512   1.342  3.6177  1.6742 -2.5503
 3409TIP3    H231787   0.576   6.502   1.491 -3.2195  1.0066 -1.1943
 3410TIP3   OH231788   2.368   5.403   7.675  0.3277 -0.3258  0.0875
 3410TIP3    H131789   2.309   5.397   7.600  0.3832  1.5809 -0.1324
 3410TIP3    H231790   2.353   5.322   7.724 -3.0331  0.4288  0.4599
 3411TIP3   OH231791   0.645   3.450   1.848  0.5591 -0.8200 -0.0323
 3411TIP3    H131792   0.679   3.423   1.763  0.7852  0.5184 -0.3807
 3411TIP3    H231793   0.568   3.503   1.828  0.3238 -0.9099  0.6117
 3412TIP3   OH231794   6.433   3.590   1.845  0.1618 -0.1457 -0.0362
 3412TIP3    H131795   6.418   3.679   1.815  0.5792  0.3320  1.1268
 3412TIP3    H231796   6.501   3.599   1.912 -1.9758 -0.9200  2.3108
 3413TIP3   OH231797   1.581   5.354   7.693 -0.2330  0.0001  0.0141
 3413TIP3    H131798   1.560   5.316   7.608 -2.2505 -1.0316  0.9437
 3413TIP3    H231799   1.503   5.402   7.719  1.2473  2.3783  0.1980
 3414TIP3   OH231800   1.092   3.966   1.114 -0.5766  0.0363  0.5551
 3414TIP3    H131801   1.054   3.917   1.187  0.4412  0.1254  1.1552
 3414TIP3    H231802   1.142   4.036   1.156 -3.1459  2.4516 -0.3231
 3415TIP3   OH231803   3.444   3.079   1.745 -0.1505  0.1257  0.1537
 3415TIP3    H131804   3.518   3.021   1.726  0.9116  2.4436 -3.3537
 3415TIP3    H231805   3.477   3.139   1.812  0.8014  0.4511 -0.5934
 3416TIP3   OH231806   2.607   0.553   0.823 -0.1368 -0.2378 -0.4286
 3416TIP3    H131807   2.683   0.517   0.868  0.8222  0.9824 -1.0271
 3416TIP3    H231808   2.533   0.503   0.857  0.8989 -1.2774  0.3460
 3417TIP3   OH231809   3.551   5.860   7.460 -0.3709  0.9203  0.7317
 3417TIP3    H131810   3.495   5.935   7.440  0.3377  1.1489 -0.4428
 3417TIP3    H231811   3.630   5.874   7.408 -0.2123 -0.6271  0.5147
 3418TIP3   OH231812   1.970   6.582   7.127 -0.9213  0.4197  0.4399
 3418TIP3    H131813   2.020   6.652   7.170  0.4299 -1.1938  1.5330
 3418TIP3    H231814   1.960   6.515   7.194 -1.6988 -0.7019 -0.7877
 3419TIP3   OH231815   2.096   5.567   7.859  0.1834 -0.0154 -0.0589
 3419TIP3    H131816   2.076   5.557   7.766  0.3311 -0.5928 -0.0372
 3419TIP3    H231817   2.145   5.487   7.881  2.1563  1.1724 -0.0382
 3420TIP3   OH231818   4.634   5.189   1.145 -0.0529  0.9242 -0.6803
 3420TIP3    H131819   4.595   5.272   1.172 -0.1213  0.7760 -0.3136
 3420TIP3    H231820   4.637   5.137   1.226  1.2513  1.0755 -0.6068
 3421TIP3   OH231821   1.531   0.063   1.344  0.3189 -0.1851  0.2844
 3421TIP3    H131822   1.446   0.105   1.341 -0.2376 -1.3476 -0.7742
 3421TIP3    H231823   1.520  -0.011   1.404  0.9232  0.3817  1.1036
 3422TIP3   OH231824   0.524   4.115   1.033  0.1449 -0.6335  0.3599
 3422TIP3    H131825   0.606   4.154   1.064  0.0850  1.2933 -1.7445
 3422TIP3    H231826   0.551   4.047   0.971  0.1740 -1.1176  0.9013
 3423TIP3   OH231827   0.552   5.911   0.845  0.0833 -0.3087 -0.0055
 3423TIP3    H131828   0.562   5.986   0.903  0.1543  0.2962 -0.7926
 3423TIP3    H231829   0.485   5.938   0.782 -0.9340 -1.4454  0.5711
 3424TIP3   OH231830   6.997   6.713   7.588 -0.5389  0.1178  0.3528
 3424TIP3    H131831   7.088   6.682   7.582 -0.9234 -0.9909  0.0725
 3424TIP3    H231832   7.005   6.806   7.607  0.6689 -0.2557  1.8148
 3425TIP3   OH231833   7.268   4.500   1.218  0.3546  0.4253 -0.2989
 3425TIP3    H131834   7.197   4.476   1.159 -0.1476 -1.1646  0.9363
 3425TIP3    H231835   7.341   4.521   1.160 -0.6304  0.5509 -1.5272
 3426TIP3   OH231836   2.116   6.451   8.321 -0.2496 -0.2078 -0.1879
 3426TIP3    H131837   2.204   6.456   8.285 -0.0256 -0.9001  0.2445
 3426TIP3    H231838   2.114   6.521   8.387  0.4808 -1.1324  0.8443
 3427TIP3   OH231839   2.230   6.793   8.141 -0.0227  0.1030  0.4204
 3427TIP3    H131840   2.231   6.724   8.074 -0.7723  1.3865 -0.9409
 3427TIP3    H231841   2.282   6.757   8.213 -0.3909 -1.8851 -0.2654
 3428TIP3   OH231842   5.953   0.269   0.816 -0.2664  0.3817  0.6732
 3428TIP3    H131843   5.966   0.221   0.734 -0.3928 -1.6464  1.8181
 3428TIP3    H231844   5.887   0.335   0.795  0.7814  0.8486 -1.2422
 3429TIP3   OH231845   1.821   5.103   8.301 -0.4062 -0.1365  0.6218
 3429TIP3    H131846   1.810   5.198   8.290 -1.0656 -0.1190  1.3993
 3429TIP3    H231847   1.903   5.084   8.256 -0.1146  0.8555  0.7021
 3430TIP3   OH231848   5.043   6.426   0.739 -0.3781  0.0387 -0.0054
 3430TIP3    H131849   5.111   6.407   0.804 -0.4805  0.5262  0.2421
 3430TIP3    H231850   4.977   6.476   0.787  1.0104  3.1678 -1.2065
 3431TIP3   OH231851   6.538   6.641   7.064  0.1038 -0.0392 -0.5879
 3431TIP3    H131852   6.592   6.572   7.103  0.9871  0.7550 -0.4078
 3431TIP3    H231853   6.450   6.604   7.064  0.7534 -1.6524 -1.5902
 3432TIP3   OH231854   0.473   1.067   7.577 -0.5402  0.4633  0.0882
 3432TIP3    H131855   0.561   1.061   7.615 -0.2762  0.5476 -0.5043
 3432TIP3    H231856   0.485   1.042   7.485 -1.3389 -0.6592  0.2884
 3433TIP3   OH231857   3.159   7.166   6.815 -0.3104  0.1064 -0.1181
 3433TIP3    H131858   3.198   7.083   6.789  0.5537  0.2221  0.7551
 3433TIP3    H231859   3.066   7.158   6.792 -0.3310 -1.2898  0.4025
 3434TIP3   OH231860   5.327   5.167   0.108 -0.7242 -0.2122 -0.3542
 3434TIP3    H131861   5.333   5.262   0.106  0.6071 -0.2869 -0.0810
 3434TIP3    H231862   5.390   5.140   0.175 -1.6029 -1.2470  0.0744
 3435TIP3   OH231863   1.561   3.953   7.032 -0.2466  0.0840 -0.2734
 3435TIP3    H131864   1.645   3.923   7.067 -0.0004  0.9181 -0.1286
 3435TIP3    H231865   1.581   4.035   6.987 -1.4112  1.7756  2.1542
 3436TIP3   OH231866   1.554   4.443   8.417 -0.4441 -0.2220 -0.2466
 3436TIP3    H131867   1.526   4.450   8.508 -0.8966  0.5910 -0.4541
 3436TIP3    H231868   1.639   4.398   8.422 -0.1645  0.3956  0.6226
 3437TIP3   OH231869   2.117   3.512   0.776 -0.7899 -0.0677 -0.0646
 3437TIP3    H131870   2.188   3.492   0.714 -1.2391  0.3595 -0.7204
 3437TIP3    H231871   2.081   3.595   0.745 -1.2166 -0.0016  0.5983
 3438TIP3   OH231872   1.926   0.990   2.373  0.2875 -0.0208  0.1292
 3438TIP3    H131873   1.964   0.960   2.290  0.4901  0.8274 -0.0853
 3438TIP3    H231874   1.946   0.919   2.434 -0.4077 -0.9445 -0.6790
 3439TIP3   OH231875   0.368   2.285   7.617  0.0375  0.2792  0.4416
 3439TIP3    H131876   0.375   2.376   7.646  0.3635 -0.1523  1.7152
 3439TIP3    H231877   0.355   2.235   7.697 -1.5078 -0.6585 -0.3697
 3440TIP3   OH231878   1.713   4.524   7.904  0.1136 -0.0311 -0.0465
 3440TIP3    H131879   1.743   4.571   7.982  2.0921 -1.1463 -0.1150
 3440TIP3    H231880   1.653   4.457   7.938 -1.9872  1.8800  0.1345
 3441TIP3   OH231881   7.202   0.119   0.888  0.2176 -0.4038  0.3815
 3441TIP3    H131882   7.210   0.149   0.978  0.7848  2.8682 -0.6817
 3441TIP3    H231883   7.127   0.167   0.853 -0.0904 -1.7431 -0.8640
 3442TIP3   OH231884   0.205   4.747   7.266 -0.0899  0.1278  0.2376
 3442TIP3    H131885   0.215   4.779   7.177  1.6342  0.1868  0.4321
 3442TIP3    H231886   0.124   4.787   7.297 -1.1086 -0.4958 -1.5413
 3443TIP3   OH231887   4.840   5.542   8.351 -0.0188 -0.2909 -0.5259
 3443TIP3    H131888   4.821   5.595   8.428 -0.1579 -0.0910 -0.7000
 3443TIP3    H231889   4.794   5.585   8.279 -1.8844 -1.8095 -0.2924
 3444TIP3   OH231890   6.799   4.694   1.847  0.4265 -0.3859 -0.1000
 3444TIP3    H131891   6.767   4.640   1.919 -3.7079 -0.1399 -1.6204
 3444TIP3    H231892   6.807   4.634   1.773  1.4697 -0.0094 -0.3040
 3445TIP3   OH231893   0.847   5.540   0.410  0.1284 -0.5828 -0.3968
 3445TIP3    H131894   0.832   5.529   0.316 -1.0494 -0.3502 -0.2526
 3445TIP3    H231895   0.906   5.469   0.433  0.1072 -0.8856 -1.2403
 3446TIP3   OH231896   2.406   5.656   6.902 -0.4583  0.3900 -0.1793
 3446TIP3    H131897   2.455   5.584   6.941  0.0435  0.9288  0.1812
 3446TIP3    H231898   2.418   5.729   6.962 -1.3401  0.6523 -0.3163
 3447TIP3   OH231899   4.734   5.791   1.112  0.0050 -0.5987  0.0769
 3447TIP3    H131900   4.691   5.707   1.125 -2.4078  0.1782 -2.3228
 3447TIP3    H231901   4.769   5.787   1.023  0.5138  0.6525  0.2059
 3448TIP3   OH231902   3.238   4.837   0.337 -0.6652  0.2805  0.1677
 3448TIP3    H131903   3.270   4.873   0.420 -1.8632 -0.6306  1.0618
 3448TIP3    H231904   3.300   4.868   0.271  0.2816  1.0622  1.4017
 3449TIP3   OH231905   4.126   5.521   7.981  0.6029 -0.6393  0.0249
 3449TIP3    H131906   4.088   5.470   7.910  2.5523 -0.6132 -1.0607
 3449TIP3    H231907   4.146   5.456   8.049 -1.2146 -0.6675  0.5562
 3450TIP3   OH231908   0.951   3.389   1.634 -0.3695 -0.4880  0.3157
 3450TIP3    H131909   0.904   3.364   1.554 -0.8952  0.1786  0.4172
 3450TIP3    H231910   1.039   3.354   1.621 -1.1429 -2.6288  0.5560
 3451TIP3   OH231911   3.456   4.668   0.683  0.5560  0.2256  0.1326
 3451TIP3    H131912   3.436   4.758   0.657  1.1737 -0.4464 -2.8081
 3451TIP3    H231913   3.371   4.626   0.693  0.2839  0.8508  0.4696
 3452TIP3   OH231914   5.207   5.786   0.575 -0.7697  0.1528  0.5534
 3452TIP3    H131915   5.121   5.799   0.615 -1.2150 -0.9623 -0.0269
 3452TIP3    H231916   5.232   5.697   0.598  0.1660  0.4093  0.5802
 3453TIP3   OH231917   4.143   5.046   1.839  0.3426 -0.2136 -0.3440
 3453TIP3    H131918   4.076   4.992   1.798  1.0895 -1.5499  0.1655
 3453TIP3    H231919   4.095   5.103   1.900 -0.2830 -1.4966  0.3784
 3454TIP3   OH231920   4.298   5.841   0.432  0.4949  0.3420  0.6228
 3454TIP3    H131921   4.336   5.886   0.357  1.0398  1.6930  1.6809
 3454TIP3    H231922   4.373   5.805   0.480  0.4118  1.9360  2.0295
 3455TIP3   OH231923   2.324   3.241   8.074 -0.0499  0.0399  0.0155
 3455TIP3    H131924   2.340   3.294   8.152 -1.0106  0.5534 -0.1213
 3455TIP3    H231925   2.411   3.228   8.035  0.3071  0.7236  0.5647
 3456TIP3   OH231926   2.894   2.541   0.592  0.0671 -0.2493 -0.4148
 3456TIP3    H131927   2.967   2.542   0.655  0.2782  1.0449 -0.6823
 3456TIP3    H231928   2.863   2.450   0.595  1.0265 -0.5711  0.4621
 3457TIP3   OH231929   4.013   6.737   1.231 -0.5586  0.2465 -0.4293
 3457TIP3    H131930   3.976   6.650   1.244 -0.5058  0.3642  0.5359
 3457TIP3    H231931   4.100   6.733   1.271 -0.7154  0.8640 -0.0252
 3458TIP3   OH231932   3.379   6.740   7.930  0.2841  0.2978 -0.8131
 3458TIP3    H131933   3.338   6.654   7.922  0.6751  0.0106  0.1837
 3458TIP3    H231934   3.463   6.732   7.884  1.2764 -0.5103  1.0632
 3459TIP3   OH231935   4.839   4.258   1.860  0.0841  0.4704  0.5439
 3459TIP3    H131936   4.775   4.188   1.866 -0.5283  0.9937  0.1651
 3459TIP3    H231937   4.918   4.222   1.900  0.1997 -0.9325 -0.9321
 3460TIP3   OH231938   2.377   5.444   1.366 -0.3148 -0.3314 -0.2174
 3460TIP3    H131939   2.297   5.426   1.416  1.2083  1.0042  2.8340
 3460TIP3    H231940   2.440   5.379   1.397  0.0067 -1.0037 -2.1814
 3461TIP3   OH231941   0.621   5.740   0.619 -0.2152  0.0084  0.3622
 3461TIP3    H131942   0.541   5.688   0.614 -1.2299  1.4393  1.2184
 3461TIP3    H231943   0.685   5.681   0.658 -1.1814 -0.7775  0.7937
 3462TIP3   OH231944   2.370   3.007   8.440 -0.1827  0.0440 -0.0758
 3462TIP3    H131945   2.352   2.975   8.352 -0.5787  0.4551 -0.1430
 3462TIP3    H231946   2.455   3.051   8.433 -0.7836  1.1437 -0.5219
 3463TIP3   OH231947   5.670   6.353   8.276 -0.1581  0.3903  0.2069
 3463TIP3    H131948   5.690   6.435   8.231  0.2433  0.1044 -0.1339
 3463TIP3    H231949   5.753   6.326   8.315  0.2265 -0.9560 -1.4757
 3464TIP3   OH231950   2.013   2.177   2.611  0.1362 -0.3957 -0.3625
 3464TIP3    H131951   1.989   2.102   2.666 -0.0123 -1.1332 -1.4003
 3464TIP3    H231952   1.929   2.215   2.584  0.2205  0.5288  0.6662
 3465TIP3   OH231953   2.425   5.066   1.092  0.4420  0.1964  0.2050
 3465TIP3    H131954   2.404   4.973   1.081  1.3113 -0.0516  0.6021
 3465TIP3    H231955   2.514   5.075   1.059  0.2844  0.9301 -0.0202
 3466TIP3   OH231956   2.501   3.360   0.411 -0.2649  0.3685 -0.0151
 3466TIP3    H131957   2.510   3.270   0.441  1.6904  0.8567  0.9470
 3466TIP3    H231958   2.591   3.392   0.403 -0.9167  2.0959 -0.7740
 3467TIP3   OH231959   7.296   1.220   0.654 -0.5140 -0.0797 -0.2665
 3467TIP3    H131960   7.357   1.147   0.661 -0.5255 -0.0058  0.6010
 3467TIP3    H231961   7.224   1.197   0.712 -1.0579  0.0853 -0.8761
 3468TIP3   OH231962   4.923   4.868   1.566  0.4371  0.5946 -0.0878
 3468TIP3    H131963   4.930   4.877   1.661 -0.3654  0.5573 -0.0251
 3468TIP3    H231964   5.014   4.870   1.535  0.8645 -1.9403  0.9059
 3469TIP3   OH231965   3.503   2.994   6.947  0.2818  0.2977  0.4073
 3469TIP3    H131966   3.532   2.920   7.000 -0.5347  0.7140  1.4382
 3469TIP3    H231967   3.577   3.011   6.888 -0.0573 -2.2265 -0.8117
 3470TIP3   OH231968   2.503   4.807   6.964  0.3758  0.1807 -0.0979
 3470TIP3    H131969   2.440   4.765   7.022  0.0009  0.0998 -0.5654
 3470TIP3    H231970   2.462   4.889   6.938  0.2794 -0.0578 -0.7274
 3471TIP3   OH231971   7.049   2.681   7.255  0.3994 -0.3008 -0.3746
 3471TIP3    H131972   7.047   2.636   7.171  1.6585 -0.0024 -0.5852
 3471TIP3    H231973   7.091   2.765   7.236  3.1243 -1.2857  0.9911
 3472TIP3   OH231974   6.668   6.842   8.049  0.2202 -0.0850 -0.5240
 3472TIP3    H131975   6.653   6.867   8.140  0.8425 -1.7938  0.0609
 3472TIP3    H231976   6.601   6.889   8.000 -1.0590 -0.3172  0.9810
 3473TIP3   OH231977   2.118   3.750   7.559 -0.6047 -1.0198 -0.1669
 3473TIP3    H131978   2.178   3.800   7.614 -0.9135 -1.3757  0.5153
 3473TIP3    H231979   2.150   3.659   7.567 -0.5939 -1.0560 -0.6520
 3474TIP3   OH231980   2.698   7.225   7.713 -0.0341  0.4241  0.1902
 3474TIP3    H131981   2.715   7.193   7.802  1.0099  1.0146  0.2096
 3474TIP3    H231982   2.608   7.199   7.695  0.5649 -1.9308  0.4517
 3475TIP3   OH231983   5.297   4.372   7.390  0.2627  0.3194  0.1776
 3475TIP3    H131984   5.261   4.459   7.372 -0.2760  0.0902  0.1600
 3475TIP3    H231985   5.266   4.317   7.318 -0.1769 -0.1121  0.6947
 3476TIP3   OH231986   1.048   3.603   6.522 -0.5560  0.3942 -0.0221
 3476TIP3    H131987   0.959   3.585   6.492 -0.8434  1.4440  0.1777
 3476TIP3    H231988   1.054   3.699   6.524 -0.0380  0.3482  1.7272
 3477TIP3   OH231989   3.845   2.310   6.710 -0.5196  0.4063  0.7335
 3477TIP3    H131990   3.875   2.387   6.662  1.2086  0.2600  1.5614
 3477TIP3    H231991   3.832   2.243   6.642 -0.0355  0.8044  0.2477
 3478TIP3   OH231992   2.043   4.970   8.165 -0.0983 -0.2025  0.2339
 3478TIP3    H131993   2.069   5.056   8.133  0.2471 -0.0826  0.8158
 3478TIP3    H231994   2.119   4.941   8.217 -0.7938 -0.2205  1.2539
 3479TIP3   OH231995   1.511   6.064   1.677 -0.2093 -0.0377 -0.5360
 3479TIP3    H131996   1.454   6.049   1.752 -0.4610 -0.7129 -0.8621
 3479TIP3    H231997   1.460   6.120   1.618  0.3675  1.3210  0.2458
 3480TIP3   OH231998   2.336   3.310   2.052  0.7132 -0.0333 -0.7674
 3480TIP3    H131999   2.374   3.261   2.125  1.4215 -0.0434 -1.1400
 3480TIP3    H232000   2.317   3.396   2.089  1.8262  0.2270 -0.7690
 3481TIP3   OH232001   6.346   6.680   1.138  0.2396  0.0406  0.3807
 3481TIP3    H132002   6.288   6.733   1.083  1.2702  3.2614  2.2483
 3481TIP3    H232003   6.367   6.604   1.085 -3.7796 -0.0681 -1.2562
 3482TIP3   OH232004   1.599   5.466   0.637  0.6426  0.4515 -0.2447
 3482TIP3    H132005   1.684   5.440   0.602  0.1182  0.3392 -1.4832
 3482TIP3    H232006   1.550   5.498   0.560 -1.0014 -0.9986  0.1563
 3483TIP3   OH232007   4.254   6.997   1.354 -0.5500 -0.4155 -0.1021
 3483TIP3    H132008   4.298   6.921   1.393  0.4151  1.4340  2.5656
 3483TIP3    H232009   4.305   7.072   1.385 -3.8574  1.6060  0.6862
 3484TIP3   OH232010   5.941   4.249   7.277 -0.2187  0.3935 -0.1801
 3484TIP3    H132011   6.027   4.220   7.249 -0.4654  0.0685 -0.5948
 3484TIP3    H232012   5.958   4.325   7.333  0.3230  0.4354 -0.4061
 3485TIP3   OH232013   3.113   5.751   6.739  0.0764  0.3382  0.7298
 3485TIP3    H132014   3.155   5.757   6.653  0.7696  0.4940  1.0760
 3485TIP3    H232015   3.086   5.660   6.747  2.0542 -0.2297  1.2905
 3486TIP3   OH232016   0.334   3.694   7.634  1.0095  0.1385 -0.3660
 3486TIP3    H132017   0.399   3.758   7.662  1.9965 -1.0610  0.1617
 3486TIP3    H232018   0.278   3.741   7.573  2.0328  1.3529 -0.3854
 3487TIP3   OH232019   2.249   4.098   7.595 -0.1018  0.9040 -0.0498
 3487TIP3    H132020   2.319   4.036   7.617  0.0550  1.1463  0.1387
 3487TIP3    H232021   2.207   4.060   7.518 -1.4971 -0.6010  1.4304
 3488TIP3   OH232022   5.452   3.854   6.887 -0.2405  0.2045 -0.5211
 3488TIP3    H132023   5.445   3.759   6.897 -0.3120  0.3334  0.7772
 3488TIP3    H232024   5.546   3.872   6.892 -0.0909  0.0376 -2.4883
 3489TIP3   OH232025   6.082   5.076   0.049 -0.2917 -0.4420 -0.1106
 3489TIP3    H132026   6.086   5.057   0.142 -1.3505 -0.5148 -0.0680
 3489TIP3    H232027   5.991   5.102   0.034  0.1410  0.5933 -0.9324
 3490TIP3   OH232028   1.875   1.985   2.765 -0.2647 -0.3576 -0.0909
 3490TIP3    H132029   1.784   2.007   2.784 -0.8460 -3.4088  0.9144
 3490TIP3    H232030   1.870   1.916   2.698  1.3025 -0.6408  0.0563
 3491TIP3   OH232031   2.899   5.643   7.035  0.0020 -0.1097 -0.2299
 3491TIP3    H132032   2.953   5.586   7.089  1.4218  1.4128 -0.0273
 3491TIP3    H232033   2.894   5.598   6.951  1.2838 -0.4433 -0.1371
 3492TIP3   OH232034   3.249   1.977   7.378  0.2272  0.0273 -0.6804
 3492TIP3    H132035   3.303   1.934   7.312 -0.4533 -0.1924 -1.1082
 3492TIP3    H232036   3.261   1.925   7.457 -0.4566 -0.8589 -1.1494
 3493TIP3   OH232037   5.330   5.030   7.137  0.3055  0.3623  0.4135
 3493TIP3    H132038   5.241   5.059   7.159  0.5265  0.7479  0.8207
 3493TIP3    H232039   5.340   5.052   7.045  0.3994  1.4322  0.6697
 3494TIP3   OH232040   3.253   4.420   0.014 -0.6874  0.0621 -0.1452
 3494TIP3    H132041   3.236   4.338   0.059  0.3760  0.7931  1.6186
 3494TIP3    H232042   3.337   4.406  -0.030 -0.4404  0.2437  0.2653
 3495TIP3   OH232043   3.209   4.411   1.069 -0.1403  0.0997 -0.8757
 3495TIP3    H132044   3.194   4.453   0.984 -1.2076  3.3059  0.8135
 3495TIP3    H232045   3.299   4.433   1.092  0.5538 -1.8072 -1.7085
 3496TIP3   OH232046   4.950   6.801   7.896 -0.0487  0.6602 -0.1666
 3496TIP3    H132047   4.893   6.878   7.902 -0.6630  0.1312  0.9956
 3496TIP3    H232048   4.965   6.789   7.802 -1.2584  1.2494 -0.4404
 3497TIP3   OH232049   5.198   3.140   6.332 -0.2061 -0.6171  0.4595
 3497TIP3    H132050   5.150   3.096   6.262  0.2179  0.6901 -0.6787
 3497TIP3    H232051   5.139   3.210   6.362  0.7890  0.7504 -0.6852
 3498TIP3   OH232052   6.156   2.599   1.943  0.3798 -0.1319 -0.1312
 3498TIP3    H132053   6.152   2.600   2.038 -1.8101  1.0562 -0.2125
 3498TIP3    H232054   6.071   2.563   1.916  0.3638  1.0211 -1.6602
 3499TIP3   OH232055   3.289   4.878   7.800 -0.0471  0.5846  0.8139
 3499TIP3    H132056   3.257   4.968   7.798  0.3224  0.7612  1.9488
 3499TIP3    H232057   3.381   4.885   7.773 -0.1045  0.5048  0.5977
 3500TIP3   OH232058   3.473   5.666   6.536 -0.3460  1.0490 -0.8480
 3500TIP3    H132059   3.467   5.596   6.471 -2.2894  1.0287 -0.6826
 3500TIP3    H232060   3.464   5.747   6.486 -0.8312  1.0646 -0.7447
 3501TIP3   OH232061   5.819   6.123   1.464  0.2780  0.3982 -0.4186
 3501TIP3    H132062   5.846   6.214   1.453 -0.9489  0.6571 -1.5179
 3501TIP3    H232063   5.726   6.128   1.486  0.0349 -0.6041 -1.1685
 3502TIP3   OH232064   1.576   3.501   0.440 -0.4689  0.2680  0.0762
 3502TIP3    H132065   1.552   3.578   0.492  0.2458  0.8916 -0.5223
 3502TIP3    H232066   1.563   3.528   0.350 -0.2857 -0.3457 -0.1338
 3503TIP3   OH232067   6.393   5.312   0.817 -0.0177  0.4832 -0.1777
 3503TIP3    H132068   6.396   5.330   0.911  0.5988 -0.9892  0.0940
 3503TIP3    H232069   6.358   5.223   0.811 -0.0402  0.5699 -1.3468
 3504TIP3   OH232070   5.629   5.367   0.969 -0.7612 -0.6100  0.4424
 3504TIP3    H132071   5.659   5.278   0.988 -1.1622 -0.8334  0.0254
 3504TIP3    H232072   5.623   5.409   1.055 -1.4662 -1.2764  0.7219
 3505TIP3   OH232073   6.623   7.084   0.766 -0.3407  0.6864  0.3693
 3505TIP3    H132074   6.693   7.118   0.822  0.6557 -1.1794  0.3062
 3505TIP3    H232075   6.630   7.136   0.685  1.8771 -0.3541 -0.1580
 3506TIP3   OH232076   6.935   5.152   6.913 -0.0556  0.0751  0.4671
 3506TIP3    H132077   6.929   5.242   6.942 -0.1902 -0.2804  1.5550
 3506TIP3    H232078   6.886   5.102   6.978  0.2166 -0.8127  0.0037
 3507TIP3   OH232079   2.449   3.622   7.353 -0.2023 -0.0864 -0.2400
 3507TIP3    H132080   2.487   3.656   7.272 -0.0081  2.4850  0.8913
 3507TIP3    H232081   2.358   3.652   7.351 -0.6645 -1.4463 -0.2792
 3508TIP3   OH232082   2.198   3.501   7.682  0.2043 -0.3769 -0.1661
 3508TIP3    H132083   2.258   3.481   7.754  1.1194  0.7277 -0.6055
 3508TIP3    H232084   2.112   3.479   7.716  0.8342 -1.8337  0.5327
 3509TIP3   OH232085   2.133   6.929   0.165  0.0849  0.0657 -0.5736
 3509TIP3    H132086   2.165   6.956   0.079 -0.0715 -1.4793 -1.1307
 3509TIP3    H232087   2.209   6.892   0.208 -0.3339 -1.1888 -0.8948
 3510TIP3   OH232088   1.627   4.513   7.493  0.3801 -0.0923  0.2330
 3510TIP3    H132089   1.642   4.548   7.582  2.2827  0.0453 -0.1098
 3510TIP3    H232090   1.584   4.585   7.447  1.8708  0.8842  0.2948
 3511TIP3   OH232091   4.792   6.892   0.923  0.0161 -0.3780  0.4260
 3511TIP3    H132092   4.853   6.957   0.888  1.4214 -1.7904  0.2043
 3511TIP3    H232093   4.738   6.867   0.848  0.1697 -0.2305  0.2648
 3512TIP3   OH232094   4.467   5.172   0.904 -0.8182  0.2848  0.3499
 3512TIP3    H132095   4.482   5.140   0.993 -0.5979  0.7000  0.4659
 3512TIP3    H232096   4.375   5.196   0.902 -0.7797  0.4496  0.5233
 3513TIP3   OH232097   5.089   5.772   1.944 -0.6721  0.2013  0.1855
 3513TIP3    H132098   5.164   5.746   1.890 -1.8981 -0.0670 -1.4218
 3513TIP3    H232099   5.094   5.867   1.947 -1.4429  0.3216 -1.6842
 3514TIP3   OH232100   6.561   4.828   2.037 -0.5197  0.1320 -0.5581
 3514TIP3    H132101   6.565   4.853   1.944 -0.2747 -1.8734 -1.1248
 3514TIP3    H232102   6.604   4.743   2.040  0.6786  0.7870  1.6525
 3515TIP3   OH232103   2.814   5.967   6.300  0.1267 -0.2196  0.6603
 3515TIP3    H132104   2.723   5.988   6.279  0.2541  0.1358  0.4552
 3515TIP3    H232105   2.862   6.048   6.284  0.4571 -0.3622  0.9147
 3516TIP3   OH232106   7.185   5.752   0.742 -0.2644 -1.0366 -0.1089
 3516TIP3    H132107   7.109   5.801   0.774  1.4012  0.0941  2.2037
 3516TIP3    H232108   7.155   5.661   0.742 -1.7966 -0.5584  0.2762
 3517TIP3   OH232109   1.423   6.064   0.990 -0.2177 -0.8767  0.5712
 3517TIP3    H132110   1.518   6.070   0.992 -0.3481  1.8087  0.9289
 3517TIP3    H232111   1.400   6.005   1.062  1.2342 -3.1089 -0.7360
 3518TIP3   OH232112   5.228   0.500   1.799  0.7032 -0.3521  0.4631
 3518TIP3    H132113   5.251   0.535   1.885  0.1794 -0.6045  0.7030
 3518TIP3    H232114   5.211   0.578   1.746  0.5967 -0.2104  0.7056
 3519TIP3   OH232115   3.979   4.780   8.128 -0.2572 -0.8482 -0.2111
 3519TIP3    H132116   3.927   4.721   8.074 -1.0420  0.0027 -0.3947
 3519TIP3    H232117   3.915   4.836   8.171  0.3932 -1.1547  1.1906
 3520TIP3   OH232118   2.225   3.753   7.240 -0.0433  0.6853  0.4001
 3520TIP3    H132119   2.156   3.818   7.253  0.3274  1.0807  0.4124
 3520TIP3    H232120   2.247   3.760   7.147  0.0341  0.6117  0.4127
 3521TIP3   OH232121   5.845   6.228   0.771  0.5126 -0.6479 -0.3933
 3521TIP3    H132122   5.937   6.251   0.781  0.3365  0.9054 -2.1678
 3521TIP3    H232123   5.841   6.135   0.794  2.4938 -0.7142 -0.2333
 3522TIP3   OH232124   1.861   5.400   7.118 -0.4295  0.2365 -0.4558
 3522TIP3    H132125   1.916   5.476   7.137  1.2324 -0.9028 -0.6197
 3522TIP3    H232126   1.869   5.388   7.023 -0.1063 -0.5612 -0.3310
 3523TIP3   OH232127   1.751   3.696   8.318  0.5507  0.5768 -0.2206
 3523TIP3    H132128   1.692   3.737   8.382 -0.6440 -0.0401 -0.9088
 3523TIP3    H232129   1.836   3.736   8.335 -0.0814  1.5472  0.7364
 3524TIP3   OH232130   2.446   4.080   6.760 -0.1806  0.6221 -0.6710
 3524TIP3    H132131   2.421   4.060   6.670 -0.3341 -0.4237 -0.3962
 3524TIP3    H232132   2.513   4.148   6.751 -1.6066  1.9590 -1.4816
 3525TIP3   OH232133   3.353   5.596   7.217 -0.1438 -0.1342  0.1685
 3525TIP3    H132134   3.274   5.644   7.241 -0.6053 -1.8200  2.1307
 3525TIP3    H232135   3.329   5.547   7.139 -0.1652  1.5227 -0.8871
 3526TIP3   OH232136   5.489   0.653   7.520 -0.4308  0.0729  0.2973
 3526TIP3    H132137   5.462   0.621   7.434 -1.3308 -0.4050  0.7542
 3526TIP3    H232138   5.413   0.704   7.551  0.9426  2.6429 -0.4026
 3527TIP3   OH232139   5.329   4.112   7.050  0.1983 -0.0752  0.2718
 3527TIP3    H132140   5.405   4.111   7.109 -0.0060  1.4211  0.5847
 3527TIP3    H232141   5.347   4.043   6.987  2.3780  1.0070 -0.3345
 3528TIP3   OH232142   0.394   5.522   0.734 -0.4399 -0.3136  0.7611
 3528TIP3    H132143   0.317   5.571   0.707 -0.2823  0.2716  1.3817
 3528TIP3    H232144   0.360   5.436   0.760 -0.5892 -0.9763 -1.4383
 3529TIP3   OH232145   3.367   6.507   1.363 -0.2344 -0.5146 -0.0772
 3529TIP3    H132146   3.278   6.503   1.399  0.1692 -0.1672  0.9844
 3529TIP3    H232147   3.423   6.520   1.440  0.7891 -1.2912 -0.6762
 3530TIP3   OH232148   6.558   6.276   1.371 -0.2538  0.5442 -0.1221
 3530TIP3    H132149   6.582   6.189   1.402 -1.4460  0.3861  0.3763
 3530TIP3    H232150   6.557   6.330   1.450  1.6335  1.2885 -0.5800
 3531TIP3   OH232151   6.467   4.568   1.717 -0.5937 -0.5295  0.6158
 3531TIP3    H132152   6.561   4.552   1.717 -0.1764  1.6511  3.0595
 3531TIP3    H232153   6.431   4.498   1.772  0.0148  0.6114  2.4992
 3532TIP3   OH232154   4.249   5.047   6.978  0.5191 -0.1011  0.0355
 3532TIP3    H132155   4.326   5.054   7.034 -0.3402  2.7952  0.9509
 3532TIP3    H232156   4.269   5.103   6.902 -0.3009 -0.0506 -0.1493
 3533TIP3   OH232157   3.699   3.185   1.591 -0.2975  0.3407 -0.1838
 3533TIP3    H132158   3.758   3.197   1.516 -1.2902 -1.3272 -1.2473
 3533TIP3    H232159   3.720   3.098   1.625 -0.7016  0.5954  0.7461
 3534TIP3   OH232160   5.037   6.661   8.297 -0.4415 -0.1490 -0.1261
 3534TIP3    H132161   4.986   6.675   8.377 -1.9313  1.5993 -1.3263
 3534TIP3    H232162   5.019   6.571   8.272 -0.7655 -0.3908  0.9807
 3535TIP3   OH232163   5.758   5.783   0.453  0.0827 -0.0934  0.5283
 3535TIP3    H132164   5.688   5.722   0.479  2.0245 -1.9741  1.5228
 3535TIP3    H232165   5.779   5.757   0.363  0.9643 -0.9669  0.9795
 3536TIP3   OH232166   0.664   1.226   7.154  0.2601  0.1726  0.0803
 3536TIP3    H132167   0.698   1.159   7.213 -0.2032 -0.2555 -0.1312
 3536TIP3    H232168   0.739   1.283   7.137  0.5264  0.0031  0.6688
 3537TIP3   OH232169   5.610   4.068   7.110  0.3106  0.4503 -0.2072
 3537TIP3    H132170   5.659   4.082   7.190  0.7271  1.7353 -0.6729
 3537TIP3    H232171   5.670   4.018   7.054  0.0248 -0.4333  0.2619
 3538TIP3   OH232172   3.086   4.305   0.529  0.2251 -0.4187  0.0096
 3538TIP3    H132173   3.176   4.273   0.523 -0.1281 -1.6080  0.8281
 3538TIP3    H232174   3.093   4.399   0.512  1.1628 -1.0375 -3.2868
 3539TIP3   OH232175   1.166   6.394   7.484 -0.4465  0.0736 -0.5552
 3539TIP3    H132176   1.217   6.323   7.446 -0.9187 -0.0970 -0.8802
 3539TIP3    H232177   1.218   6.424   7.558 -1.0104 -1.7188  0.6184
 3540TIP3   OH232178   2.063   1.100   1.583 -0.6879  0.0181  0.2033
 3540TIP3    H132179   2.002   1.077   1.652 -0.5458 -1.6276 -0.2021
 3540TIP3    H232180   2.007   1.123   1.508 -0.8232 -1.1492 -0.0611
 3541TIP3   OH232181   5.572   5.895   6.339 -0.5996 -0.4234  0.9202
 3541TIP3    H132182   5.537   5.932   6.421 -1.0557  0.3575  0.3800
 3541TIP3    H232183   5.557   5.801   6.348  0.1072 -0.4417  2.0928
 3542TIP3   OH232184   3.049   5.358   0.281  0.5195 -0.4317 -0.0874
 3542TIP3    H132185   3.086   5.315   0.359 -1.4559  1.6776  2.1057
 3542TIP3    H232186   2.969   5.310   0.262  0.3685 -0.1905 -0.0650
 3543TIP3   OH232187   0.054   6.325   0.026  0.7626  0.6444 -0.1550
 3543TIP3    H132188   0.112   6.304   0.100  0.8553  2.0230  0.1733
 3543TIP3    H232189   0.114   6.337  -0.048  0.6891 -0.4814 -0.4058
 3544TIP3   OH232190   6.846   0.608   6.756  0.5918 -0.0783  0.1426
 3544TIP3    H132191   6.752   0.612   6.776  0.7434 -1.4379  1.2134
 3544TIP3    H232192   6.859   0.674   6.688 -0.9346  0.9062  0.7894
 3545TIP3   OH232193   6.423   5.837   0.057  0.5090  0.0755 -0.0412
 3545TIP3    H132194   6.427   5.890   0.136  0.1917  1.0010 -0.6447
 3545TIP3    H232195   6.345   5.868   0.011 -1.0047 -2.4697  0.7142
 3546TIP3   OH232196   0.897   3.157   7.439 -0.3221 -0.1834 -0.0010
 3546TIP3    H132197   0.940   3.102   7.505  0.4621  2.3630  1.6573
 3546TIP3    H232198   0.944   3.240   7.442 -2.1564  0.9636 -1.7392
 3547TIP3   OH232199   5.319   4.431   5.958  0.4984  0.0732 -0.6710
 3547TIP3    H132200   5.342   4.510   5.910  1.9783 -0.2839 -0.5768
 3547TIP3    H232201   5.321   4.458   6.050  2.2836 -0.3631 -0.5595
 3548TIP3   OH232202   1.109   5.798   6.838  0.2299  0.2193  0.5500
 3548TIP3    H132203   1.075   5.720   6.795  0.9488  1.3336 -2.0882
 3548TIP3    H232204   1.204   5.791   6.831  0.3020  1.4107  0.1092
 3549TIP3   OH232205   1.282   1.506   6.415 -0.0231  0.2323  0.7327
 3549TIP3    H132206   1.253   1.470   6.331  1.1220 -2.2992  1.3604
 3549TIP3    H232207   1.287   1.600   6.401 -2.2981  0.1056 -1.2745
 3550TIP3   OH232208   7.158   4.442   6.346  0.1053 -0.0945 -0.5575
 3550TIP3    H132209   7.089   4.442   6.280  0.9546  0.0555 -1.4672
 3550TIP3    H232210   7.238   4.464   6.297  0.8431 -0.5552  0.4167
 3551TIP3   OH232211   0.427   2.261   6.751 -0.3305  0.4380  0.1457
 3551TIP3    H132212   0.400   2.184   6.701  0.3757  0.8777 -0.9225
 3551TIP3    H232213   0.351   2.319   6.748 -1.2895 -0.6714  1.9264
 3552TIP3   OH232214   4.724   4.991   7.750 -0.1456 -0.4018  0.1239
 3552TIP3    H132215   4.797   5.045   7.778 -0.5826  0.6756 -0.8065
 3552TIP3    H232216   4.667   4.986   7.827  0.5203 -0.6076  0.6061
 3553TIP3   OH232217   3.186   5.218   6.914 -0.2856  0.6650 -0.1521
 3553TIP3    H132218   3.126   5.218   6.839  0.7819  1.3278 -1.0246
 3553TIP3    H232219   3.226   5.305   6.912 -1.3329  1.2531  2.1008
 3554TIP3   OH232220   7.178   5.960   1.290 -0.4256 -0.6394 -0.5008
 3554TIP3    H132221   7.268   5.991   1.278 -0.5523 -0.2884 -0.5513
 3554TIP3    H232222   7.179   5.870   1.256 -0.1399 -0.5693 -0.6806
 3555TIP3   OH232223   3.993   3.292   7.344  0.0564 -0.1220 -0.3167
 3555TIP3    H132224   4.069   3.238   7.322 -1.0504 -0.9495 -2.1664
 3555TIP3    H232225   3.924   3.229   7.364 -0.7269  0.6081 -0.6974
 3556TIP3   OH232226   1.691   4.937   1.173  0.0986  0.3308  0.6403
 3556TIP3    H132227   1.685   4.882   1.095 -0.9201 -0.6943  1.4207
 3556TIP3    H232228   1.610   4.987   1.175  0.1604  0.4246  0.9779
 3557TIP3   OH232229   5.422   3.835   1.406  0.1942 -0.4164 -0.1557
 3557TIP3    H132230   5.374   3.774   1.350  0.5484 -0.4032 -0.4807
 3557TIP3    H232231   5.437   3.912   1.351  1.9056 -1.0226 -0.5704
 3558TIP3   OH232232   6.347   4.143   7.113 -0.0121 -0.7531 -0.1396
 3558TIP3    H132233   6.269   4.166   7.064 -0.0809 -0.9139 -0.1059
 3558TIP3    H232234   6.361   4.216   7.173 -0.4965 -1.0152  0.2958
 3559TIP3   OH232235   5.424   6.841   7.018  0.4984  0.1912  0.1621
 3559TIP3    H132236   5.456   6.931   7.014  1.7738 -0.3076 -1.0083
 3559TIP3    H232237   5.490   6.789   6.972 -0.8402 -1.1732 -0.2679
 3560TIP3   OH232238   5.830   5.182   0.092  0.7357 -0.0932 -0.5362
 3560TIP3    H132239   5.757   5.174   0.031  0.8675 -0.8584 -0.5948
 3560TIP3    H232240   5.795   5.157   0.177  1.2370 -1.6938 -0.7852
 3561TIP3   OH232241   3.965   0.709   0.421 -0.5492  0.1354  0.6642
 3561TIP3    H132242   3.975   0.618   0.395 -1.3551  0.2988 -0.2751
 3561TIP3    H232243   4.012   0.716   0.504  2.9552 -0.1588 -1.2492
 3562TIP3   OH232244   2.854   6.717   1.509 -0.3710  0.8137 -0.2844
 3562TIP3    H132245   2.771   6.686   1.546  0.5074 -0.0877  0.9725
 3562TIP3    H232246   2.834   6.732   1.417 -2.4454  2.5579  0.3982
 3563TIP3   OH232247   3.053   1.381   0.209 -0.2052 -0.5229  0.5857
 3563TIP3    H132248   3.120   1.406   0.145 -0.9455 -0.0350 -0.0146
 3563TIP3    H232249   3.053   1.286   0.209  0.3099 -0.5234  0.3969
 3564TIP3   OH232250   0.824   5.568   6.323 -0.1792  0.1765  0.6210
 3564TIP3    H132251   0.747   5.563   6.267 -0.0155 -0.8830  0.4755
 3564TIP3    H232252   0.865   5.651   6.300  0.2709 -0.5737 -1.3456
 3565TIP3   OH232253   3.690   6.615   6.443  0.2962  0.4603  0.3846
 3565TIP3    H132254   3.605   6.658   6.439  0.2334  0.3320  0.3412
 3565TIP3    H232255   3.672   6.524   6.422  0.3808  0.3504  0.7763
 3566TIP3   OH232256   5.668   5.845   8.395 -0.2595 -0.1259  0.5186
 3566TIP3    H132257   5.635   5.844   8.305 -1.8472  1.7164  1.0685
 3566TIP3    H232258   5.627   5.769   8.436  0.4820 -0.9850 -0.2801
 3567TIP3   OH232259   2.461   4.563   8.414  0.7542  0.0142 -0.3202
 3567TIP3    H132260   2.452   4.471   8.387  0.3243  0.4999 -1.8710
 3567TIP3    H232261   2.374   4.600   8.402  0.8443  0.5498  0.6470
 3568TIP3   OH232262   0.538   0.007   7.766  0.1163 -0.2029  0.9394
 3568TIP3    H132263   0.574   0.047   7.686  0.9421 -2.4857  0.1339
 3568TIP3    H232264   0.609   0.012   7.830  0.8257 -1.8440  0.3169
 3569TIP3   OH232265   2.739   0.321   8.470  0.2664  0.0148  0.0855
 3569TIP3    H132266   2.665   0.381   8.464  2.0758  2.2872 -0.5462
 3569TIP3    H232267   2.747   0.284   8.381  1.6806  2.0703 -0.6867
 3570TIP3   OH232268   5.456   1.079   7.714 -0.0197  0.1954  0.4526
 3570TIP3    H132269   5.494   1.165   7.730 -0.9694  0.5483  0.8460
 3570TIP3    H232270   5.530   1.024   7.689  0.4696  1.3379 -0.6589
 3571TIP3   OH232271   4.520   7.211   8.132  0.1343 -0.3438 -0.0760
 3571TIP3    H132272   4.510   7.300   8.165  1.1746 -0.9619  2.0303
 3571TIP3    H232273   4.594   7.215   8.072  0.4053  0.1573  0.2863
 3572TIP3   OH232274   3.685   4.221   0.332 -0.2005 -0.5235 -0.1063
 3572TIP3    H132275   3.705   4.205   0.424 -1.4761  1.1259  0.4799
 3572TIP3    H232276   3.711   4.312   0.317  1.0855 -1.1323 -1.6962
 3573TIP3   OH232277   4.579   0.392   2.498  0.3177 -0.3963 -0.2034
 3573TIP3    H132278   4.531   0.384   2.581 -0.3180  0.0649 -0.5162
 3573TIP3    H232279   4.510   0.401   2.432  0.8402  1.1442 -0.5643
 3574TIP3   OH232280   4.843   0.508   0.767 -0.8146 -0.3448 -0.7563
 3574TIP3    H132281   4.854   0.525   0.861  0.6254 -1.9945 -0.5910
 3574TIP3    H232282   4.754   0.536   0.748 -1.0091  0.3319  1.0372
 3575TIP3   OH232283   1.700   6.228   8.240  0.2775  0.1888 -0.1373
 3575TIP3    H132284   1.747   6.175   8.175  0.1464  0.3100 -0.3313
 3575TIP3    H232285   1.701   6.175   8.320 -0.0110 -0.1826 -0.3796
 3576TIP3   OH232286   3.129   4.173   8.066 -0.0638 -0.5661 -0.2318
 3576TIP3    H132287   3.064   4.194   8.133 -1.4596 -2.7910 -0.8560
 3576TIP3    H232288   3.213   4.182   8.111 -0.9354 -0.8273  1.4853
 3577TIP3   OH232289   5.335   0.262   1.458 -0.6119 -0.2927  0.4221
 3577TIP3    H132290   5.333   0.356   1.474 -1.8211  0.0844 -1.7344
 3577TIP3    H232291   5.428   0.243   1.442 -0.1943  0.2979  2.0412
 3578TIP3   OH232292   2.228   6.575   7.968 -0.0876 -0.3970 -0.3774
 3578TIP3    H132293   2.265   6.487   7.957 -2.6656 -1.8188  1.5752
 3578TIP3    H232294   2.166   6.584   7.896  1.2671  0.4417 -1.4460
 3579TIP3   OH232295   2.634   0.883   6.907 -0.3144 -0.2443 -0.0456
 3579TIP3    H132296   2.681   0.967   6.902  1.0570 -0.9138  1.2875
 3579TIP3    H232297   2.638   0.849   6.818 -1.6352  1.4925 -0.8088
 3580TIP3   OH232298   0.454   4.810   6.877 -0.0850  0.6388 -0.1854
 3580TIP3    H132299   0.374   4.853   6.907 -0.3605  0.6204 -0.8874
 3580TIP3    H232300   0.502   4.790   6.957  0.1754  2.4976  0.1434
 3581TIP3   OH232301   2.470   4.026   7.065  0.0124 -0.2671 -0.4969
 3581TIP3    H132302   2.546   4.068   7.105  1.8556 -1.3733 -2.7048
 3581TIP3    H232303   2.460   4.070   6.980 -2.0591  0.0958 -0.1028
 3582TIP3   OH232304   3.742   1.998   0.631 -0.0443 -0.5530  0.3644
 3582TIP3    H132305   3.658   2.027   0.667  0.2209  1.2881 -0.4552
 3582TIP3    H232306   3.725   1.985   0.537  0.5544 -0.3016  0.2199
 3583TIP3   OH232307   2.043   7.213   7.905  0.4741  0.1649 -0.3151
 3583TIP3    H132308   2.003   7.247   7.985 -1.1570 -0.2132 -0.9568
 3583TIP3    H232309   2.110   7.152   7.937  0.4073  0.6407  0.7695
 3584TIP3   OH232310   0.060   0.391   7.045 -0.5839  0.2570 -0.1530
 3584TIP3    H132311   0.098   0.450   6.980  1.5029 -0.8738  0.0162
 3584TIP3    H232312   0.114   0.402   7.123 -0.6047 -1.3192  0.1132
 3585TIP3   OH232313   0.671   3.848   1.695  0.1117  0.8626 -0.0638
 3585TIP3    H132314   0.611   3.801   1.753  1.3535 -0.7967 -0.0549
 3585TIP3    H232315   0.664   3.803   1.611  0.3208  1.5219 -0.4368
 3586TIP3   OH232316   2.652   3.228   6.703 -0.2118 -0.0968 -0.0868
 3586TIP3    H132317   2.724   3.166   6.717 -0.2637  0.2460  1.7985
 3586TIP3    H232318   2.574   3.172   6.696 -0.1500 -0.3000  0.8070
 3587TIP3   OH232319   0.088   5.130   6.756 -0.5740  0.2114 -0.6296
 3587TIP3    H132320   0.043   5.066   6.811  0.3940  1.1698  1.3154
 3587TIP3    H232321   0.065   5.105   6.666 -2.1277 -1.4111  0.1927
 3588TIP3   OH232322   2.971   2.244   7.845 -0.5046  0.5824 -0.0936
 3588TIP3    H132323   3.056   2.224   7.805 -0.3961 -0.2150  0.5379
 3588TIP3    H232324   2.910   2.184   7.803 -0.6151  0.5971  0.0483
 3589TIP3   OH232325   0.087   1.206   8.456 -0.0117 -0.2358 -0.5289
 3589TIP3    H132326   0.180   1.204   8.479 -0.4524 -0.2668  1.3313
 3589TIP3    H232327   0.080   1.279   8.394  0.8410  1.4549  1.2790
 3590TIP3   OH232328   2.054   7.255   0.118 -0.0441 -0.1737  0.7895
 3590TIP3    H132329   1.979   7.241   0.061  1.0413 -0.8630 -0.5073
 3590TIP3    H232330   2.094   7.169   0.126  2.2778  0.6679 -0.9559
 3591TIP3   OH232331   1.862   6.951   0.288  0.6160  0.1311  0.2417
 3591TIP3    H132332   1.805   6.877   0.306 -1.9525  1.9811  0.0652
 3591TIP3    H232333   1.909   6.927   0.208  0.4325 -1.6408  0.6619
 3592TIP3   OH232334   3.806   4.624   7.970 -0.0930 -0.0746 -0.7161
 3592TIP3    H132335   3.830   4.586   7.885  0.2693 -1.6212  0.0592
 3592TIP3    H232336   3.724   4.581   7.993  1.0775 -1.5155  0.8602
 3593TIP3   OH232337   0.560   5.687   6.672 -0.2033 -0.0316 -0.0861
 3593TIP3    H132338   0.514   5.745   6.611 -0.5432  0.1027  0.2963
 3593TIP3    H232339   0.653   5.707   6.659 -0.2565 -0.2336 -0.7947
 3594TIP3   OH232340   0.860   4.429   8.024 -0.4138  0.7471  0.1469
 3594TIP3    H132341   0.935   4.370   8.020 -2.2035 -1.4779 -2.0690
 3594TIP3    H232342   0.831   4.425   8.116  1.3959  0.6897  0.7258
 3595TIP3   OH232343   2.136   5.652   6.800  0.0820 -0.0924  0.2787
 3595TIP3    H132344   2.092   5.688   6.877 -0.5510  2.0518 -1.0550
 3595TIP3    H232345   2.229   5.655   6.822 -0.0167  1.5329  0.5573
 3596TIP3   OH232346   5.559   5.468   7.209  0.2724  0.2639 -0.7553
 3596TIP3    H132347   5.622   5.452   7.280 -1.1931 -1.1886  0.2607
 3596TIP3    H232348   5.546   5.382   7.169  0.2735  0.8845 -2.1113
 3597TIP3   OH232349   2.034   6.845   7.235 -0.0373  0.0953  0.3634
 3597TIP3    H132350   2.100   6.894   7.185  0.1574 -0.9207 -0.4046
 3597TIP3    H232351   1.953   6.855   7.184  0.2160 -1.1433 -0.3125
 3598TIP3   OH232352   3.275   5.982   0.182 -0.0656 -0.0623 -0.2586
 3598TIP3    H132353   3.338   5.944   0.121 -1.9733 -0.6685 -1.9019
 3598TIP3    H232354   3.251   5.910   0.240  2.1370  0.6435  1.5922
 3599TIP3   OH232355   1.319   5.476   0.713  0.5215 -0.0488 -0.2397
 3599TIP3    H132356   1.339   5.553   0.767  0.8336 -0.9763  0.9766
 3599TIP3    H232357   1.405   5.436   0.696  0.2668 -0.6952 -0.0147
 3600TIP3   OH232358   1.767   4.904   0.573  0.0534  0.5827 -0.7053
 3600TIP3    H132359   1.754   4.976   0.635 -1.7823 -0.8453  0.6360
 3600TIP3    H232360   1.727   4.934   0.491 -0.9709  0.9826 -0.0596
 3601TIP3   OH232361   0.975   5.566   1.602 -0.5364 -0.3020  0.1877
 3601TIP3    H132362   1.059   5.542   1.640 -1.0586 -0.0400  1.5433
 3601TIP3    H232363   0.983   5.659   1.584 -0.7229 -0.1589  0.8316
 3602TIP3   OH232364   0.104   0.223   7.492 -0.2266  0.7526  0.3690
 3602TIP3    H132365   0.162   0.236   7.567  0.2921 -0.8893  0.2845
 3602TIP3    H232366   0.154   0.256   7.417  0.5895 -0.5834  0.3091
 3603TIP3   OH232367   0.600   3.305   8.467 -0.2314 -1.0485 -0.6150
 3603TIP3    H132368   0.684   3.270   8.437  0.2547  0.8366 -1.5664
 3603TIP3    H232369   0.545   3.304   8.389 -0.6271 -0.9622 -0.3375
 3604TIP3   OH232370   7.069   3.333   7.527  0.4001 -0.3923  0.4626
 3604TIP3    H132371   7.075   3.267   7.459 -1.0683 -1.5579  1.4462
 3604TIP3    H232372   7.122   3.299   7.599 -1.2457 -1.0351  1.3881
 3605TIP3   OH232373   3.097   5.740   7.924 -0.2996 -0.2656  0.0498
 3605TIP3    H132374   3.065   5.749   8.014  0.0294 -1.0217  0.2504
 3605TIP3    H232375   3.137   5.825   7.904  1.0874 -0.6143  1.2191
 3606TIP3   OH232376   2.936   6.912   5.903 -0.5745  0.1920 -0.6419
 3606TIP3    H132377   2.874   6.949   5.840 -0.9600  0.5757 -0.0372
 3606TIP3    H232378   2.948   6.822   5.874 -1.8438 -0.0543 -0.4515
 3607TIP3   OH232379   1.299   3.764   0.862  0.4083  0.2116  0.1194
 3607TIP3    H132380   1.250   3.803   0.934  1.0239 -0.8176  1.1183
 3607TIP3    H232381   1.245   3.779   0.784 -1.0806 -0.1998  1.0702
 3608TIP3   OH232382   2.186   6.442   1.907  0.1506  0.2313  0.3441
 3608TIP3    H132383   2.103   6.412   1.872  0.3933 -0.0771  0.0336
 3608TIP3    H232384   2.198   6.391   1.988 -0.8253  1.5593  1.3497
 3609TIP3   OH232385   4.689   5.742   8.170 -0.0451 -0.1835  0.3455
 3609TIP3    H132386   4.749   5.760   8.098 -0.4048 -0.3569  0.0063
 3609TIP3    H232387   4.627   5.679   8.135 -0.1256 -0.3900  0.8540
 3610TIP3   OH232388   4.718   0.064   8.492  0.4858  0.4707  0.2337
 3610TIP3    H132389   4.667   0.112   8.427  0.4978  3.0935  2.0789
 3610TIP3    H232390   4.656   0.050   8.565  0.7745 -1.4677  0.1275
 3611TIP3   OH232391   0.852   2.779   6.494  0.1345 -0.2763  0.4398
 3611TIP3    H132392   0.946   2.792   6.481 -0.2257  0.6491 -1.3603
 3611TIP3    H232393   0.816   2.867   6.506 -0.6673 -0.5166 -0.1052
 3612TIP3   OH232394   2.450   7.120   7.041  0.4805  0.0248  0.5897
 3612TIP3    H132395   2.364   7.100   7.004  1.5579 -3.5434 -0.2627
 3612TIP3    H232396   2.433   7.134   7.134 -1.0365 -0.5350  0.4162
 3613TIP3   OH232397   2.794   4.216   6.711  0.1345  0.7761 -0.0257
 3613TIP3    H132398   2.821   4.134   6.670 -0.7116  0.2900  0.3897
 3613TIP3    H232399   2.719   4.245   6.659  0.4258  1.2874 -0.1651
 3614TIP3   OH232400   4.172   7.027   0.124  0.2985 -0.4428  0.4854
 3614TIP3    H132401   4.211   7.042   0.210 -0.7978  0.3819  0.8532
 3614TIP3    H232402   4.122   6.946   0.135  0.8223 -0.7753  0.3971
 3615TIP3   OH232403   1.155   1.057   6.669  0.2291 -0.0312  0.1458
 3615TIP3    H132404   1.227   0.994   6.670  0.5349  0.3217  0.4617
 3615TIP3    H232405   1.100   1.034   6.744 -0.2137 -0.5594 -0.3366
 3616TIP3   OH232406   5.793   6.487   0.069 -1.0741 -0.0735  0.5678
 3616TIP3    H132407   5.875   6.496   0.117 -0.6125  0.2778 -0.2722
 3616TIP3    H232408   5.800   6.402   0.026 -0.2511  0.8465 -1.1592
 3617TIP3   OH232409   2.175   2.354   0.223 -0.0071 -0.7602 -0.5637
 3617TIP3    H132410   2.105   2.413   0.198 -0.8477 -1.9552 -1.1011
 3617TIP3    H232411   2.252   2.386   0.175 -0.0765  0.8101  0.3694
 3618TIP3   OH232412   2.873   7.067   1.380 -0.2966 -0.4429  0.2400
 3618TIP3    H132413   2.959   7.024   1.383 -0.4125 -0.6579  0.4674
 3618TIP3    H232414   2.839   7.057   1.469 -0.5796 -0.4018  0.1337
 3619TIP3   OH232415   1.791   0.873   1.739 -0.3526 -0.2944  0.1690
 3619TIP3    H132416   1.822   0.836   1.657  1.6763 -0.8018  1.1493
 3619TIP3    H232417   1.866   0.919   1.775 -1.8026  1.6625  0.7712
 3620TIP3   OH232418   1.688   5.875   7.465 -0.0629 -0.2756 -0.0095
 3620TIP3    H132419   1.664   5.817   7.537  0.8284  0.7388  1.1178
 3620TIP3    H232420   1.606   5.893   7.419 -0.5854 -1.1448  0.5808
 3621TIP3   OH232421   1.463   0.615   7.633 -0.3351 -0.1925 -0.4649
 3621TIP3    H132422   1.381   0.641   7.592 -0.1589  0.5279 -0.3637
 3621TIP3    H232423   1.436   0.570   7.713 -0.6067  2.7272  1.1615
 3622TIP3   OH232424   5.123   0.350   7.340 -0.2055  0.4881  0.4606
 3622TIP3    H132425   5.092   0.324   7.254  1.1594  2.7576 -0.7617
 3622TIP3    H232426   5.213   0.379   7.326  0.0550  0.8927  2.6598
 3623TIP3   OH232427   1.204   0.188   0.117 -0.4490  0.2215 -0.4049
 3623TIP3    H132428   1.212   0.204   0.211 -0.3940 -1.9624 -0.0246
 3623TIP3    H232429   1.280   0.135   0.095 -0.4324  0.7671 -1.6996
 3624TIP3   OH232430   3.118   6.518   8.413  0.3978 -0.0468 -0.4578
 3624TIP3    H132431   3.166   6.501   8.494 -2.4759  0.4319  1.4232
 3624TIP3    H232432   3.141   6.608   8.389  1.6429 -0.3627 -0.4573
 3625TIP3   OH232433   6.025   0.674   1.303  0.1540  0.1446 -0.3158
 3625TIP3    H132434   6.111   0.684   1.263  1.3194  0.2915  2.1303
 3625TIP3    H232435   5.975   0.749   1.272  0.3920 -0.7146 -2.9296
 3626TIP3   OH232436   5.137   7.256   0.402 -0.1213 -0.4004  0.0195
 3626TIP3    H132437   5.162   7.244   0.310 -0.4108  2.2602 -0.4619
 3626TIP3    H232438   5.046   7.227   0.407 -0.1103 -0.5406 -0.5418
 3627TIP3   OH232439   4.197   4.428   6.552 -0.0369  0.1426 -0.1563
 3627TIP3    H132440   4.138   4.384   6.613 -0.6631  0.9090 -0.2172
 3627TIP3    H232441   4.276   4.445   6.603 -0.5054  0.6522  0.4024
 3628TIP3   OH232442   2.298   6.122   8.169  0.4968 -0.4061  0.3061
 3628TIP3    H132443   2.266   6.068   8.097 -1.3365 -0.3694  1.0630
 3628TIP3    H232444   2.219   6.159   8.208  1.7144  4.1152 -1.1387
 3629TIP3   OH232445   2.137   6.804   1.545  0.0398 -0.3571  0.2681
 3629TIP3    H132446   2.098   6.763   1.468 -1.0503 -0.7181  1.0025
 3629TIP3    H232447   2.231   6.788   1.536 -0.1513 -1.0119 -0.6180
 3630TIP3   OH232448   1.617   4.136   8.192  0.4690 -0.3369  0.0209
 3630TIP3    H132449   1.593   4.223   8.159  1.0990  0.5463  1.8638
 3630TIP3    H232450   1.567   4.076   8.137  0.1545  1.1763 -1.3902
 3631TIP3   OH232451   1.641   4.561   0.323 -0.0285 -0.0050  0.0060
 3631TIP3    H132452   1.697   4.626   0.280 -1.1747  0.2816 -1.0870
 3631TIP3    H232453   1.668   4.563   0.414  1.4644  0.4206 -0.4281
 3632TIP3   OH232454   1.649   0.031   7.704  0.2739  0.2514 -0.1290
 3632TIP3    H132455   1.616   0.033   7.614 -0.6995 -2.0217  0.1676
 3632TIP3    H232456   1.724  -0.029   7.701  0.1059 -0.0019  0.6210
 3633TIP3   OH232457   0.509   5.098   1.059  0.2964  0.2320 -0.3292
 3633TIP3    H132458   0.557   5.098   0.976 -0.0379 -1.0038 -0.5441
 3633TIP3    H232459   0.557   5.035   1.113 -0.0157  0.3645  0.1009
 3634TIP3   OH232460   2.498   7.101   1.711  0.1846  0.1766 -0.1460
 3634TIP3    H132461   2.463   7.053   1.785 -1.4639  1.8549  0.1783
 3634TIP3    H232462   2.450   7.068   1.635  1.8207 -1.4884 -0.5079
 3635TIP3   OH232463   2.505   6.006   6.289 -0.3478  0.3180 -0.2422
 3635TIP3    H132464   2.479   6.058   6.365 -0.6654 -1.5978  0.9730
 3635TIP3    H232465   2.446   5.931   6.289  0.1704 -0.1242 -1.9275
 3636TIP3   OH232466   5.425   5.933   7.083 -0.8020 -0.2797 -0.1705
 3636TIP3    H132467   5.450   5.987   7.008 -1.6040 -0.8344 -0.8516
 3636TIP3    H232468   5.352   5.879   7.050 -1.7477  0.0970  1.2657
 3637TIP3   OH232469   2.301   0.442   0.086  0.1504 -0.7591 -0.2394
 3637TIP3    H132470   2.265   0.368   0.038  0.4703 -0.3725 -1.0850
 3637TIP3    H232471   2.272   0.519   0.037 -0.1409 -0.3284  0.6023
 3638TIP3   OH232472   6.341   6.286   1.843  0.0833  0.4920 -0.1894
 3638TIP3    H132473   6.279   6.317   1.777 -0.9979  0.7717  0.9306
 3638TIP3    H232474   6.382   6.365   1.877  0.4405  0.3725 -0.3457
 3639TIP3   OH232475   4.051   1.071   7.815  0.0009 -0.0624 -0.4156
 3639TIP3    H132476   4.000   1.045   7.739 -0.0285  2.1709 -1.1765
 3639TIP3    H232477   4.142   1.057   7.788 -0.1040 -2.3137  0.3017
 3640TIP3   OH232478   4.330   0.439   6.617 -0.5374  0.0308  0.7343
 3640TIP3    H132479   4.310   0.433   6.524 -0.1361 -2.4944  0.8038
 3640TIP3    H232480   4.321   0.533   6.637 -0.4064  0.6238 -1.8646
 3641TIP3   OH232481   5.772   7.127   6.739  0.0578 -0.4173  0.7940
 3641TIP3    H132482   5.776   7.054   6.677  1.6694  2.0458 -2.1164
 3641TIP3    H232483   5.860   7.130   6.777  0.1251  0.2911  0.5756
 3642TIP3   OH232484   0.401   4.568   0.708 -0.4591  0.1811 -0.1017
 3642TIP3    H132485   0.483   4.610   0.683 -0.6182 -0.1951 -1.2861
 3642TIP3    H232486   0.426   4.503   0.773  0.1995 -0.0362 -0.5714
 3643TIP3   OH232487   5.599   6.354   7.441 -0.3811 -0.3005  0.2993
 3643TIP3    H132488   5.547   6.415   7.389  0.2621  0.1529  0.1920
 3643TIP3    H232489   5.543   6.333   7.516 -0.4970  0.6086  0.4672
 3644TIP3   OH232490   6.306   0.758   0.390  0.4236 -0.1446 -0.0008
 3644TIP3    H132491   6.212   0.758   0.404  0.2669 -2.2338 -0.9212
 3644TIP3    H232492   6.317   0.790   0.301  0.4614 -1.6279 -0.5370
 3645TIP3   OH232493   4.268   6.926   1.088  0.0341  0.2620  0.1560
 3645TIP3    H132494   4.245   6.937   1.180 -0.7014  1.1663 -0.1280
 3645TIP3    H232495   4.360   6.953   1.083  0.5931 -1.4161  0.9246
 3646TIP3   OH232496   3.183   6.803   8.455 -0.3554 -0.0430  0.7530
 3646TIP3    H132497   3.197   6.781   8.547  0.4915 -3.6643 -0.1671
 3646TIP3    H232498   3.259   6.768   8.410 -1.0387  1.1674 -1.4316
 3647TIP3   OH232499   6.545   3.283   1.378  0.2831  0.5323 -0.4647
 3647TIP3    H132500   6.587   3.242   1.303  1.9837 -0.3500  0.9393
 3647TIP3    H232501   6.611   3.341   1.415 -0.5045  0.9074  0.3877
 3648TIP3   OH232502   3.494   4.622   7.690 -0.5061 -0.0745  0.3068
 3648TIP3    H132503   3.536   4.706   7.711  4.3652 -2.1600 -0.4899
 3648TIP3    H232504   3.495   4.573   7.772  1.4986 -1.3024 -0.4452
 3649TIP3   OH232505   3.653   6.630   6.925 -0.7045 -0.1672 -0.2830
 3649TIP3    H132506   3.601   6.666   6.853 -0.2691  1.5710  0.2312
 3649TIP3    H232507   3.741   6.666   6.912 -0.8450  0.9532  1.6271
 3650TIP3   OH232508   2.930   5.675   7.529  0.5400  0.1478  0.3018
 3650TIP3    H132509   2.876   5.753   7.519 -1.9224 -1.5163  0.0526
 3650TIP3    H232510   2.918   5.649   7.621  1.2800  0.0154  0.3627
 3651TIP3   OH232511   1.165   6.185   0.970  0.8249  0.1522  0.0307
 3651TIP3    H132512   1.077   6.153   0.990 -0.5488  3.0267 -1.1349
 3651TIP3    H232513   1.223   6.118   1.005 -1.7473 -0.6935  2.9041
 3652TIP3   OH232514   3.000   1.455   7.422  0.3307  0.2341 -0.0206
 3652TIP3    H132515   2.926   1.422   7.472  0.0019 -1.8264 -1.7848
 3652TIP3    H232516   3.076   1.408   7.457  0.7895  1.9767  1.4426
 3653TIP3   OH232517   4.240   2.754   1.952  0.4025  0.1374  0.4426
 3653TIP3    H132518   4.245   2.662   1.977  1.1029  0.2584  0.7414
 3653TIP3    H232519   4.322   2.792   1.982  0.4758  0.6810 -0.4315
 3654TIP3   OH232520   2.618   6.576   1.830 -0.3133  0.4744  0.5938
 3654TIP3    H132521   2.703   6.575   1.873 -0.6895  0.4946  1.3484
 3654TIP3    H232522   2.586   6.486   1.839 -0.2168  0.3785 -0.0028
 3655TIP3   OH232523   4.355   6.476   0.817  0.2375  0.6752  0.3351
 3655TIP3    H132524   4.434   6.423   0.827 -0.5401 -0.9164 -1.6220
 3655TIP3    H232525   4.359   6.538   0.890  2.1407 -0.8393  1.5911
 3656TIP3   OH232526   4.288   5.691   1.480 -0.1003  0.1937 -0.6001
 3656TIP3    H132527   4.339   5.773   1.475  2.3072 -1.1705  0.7246
 3656TIP3    H232528   4.353   5.622   1.466 -1.7568 -1.5805  0.3144
 3657TIP3   OH232529   3.142   4.498   8.160  0.2712 -0.1253  0.1920
 3657TIP3    H132530   3.191   4.475   8.081 -1.7084 -2.7812 -0.3082
 3657TIP3    H232531   3.099   4.417   8.187 -1.6233  1.4788  2.2056
 3658TIP3   OH232532   5.245   5.901   6.664  0.1670  0.3017  0.6743
 3658TIP3    H132533   5.185   5.957   6.615 -0.8903  0.1357  1.7356
 3658TIP3    H232534   5.267   5.830   6.604  0.1356  0.9394 -0.0890
 3659TIP3   OH232535   4.908   7.255   1.931 -0.8637 -0.0995 -0.1536
 3659TIP3    H132536   4.888   7.162   1.943 -2.3166  0.3732  1.3832
 3659TIP3    H232537   4.998   7.264   1.962 -0.5751 -1.0564 -0.6776
 3660TIP3   OH232538   4.945   0.146   8.331 -0.0182  0.1410  0.0226
 3660TIP3    H132539   4.860   0.102   8.339  0.7506 -1.0114  2.2324
 3660TIP3    H232540   4.926   0.238   8.348 -0.8124 -0.1382  0.6995
 3661TIP3   OH232541   6.767   6.041   0.076 -0.2688  0.0845  0.3034
 3661TIP3    H132542   6.787   6.117   0.132  0.6216  1.0234 -1.2666
 3661TIP3    H232543   6.722   6.078   0.001  1.6790 -0.7071 -1.2924
 3662TIP3   OH232544   0.031   5.663   0.433  0.4906  0.1882  0.2893
 3662TIP3    H132545  -0.017   5.621   0.504 -1.5481  2.8082  0.5274
 3662TIP3    H232546   0.109   5.698   0.475  1.3183 -1.7320  0.4213
 3663TIP3   OH232547   6.062   6.676   7.081 -0.8996 -0.7805 -0.3256
 3663TIP3    H132548   5.977   6.633   7.072 -1.5919  0.5806 -0.5717
 3663TIP3    H232549   6.085   6.665   7.173 -0.9867 -1.8085 -0.4255
 3664TIP3   OH232550   6.112   6.750   0.240  0.0894  1.4884 -0.2845
 3664TIP3    H132551   6.035   6.729   0.293 -0.7137  0.7305 -1.7123
 3664TIP3    H232552   6.075   6.790   0.161  1.2557  2.4367 -0.3551
 3665TIP3   OH232553   4.291   1.314   7.234 -0.1350 -0.0505 -0.0049
 3665TIP3    H132554   4.324   1.247   7.293  0.4103  1.3363  1.3004
 3665TIP3    H232555   4.368   1.364   7.208 -0.7934  1.4222  0.7897
 3666TIP3   OH232556   4.384   0.613   0.165 -0.1889 -0.4364  0.3648
 3666TIP3    H132557   4.473   0.648   0.171 -0.7763  1.2401 -0.2768
 3666TIP3    H232558   4.389   0.548   0.095  0.4558 -0.0690  0.0601
 3667TIP3   OH232559   6.408   5.770   6.990 -0.4032  0.4788  0.2013
 3667TIP3    H132560   6.373   5.852   6.953 -2.0114 -0.3600 -0.1954
 3667TIP3    H232561   6.358   5.758   7.071  0.4994  0.3687  0.7481
 3668TIP3   OH232562   6.782   2.443   6.734  0.3497 -0.1035  0.0646
 3668TIP3    H132563   6.702   2.419   6.688  0.5655 -0.3275 -0.1965
 3668TIP3    H232564   6.782   2.538   6.735  0.4210 -0.0972 -0.5341
 3669TIP3   OH232565   3.023   3.465   1.072  0.3136  0.1001 -0.1203
 3669TIP3    H132566   3.044   3.442   1.162 -0.3655 -0.1604 -0.0242
 3669TIP3    H232567   3.002   3.382   1.030 -2.2933  0.5046  0.2733
 3670TIP3   OH232568   1.705   5.436   6.008  0.0915  0.2260 -0.6820
 3670TIP3    H132569   1.748   5.521   6.020  1.6395 -0.7302  0.8141
 3670TIP3    H232570   1.612   5.454   6.017  0.5839  1.2188  3.3712
 3671TIP3   OH232571   3.197   7.135   0.394 -0.0914  0.7086  0.1826
 3671TIP3    H132572   3.222   7.043   0.403 -0.0033  0.6455 -0.6073
 3671TIP3    H232573   3.280   7.182   0.406 -0.1126  0.6741  0.4598
 3672TIP3   OH232574   4.305   7.261   1.093  0.2240 -0.0027  0.1836
 3672TIP3    H132575   4.261   7.226   1.016  1.8042 -1.7971  0.0435
 3672TIP3    H232576   4.286   7.354   1.092 -0.1231 -0.0715 -2.1312
 3673TIP3   OH232577   6.609   5.641   0.078  0.0468  0.0496 -0.4816
 3673TIP3    H132578   6.548   5.714   0.071  0.0229  0.0836  0.0940
 3673TIP3    H232579   6.676   5.661   0.012 -0.3616  0.1980 -0.8582
 3674TIP3   OH232580   0.862   6.033   6.295  0.1951  0.0221 -0.1248
 3674TIP3    H132581   0.894   5.943   6.297  1.6421  0.5362  0.6112
 3674TIP3    H232582   0.913   6.075   6.226  0.7995  0.7310  0.7410
 3675TIP3   OH232583   0.165   0.227   7.994 -0.2206 -0.3469 -0.1163
 3675TIP3    H132584   0.172   0.159   8.061  0.5024 -1.0908 -0.9339
 3675TIP3    H232585   0.216   0.300   8.029  0.7422 -0.9893 -0.1556
 3676TIP3   OH232586   6.965   4.756   1.588 -0.2623  0.2862  0.5271
 3676TIP3    H132587   7.029   4.697   1.627 -0.3396 -1.6535 -2.1548
 3676TIP3    H232588   6.890   4.700   1.567  0.3189  0.8662 -3.6207
 3677TIP3   OH232589   4.425   5.624   7.343  0.7236 -0.2586 -0.2420
 3677TIP3    H132590   4.444   5.607   7.435  2.7022 -1.6956 -0.8770
 3677TIP3    H232591   4.447   5.716   7.329  1.0849 -0.2247  0.5552
 3678TIP3   OH232592   0.154   5.375   8.148 -0.1844 -0.3322 -0.1417
 3678TIP3    H132593   0.110   5.390   8.064 -1.3306 -0.1286  0.4863
 3678TIP3    H232594   0.160   5.280   8.154  0.4999 -0.3315 -0.7574
 3679TIP3   OH232595   6.740   3.637   6.673  0.5039  1.0016  0.0749
 3679TIP3    H132596   6.657   3.680   6.691 -0.1360 -0.5130  0.8420
 3679TIP3    H232597   6.789   3.700   6.620 -1.3219  1.7155 -0.8144
 3680TIP3   OH232598   4.048   6.548   6.769 -0.7520  0.2469  0.1196
 3680TIP3    H132599   4.030   6.623   6.826 -2.2148 -0.7340  0.9961
 3680TIP3    H232600   3.988   6.558   6.696 -1.0976 -0.1711  0.3427
 3681TIP3   OH232601   6.815   6.716   7.842  0.4291 -0.8555  0.0251
 3681TIP3    H132602   6.840   6.643   7.899 -1.3039 -1.2354  0.3127
 3681TIP3    H232603   6.792   6.787   7.901 -1.4260 -1.2683 -0.1722
 3682TIP3   OH232604   0.138   5.609   7.792  0.1275 -0.3009  0.7342
 3682TIP3    H132605   0.084   5.657   7.730  0.3464 -0.9449  0.0276
 3682TIP3    H232606   0.158   5.672   7.861 -0.4341  0.3139  0.3397
 3683TIP3   OH232607   1.226   5.816   0.034 -0.6305  0.3225  0.1871
 3683TIP3    H132608   1.235   5.850  -0.054  0.0533  0.6177  0.3644
 3683TIP3    H232609   1.145   5.765   0.033  0.3555 -1.2690 -1.1376
 3684TIP3   OH232610   4.799   5.624   7.115 -0.0544  0.1229  0.0444
 3684TIP3    H132611   4.767   5.705   7.075 -0.1182 -0.3490 -0.8739
 3684TIP3    H232612   4.807   5.645   7.208 -1.6934  0.6627  0.0743
 3685TIP3   OH232613   0.882   5.220   6.936  0.6372 -0.1102 -0.3937
 3685TIP3    H132614   0.814   5.243   6.873  1.6680 -1.8297 -2.1621
 3685TIP3    H232615   0.938   5.298   6.940  0.3215  0.1703 -1.2788
 3686TIP3   OH232616   4.345   6.897   6.378 -0.1309  0.3019  0.5184
 3686TIP3    H132617   4.269   6.955   6.379  0.4434  1.0474  0.5950
 3686TIP3    H232618   4.307   6.809   6.390 -0.9788  0.6643  0.5548
 3687TIP3   OH232619   3.129   1.533   8.005 -0.4079 -0.1225 -0.0984
 3687TIP3    H132620   3.121   1.456   8.063 -0.3321 -0.0616 -0.0063
 3687TIP3    H232621   3.180   1.596   8.056 -0.7579  0.1165 -0.0391
 3688TIP3   OH232622   4.586   0.316   0.955  0.2337  0.3734 -0.7649
 3688TIP3    H132623   4.659   0.365   0.992 -0.8294  1.4266 -0.0132
 3688TIP3    H232624   4.546   0.272   1.031  0.2569 -0.3969 -1.2039
 3689TIP3   OH232625   5.911   5.304   5.848  0.2301  0.4076  0.0713
 3689TIP3    H132626   5.918   5.213   5.877  0.4573  0.6961  0.9373
 3689TIP3    H232627   5.974   5.351   5.903 -0.8382  1.3018  0.5504
 3690TIP3   OH232628   2.654   0.449   1.389  0.8967 -0.1258 -0.1671
 3690TIP3    H132629   2.583   0.486   1.441 -0.7533 -2.5836 -0.5464
 3690TIP3    H232630   2.609   0.403   1.317  2.8621 -1.5673 -0.5158
 3691TIP3   OH232631   6.968   7.145   0.679 -0.4080  0.0200  0.0054
 3691TIP3    H132632   6.962   7.052   0.698  0.0121  0.3916  2.1470
 3691TIP3    H232633   6.965   7.187   0.765 -0.7937  1.9918 -0.9397
 3692TIP3   OH232634   5.309   6.513   6.579 -0.1541 -0.4132  0.4150
 3692TIP3    H132635   5.359   6.454   6.523 -1.6688 -0.6490 -0.7407
 3692TIP3    H232636   5.345   6.599   6.561 -0.4299 -0.5208 -0.7617
 3693TIP3   OH232637   4.826   1.120   7.633 -0.9139  0.2692  0.3305
 3693TIP3    H132638   4.826   1.060   7.558  1.3895 -0.3517  0.7894
 3693TIP3    H232639   4.810   1.206   7.595 -0.7945 -0.1711 -0.7393
 3694TIP3   OH232640   5.184   5.503   7.169 -0.5104 -0.1478  0.2690
 3694TIP3    H132641   5.143   5.451   7.099  0.2850 -0.4123 -0.0064
 3694TIP3    H232642   5.239   5.566   7.123  0.9476 -1.0896  0.6569
 3695TIP3   OH232643   2.859   2.326   6.435 -0.6293  0.0966  0.3437
 3695TIP3    H132644   2.883   2.282   6.516  1.4165 -0.9214 -0.7628
 3695TIP3    H232645   2.858   2.419   6.457 -1.0517 -0.2343  1.7475
 3696TIP3   OH232646   4.565   5.496   0.210 -0.7837 -0.7100 -0.2224
 3696TIP3    H132647   4.503   5.463   0.275 -1.5101  1.3490  0.1627
 3696TIP3    H232648   4.517   5.563   0.163  0.5103 -0.5313 -1.3181
 3697TIP3   OH232649   7.167   4.646   6.514  0.6121  0.1642  0.1563
 3697TIP3    H132650   7.170   4.570   6.456  1.2481 -0.4481  0.9726
 3697TIP3    H232651   7.116   4.711   6.466 -0.6965 -1.0885 -0.1886
 3698TIP3   OH232652   6.643   7.037   7.626 -0.2481  0.5937 -0.9311
 3698TIP3    H132653   6.729   7.036   7.667 -0.6479  0.7638 -0.0904
 3698TIP3    H232654   6.658   6.999   7.539  0.2324 -1.6678  0.0904
 3699TIP3   OH232655   2.248   4.401   1.668  0.5726  0.4465  0.2151
 3699TIP3    H132656   2.316   4.356   1.618  0.0072 -2.0245  1.6044
 3699TIP3    H232657   2.167   4.355   1.644 -0.0482  0.8275  1.5414
 3700TIP3   OH232658   6.504   6.168   0.481  0.1754 -1.1826  0.0101
 3700TIP3    H132659   6.537   6.197   0.396  0.4732  0.4713  0.6648
 3700TIP3    H232660   6.468   6.248   0.521  0.8774 -1.7428  1.8215
 3701TIP3   OH232661   1.236   0.675   1.930 -0.3687 -0.8809 -0.0059
 3701TIP3    H132662   1.243   0.631   1.845 -2.3032  0.3869 -0.8622
 3701TIP3    H232663   1.311   0.734   1.932  0.1912 -1.5637 -0.4338
 3702TIP3   OH232664   1.367   4.319   8.041  0.1170 -0.9071 -0.3500
 3702TIP3    H132665   1.413   4.263   7.978  2.0364 -1.3195  1.3472
 3702TIP3    H232666   1.436   4.349   8.100 -1.3608  0.9241  0.4878
 3703TIP3   OH232667   0.649   4.076   0.548 -0.4436  0.1377 -0.0319
 3703TIP3    H132668   0.727   4.109   0.504 -0.8603  0.9524 -0.1724
 3703TIP3    H232669   0.622   4.000   0.496 -0.7243  0.8801 -0.9771
 3704TIP3   OH232670   0.362   6.249   1.698  0.1014  0.4796 -0.1112
 3704TIP3    H132671   0.283   6.208   1.734  0.6381 -1.1353 -0.7601
 3704TIP3    H232672   0.433   6.190   1.723  0.9108  1.1273 -0.8651
 3705TIP3   OH232673   1.400   3.099   8.246  0.4574 -0.1157  0.6059
 3705TIP3    H132674   1.469   3.150   8.289 -0.4121  0.5262  1.2311
 3705TIP3    H232675   1.365   3.158   8.179  0.5728 -0.4820  0.2181
 3706TIP3   OH232676   4.148   7.183   0.630 -0.8832 -0.6261 -0.7719
 3706TIP3    H132677   4.089   7.123   0.584  1.0566 -0.6037 -3.4247
 3706TIP3    H232678   4.143   7.264   0.579 -2.5469  1.1378  2.0689
 3707TIP3   OH232679   5.914   6.925   0.859 -0.2243  0.2367  0.3438
 3707TIP3    H132680   5.972   6.899   0.787 -0.9469 -0.1854 -0.0879
 3707TIP3    H232681   5.888   6.842   0.899 -1.3015  0.3599 -0.0727
 3708TIP3   OH232682   1.496   7.037   0.706 -0.3995  0.3089 -0.1278
 3708TIP3    H132683   1.504   7.067   0.616  0.7228  2.1035  0.5432
 3708TIP3    H232684   1.585   7.044   0.742 -0.9956  0.4959  1.3668
 3709TIP3   OH232685   2.038   5.242   8.046 -0.2660  0.1775 -0.5845
 3709TIP3    H132686   2.112   5.209   7.994  0.8465  0.9351  0.5000
 3709TIP3    H232687   1.971   5.266   7.981  1.2922  1.5823 -1.7044
 3710TIP3   OH232688   0.813   6.982   1.029  0.0994  0.1288 -0.5004
 3710TIP3    H132689   0.810   6.912   1.094 -2.5869  2.7337  2.2960
 3710TIP3    H232690   0.884   7.039   1.057  1.6658 -0.8852 -2.2546
 3711TIP3   OH232691   1.770   7.156   1.858  0.5110  0.2199 -0.4261
 3711TIP3    H132692   1.717   7.229   1.891  0.3408 -0.4292  0.7462
 3711TIP3    H232693   1.802   7.187   1.774 -0.7727  1.0828 -0.6180
 3712TIP3   OH232694   1.727   6.764   7.840 -0.3081 -0.3544 -0.6018
 3712TIP3    H132695   1.791   6.766   7.768 -0.0404  0.9893 -0.3362
 3712TIP3    H232696   1.643   6.783   7.797 -0.2782 -0.4244 -0.6920
 3713TIP3   OH232697   0.882   5.609   0.865 -0.1334  0.2205  0.6967
 3713TIP3    H132698   0.969   5.646   0.884 -0.5694  1.7541 -0.2157
 3713TIP3    H232699   0.877   5.531   0.920  1.7138  0.2708  0.9772
 3714TIP3   OH232700   2.746   2.930   7.578 -0.1395  0.1363  0.0363
 3714TIP3    H132701   2.702   2.847   7.559  2.1700 -0.6877 -2.0202
 3714TIP3    H232702   2.778   2.921   7.667  0.5375 -1.4197 -0.3429
 3715TIP3   OH232703   5.794   6.529   7.174  0.0893  0.1346  0.1697
 3715TIP3    H132704   5.801   6.575   7.090  0.4264  0.5029  0.3918
 3715TIP3    H232705   5.825   6.441   7.156  2.0912  0.7664  0.3408
 3716TIP3   OH232706   4.241   0.763   1.212  0.3819 -0.2642 -0.4613
 3716TIP3    H132707   4.215   0.746   1.302  0.9183  0.0348 -0.2428
 3716TIP3    H232708   4.161   0.756   1.161  0.5807 -3.6190 -0.4175
 3717TIP3   OH232709   6.461   1.063   1.868 -0.2234  0.2818  0.2386
 3717TIP3    H132710   6.515   1.052   1.946 -0.5951 -0.3492  0.4171
 3717TIP3    H232711   6.504   1.010   1.801 -0.7609 -0.4383  0.4564
 3718TIP3   OH232712   1.037   0.815   1.377 -0.2729  0.3117  0.2395
 3718TIP3    H132713   1.119   0.844   1.418 -0.0440 -0.2232  0.1576
 3718TIP3    H232714   1.050   0.832   1.284 -1.4032  3.0348  0.5289
 3719TIP3   OH232715   4.861   5.854   6.324  0.2247 -0.2629  0.0798
 3719TIP3    H132716   4.925   5.794   6.361  1.1858 -0.0363 -1.1886
 3719TIP3    H232717   4.837   5.815   6.241  0.9450  1.1534 -0.8192
 3720TIP3   OH232718   3.793   6.742   0.510  0.2331 -0.4167  0.1802
 3720TIP3    H132719   3.748   6.664   0.544  0.0289 -0.6227 -0.5649
 3720TIP3    H232720   3.875   6.709   0.473  0.8443 -0.0880  1.1960
 3721TIP3   OH232721   0.517   2.956   0.341 -0.1261  0.4370 -0.3933
 3721TIP3    H132722   0.463   3.004   0.404 -3.2746 -1.1903 -1.7369
 3721TIP3    H232723   0.596   2.932   0.390 -1.6053  0.9587  2.3265
 3722TIP3   OH232724   6.570   6.193   8.440 -0.8226 -0.0444 -0.1992
 3722TIP3    H132725   6.536   6.279   8.416 -1.2431 -0.0363  0.4044
 3722TIP3    H232726   6.532   6.133   8.376 -2.2776 -0.0837  0.6721
 3723TIP3   OH232727   0.331   3.230   1.229  0.3073  0.0710 -0.3803
 3723TIP3    H132728   0.341   3.154   1.171  1.6201  0.4347 -0.6358
 3723TIP3    H232729   0.303   3.301   1.171 -0.6205 -0.1289 -0.1897
 3724TIP3   OH232730   0.686   2.841   6.188  0.3409 -0.1109  0.3111
 3724TIP3    H132731   0.754   2.894   6.229 -0.1836 -0.6366  1.9028
 3724TIP3    H232732   0.606   2.866   6.233 -0.0695 -1.5150  0.3848
 3725TIP3   OH232733   0.633   2.533   1.942  0.1966  0.4309 -0.4488
 3725TIP3    H132734   0.603   2.611   1.896 -1.0685 -0.3639 -1.0095
 3725TIP3    H232735   0.716   2.511   1.900  0.0281  0.8551 -1.0149
 3726TIP3   OH232736   1.399   0.137   0.801 -0.3375 -0.3693  0.0425
 3726TIP3    H132737   1.470   0.111   0.743 -0.5527 -1.3948  0.2302
 3726TIP3    H232738   1.327   0.077   0.781  0.1267 -1.7951  2.4818
 3727TIP3   OH232739   2.261   5.656   0.842 -0.1735 -0.4537  0.0606
 3727TIP3    H132740   2.288   5.691   0.927  1.7260  1.2228 -1.2046
 3727TIP3    H232741   2.210   5.726   0.802 -1.5735 -1.4650  0.0545
 3728TIP3   OH232742   1.510   1.550   1.228  0.6340  0.3295 -0.1093
 3728TIP3    H132743   1.467   1.587   1.151  2.6349  2.0897 -0.4344
 3728TIP3    H232744   1.517   1.457   1.209 -1.2308  0.3351 -0.8983
 3729TIP3   OH232745   6.626   6.820   2.156 -0.5709 -0.3936 -1.0744
 3729TIP3    H132746   6.682   6.848   2.228  0.5729  0.9493 -2.4599
 3729TIP3    H232747   6.640   6.725   2.151  0.9997 -0.1816 -0.9235
 3730TIP3   OH232748   2.870   1.685   0.101  0.3995  0.1656 -0.4156
 3730TIP3    H132749   2.914   1.664   0.019  1.5555 -0.6113  0.3837
 3730TIP3    H232750   2.881   1.606   0.154  1.4772  1.4235  1.2518
 3731TIP3   OH232751   2.057   0.812   8.164  0.8309  0.1017  0.8678
 3731TIP3    H132752   2.135   0.780   8.120 -1.4012 -0.9022 -2.5715
 3731TIP3    H232753   2.025   0.736   8.213 -0.3335 -0.8047 -1.2411
 3732TIP3   OH232754   3.290   1.171   8.096 -0.4879 -0.4711 -0.4077
 3732TIP3    H132755   3.201   1.199   8.115 -0.0631 -0.0320  1.0547
 3732TIP3    H232756   3.281   1.085   8.054 -1.6078 -0.1569 -0.8192
 3733TIP3   OH232757   2.417   7.205   8.259 -0.3022  0.0272 -0.2144
 3733TIP3    H132758   2.370   7.284   8.285  1.3087  1.0943 -0.4744
 3733TIP3    H232759   2.432   7.216   8.164  0.7832 -0.0946 -0.0699
 3734TIP3   OH232760   6.980   3.047   2.379  0.0598 -0.1597  0.1708
 3734TIP3    H132761   6.914   2.995   2.425 -2.1947  0.5764 -2.1180
 3734TIP3    H232762   6.929   3.111   2.328  2.6026  1.3366 -0.5680
 3735TIP3   OH232763   5.605   7.297   7.708  0.0657  0.7213 -0.2150
 3735TIP3    H132764   5.555   7.275   7.787  1.0152  0.7633  0.4060
 3735TIP3    H232765   5.565   7.377   7.676 -0.3963  0.6449  0.1597
 3736TIP3   OH232766   3.270   6.590   7.562 -0.5680 -0.0707 -0.1845
 3736TIP3    H132767   3.289   6.502   7.594 -0.5017  0.3186  0.8571
 3736TIP3    H232768   3.186   6.612   7.601 -0.3528  0.5181 -0.0446
 3737TIP3   OH232769   6.938   0.801   8.349 -0.1500 -0.5553  0.0495
 3737TIP3    H132770   7.004   0.867   8.368 -0.3806 -0.3682  0.1904
 3737TIP3    H232771   6.978   0.746   8.282  0.8231 -1.4715  1.3671
 3738TIP3   OH232772   3.159   3.888   8.384  0.2999 -0.0355  0.4344
 3738TIP3    H132773   3.087   3.950   8.395 -0.0396 -0.3227 -0.1833
 3738TIP3    H232774   3.238   3.937   8.409  0.1556  0.9467 -0.9963
 3739TIP3   OH232775   0.816   2.306   8.367  0.0366 -0.1547  0.1687
 3739TIP3    H132776   0.751   2.371   8.394  0.2592  0.0348  0.2509
 3739TIP3    H232777   0.900   2.343   8.396  0.3728  0.4092 -1.4578
 3740TIP3   OH232778   7.033   0.489   1.437 -0.1936  0.3227  0.1218
 3740TIP3    H132779   7.097   0.523   1.500  0.4557  0.4844 -0.6104
 3740TIP3    H232780   6.991   0.416   1.482 -0.0675  0.7272  0.9101
 3741TIP3   OH232781   1.552   0.824   1.587  0.3098  0.1111  0.3261
 3741TIP3    H132782   1.544   0.838   1.681  0.5162  0.5976  0.2710
 3741TIP3    H232783   1.644   0.797   1.574  0.7034  1.5428  0.0794
 3742TIP3   OH232784   1.936   1.215   7.916 -0.1616 -0.3833 -0.0949
 3742TIP3    H132785   2.026   1.184   7.923  0.3865  1.2707  0.3857
 3742TIP3    H232786   1.892   1.149   7.862  1.8254 -0.1566 -2.0566
 3743TIP3   OH232787   1.106   0.440   1.607 -0.1342 -0.4763 -0.3590
 3743TIP3    H132788   1.098   0.532   1.631 -0.3685 -0.7071  0.4629
 3743TIP3    H232789   1.112   0.394   1.690  0.2693 -1.1833 -0.7724
 3744TIP3   OH232790   2.866   6.317   0.628 -0.0812  0.0655  0.4374
 3744TIP3    H132791   2.855   6.240   0.684  1.7458  0.9264  2.0371
 3744TIP3    H232792   2.813   6.384   0.670 -2.6912 -0.6139 -1.6558
 3745TIP3   OH232793   3.572   6.427   7.702  0.0891  0.0106  0.5940
 3745TIP3    H132794   3.515   6.355   7.677  0.5478  0.2098 -1.0706
 3745TIP3    H232795   3.659   6.400   7.674  0.1216  1.6298 -1.0017
 3746TIP3   OH232796   6.608   0.573   1.810  0.5740  0.0936 -0.5573
 3746TIP3    H132797   6.529   0.544   1.765  0.7732 -1.2238 -0.0717
 3746TIP3    H232798   6.671   0.589   1.740  0.3479 -0.2896 -0.8501
 3747TIP3   OH232799   3.908   7.191   1.466 -0.0305 -0.9450 -0.2406
 3747TIP3    H132800   3.865   7.184   1.552 -1.1466 -1.5048 -0.8386
 3747TIP3    H232801   3.953   7.108   1.455  1.9034 -0.0574  0.7368
 3748TIP3   OH232802   5.772   0.505   0.781 -0.3334 -0.2792  0.0229
 3748TIP3    H132803   5.752   0.591   0.743 -0.2207 -0.5798 -0.7061
 3748TIP3    H232804   5.720   0.503   0.862 -1.2826 -0.0258 -0.5765
 3749TIP3   OH232805   3.652   7.181   7.753  0.1862  0.3181 -0.5029
 3749TIP3    H132806   3.626   7.252   7.812  2.3822  1.6050 -1.0480
 3749TIP3    H232807   3.644   7.102   7.807  1.6868  1.4211  1.4355
 3750TIP3   OH232808   3.692   0.037   0.480 -0.4417  0.5060  0.4192
 3750TIP3    H132809   3.644   0.081   0.550  0.2406  0.8180  0.6864
 3750TIP3    H232810   3.633   0.043   0.404 -1.2387  0.0430  0.9890
 3751TIP3   OH232811   5.480   1.734   2.637 -0.3337  0.0800  0.6887
 3751TIP3    H132812   5.531   1.805   2.598 -0.0500 -1.3752 -1.7128
 3751TIP3    H232813   5.544   1.664   2.650 -1.2473 -0.9660 -0.2777
 3752TIP3   OH232814   3.771   1.295   0.377  0.5657 -0.0082 -0.4582
 3752TIP3    H132815   3.757   1.259   0.290  1.6061  1.1937 -1.1534
 3752TIP3    H232816   3.831   1.234   0.419  2.8214  1.1681 -1.8480
 3753TIP3   OH232817   2.426   1.213   1.055  0.2706  0.3001  0.1293
 3753TIP3    H132818   2.427   1.207   1.151 -1.0511 -0.4191  0.1035
 3753TIP3    H232819   2.460   1.129   1.025  2.0176  1.0410 -0.0396
 3754TIP3   OH232820   1.083   1.720   1.848  0.8068 -0.5129  0.1086
 3754TIP3    H132821   1.023   1.786   1.812  0.2993 -0.1146  1.6490
 3754TIP3    H232822   1.147   1.770   1.897 -0.0522 -1.2063  1.9706
 3755TIP3   OH232823   2.740   0.871   1.260 -0.2161  1.1358 -0.1072
 3755TIP3    H132824   2.790   0.939   1.306  1.9888  0.5849 -1.6520
 3755TIP3    H232825   2.721   0.909   1.174 -0.0028  0.2559 -0.5491
 3756TIP3   OH232826   0.825   1.135   2.019 -0.3250 -0.0721  0.5812
 3756TIP3    H132827   0.841   1.043   2.038  0.7649 -0.1799 -0.7944
 3756TIP3    H232828   0.913   1.173   2.006 -0.8718  0.5326 -1.6334
 3757TIP3   OH232829   0.897   1.848   2.338  0.5457 -0.0334 -0.2106
 3757TIP3    H132830   0.959   1.785   2.374 -0.0575 -0.4044  0.1923
 3757TIP3    H232831   0.938   1.933   2.350  0.0641 -0.0950  1.9413
 3758TIP3   OH232832   1.470   0.091   0.056 -0.2958  0.5755 -0.4147
 3758TIP3    H132833   1.542   0.040   0.095 -0.0455 -0.3904 -2.0868
 3758TIP3    H232834   1.499   0.108  -0.033 -1.3563  1.7808 -0.5310
 3759TIP3   OH232835   2.139   1.227   7.240 -0.4128  0.3932  0.3995
 3759TIP3    H132836   2.117   1.288   7.169 -1.8747  0.7471  1.1231
 3759TIP3    H232837   2.097   1.145   7.214 -1.1231  0.5800  0.9379
 3760TIP3   OH232838   0.571   7.152   2.110  0.0768 -0.2170 -0.4725
 3760TIP3    H132839   0.567   7.081   2.174 -1.0665 -0.2305 -0.5550
 3760TIP3    H232840   0.550   7.231   2.160  0.6985 -0.0237 -0.5165
 3761TIP3   OH232841   3.002   3.595   0.340 -0.0659  0.4571 -0.0986
 3761TIP3    H132842   2.990   3.656   0.413  0.1717  0.8717 -0.4102
 3761TIP3    H232843   2.989   3.647   0.261  0.7122  0.2366 -0.3780
 3762TIP3   OH232844   7.128   6.919   8.177 -0.8697 -0.1751  0.3948
 3762TIP3    H132845   7.182   6.982   8.130 -2.3751  0.0897 -1.0593
 3762TIP3    H232846   7.147   6.934   8.270  1.8721 -0.4361 -0.1079
 3763TIP3   OH232847   0.149   6.524   1.651 -0.2348  0.2573 -0.2561
 3763TIP3    H132848   0.107   6.499   1.568 -1.8158 -0.5387  0.7441
 3763TIP3    H232849   0.130   6.617   1.660 -1.0707  0.0956 -0.2448
 3764TIP3   OH232850   0.882   0.389   1.870  0.0587 -0.2551 -0.2748
 3764TIP3    H132851   0.825   0.375   1.945  0.6218 -0.5947  0.0931
 3764TIP3    H232852   0.956   0.330   1.885 -0.1524 -0.8399 -1.4371
 3765TIP3   OH232853   5.562   0.254   0.741  0.5248  0.9206 -0.2508
 3765TIP3    H132854   5.630   0.280   0.679  1.6067 -0.6952  0.2101
 3765TIP3    H232855   5.608   0.196   0.803 -1.1600  0.2317  0.3704
 3766TIP3   OH232856   2.983   0.312   0.610 -0.2116 -0.3109  0.1607
 3766TIP3    H132857   3.071   0.302   0.574 -0.3400 -0.0951 -0.2173
 3766TIP3    H232858   2.954   0.223   0.628  0.7440 -0.2952  1.8967
 3767TIP3   OH232859   2.593   1.148   0.373 -0.4007  0.1901  0.1771
 3767TIP3    H132860   2.623   1.238   0.386  0.9389 -0.1702 -0.3503
 3767TIP3    H232861   2.664   1.094   0.407 -2.0849 -0.6821  2.4376
 3768TIP3   OH232862   6.565   1.616   1.019  0.4912  0.4720 -0.1784
 3768TIP3    H132863   6.546   1.686   0.957  0.1398  0.3711 -0.1848
 3768TIP3    H232864   6.600   1.661   1.096 -1.2523  0.8054  0.4482
 3769TIP3   OH232865   0.127   1.354   0.990  0.0871 -0.1195 -0.0017
 3769TIP3    H132866   0.180   1.307   0.926  0.9040  0.9290 -0.1010
 3769TIP3    H232867   0.126   1.445   0.959 -0.6371  0.1271  0.7300
 3770TIP3   OH232868   6.948   2.023   0.209  0.3775 -0.2459  0.6853
 3770TIP3    H132869   7.000   1.943   0.208 -0.9517 -1.1283  1.0887
 3770TIP3    H232870   6.857   1.993   0.218 -0.0928  1.3217  1.3708
 3771TIP3   OH232871   0.579   1.382   0.242  0.0649  0.2301 -0.0816
 3771TIP3    H132872   0.649   1.441   0.270  0.3813  0.1877 -0.7598
 3771TIP3    H232873   0.620   1.296   0.238 -0.9914 -0.5019  3.2322
 3772TIP3   OH232874   4.010   3.770   0.593 -0.2128 -0.3167 -0.2081
 3772TIP3    H132875   3.950   3.795   0.664  0.9193 -0.3095  0.7599
 3772TIP3    H232876   3.955   3.720   0.532 -1.1667 -0.4769  0.7587
 3773TIP3   OH232877   5.499   6.357   1.366  0.3314 -0.2483  0.2704
 3773TIP3    H132878   5.432   6.424   1.381  0.3887 -0.3899  1.2004
 3773TIP3    H232879   5.507   6.312   1.450  1.2448 -0.5494  0.0331
 3774TIP3   OH232880   2.060   0.113   2.342  0.2137 -0.2062 -0.0973
 3774TIP3    H132881   2.056   0.203   2.309 -0.9564 -0.2199  0.0147
 3774TIP3    H232882   1.971   0.080   2.334  0.3512 -0.9015  1.1561
 3775TIP3   OH232883   1.995   0.488   0.282  0.5623 -0.4224  0.4405
 3775TIP3    H132884   1.964   0.445   0.202  1.1303 -1.2563  0.6509
 3775TIP3    H232885   2.007   0.580   0.258  0.8683 -0.6969 -0.4774
 3776TIP3   OH232886   0.649   7.040   0.833 -0.2863  0.0344  0.0751
 3776TIP3    H132887   0.709   7.008   0.900 -0.1306  1.2788  0.5434
 3776TIP3    H232888   0.703   7.098   0.778 -1.4107  2.5679  1.5379
 3777TIP3   OH232889   1.953   1.946   6.823  0.6077 -0.0946  0.1691
 3777TIP3    H132890   1.968   1.932   6.916  0.6716  0.8578  0.3109
 3777TIP3    H232891   2.036   1.982   6.791 -0.1090  1.6692  0.1988
 3778TIP3   OH232892   2.374   1.528   2.072 -0.5747  0.3385  0.0532
 3778TIP3    H132893   2.369   1.439   2.108  0.7700  0.4447  0.5339
 3778TIP3    H232894   2.317   1.580   2.129 -0.1810  0.0803  0.6836
 3779TIP3   OH232895   2.513   6.314   1.864  0.3061  0.1223  0.0930
 3779TIP3    H132896   2.539   6.224   1.843  0.8933  0.4629 -0.6609
 3779TIP3    H232897   2.437   6.304   1.921  1.4621 -0.8879  1.4868
 3780TIP3   OH232898   0.098   7.056   6.992  0.3351 -0.3382  0.7472
 3780TIP3    H132899   0.025   7.114   6.969  1.2102  0.9289  1.1398
 3780TIP3    H232900   0.110   7.069   7.086  1.0959 -0.4979  0.6728
 3781TIP3   OH232901   1.908   4.119   0.634 -0.0508  0.3920 -0.0860
 3781TIP3    H132902   1.955   4.111   0.717  0.2860  1.1285 -0.1990
 3781TIP3    H232903   1.925   4.209   0.606 -1.0709  0.4866 -0.4078
 3782TIP3   OH232904   2.689   1.358   2.058  0.5450  0.0124  0.5396
 3782TIP3    H132905   2.737   1.439   2.041 -1.6621  1.1030 -0.6768
 3782TIP3    H232906   2.746   1.288   2.024  1.8095  1.1624  0.2663
 3783TIP3   OH232907   4.162   2.008   6.797  0.5079 -0.0240 -0.2223
 3783TIP3    H132908   4.098   2.000   6.726 -0.7120 -0.6677  0.9290
 3783TIP3    H232909   4.246   2.016   6.752 -0.2801 -0.0306 -1.7489
 3784TIP3   OH232910   0.748   2.947   0.504 -0.2302  0.2586  0.0016
 3784TIP3    H132911   0.844   2.939   0.509 -0.3441 -0.3980  1.6585
 3784TIP3    H232912   0.730   3.037   0.531 -0.0231  0.7186 -1.3655
 3785TIP3   OH232913   7.175   1.383   8.239 -0.0818 -0.8217  0.2031
 3785TIP3    H132914   7.227   1.442   8.294 -0.2921 -1.1339  0.7373
 3785TIP3    H232915   7.165   1.304   8.292 -1.2232 -0.7097  0.1694
 3786TIP3   OH232916   3.378   1.977   1.530 -0.8280 -0.2206  0.2339
 3786TIP3    H132917   3.458   2.005   1.485 -2.5540  0.4739 -2.4959
 3786TIP3    H232918   3.402   1.893   1.569  1.4611  0.3293  0.0886
 3787TIP3   OH232919   2.967   0.124   8.079 -0.0495 -0.3720 -0.3241
 3787TIP3    H132920   2.923   0.039   8.087  0.2475 -0.6123 -1.1817
 3787TIP3    H232921   3.040   0.107   8.019 -0.5782  0.7201 -1.3051
 3788TIP3   OH232922   2.278   1.775   7.783 -0.3127  0.2476 -0.3121
 3788TIP3    H132923   2.260   1.769   7.877  1.0955  1.0235  0.0221
 3788TIP3    H232924   2.313   1.689   7.759  0.8988  0.5668  0.2432
 3789TIP3   OH232925   3.907   1.504   0.036 -0.5706 -0.0853  0.1528
 3789TIP3    H132926   3.962   1.426   0.028  1.5118  1.4525 -0.8903
 3789TIP3    H232927   3.888   1.509   0.130  2.2784  0.1307  0.7602
 3790TIP3   OH232928   6.130   7.231   0.192 -0.1644 -0.1425 -0.1163
 3790TIP3    H132929   6.219   7.265   0.198 -0.3854  0.5213 -0.5706
 3790TIP3    H232930   6.136   7.142   0.228  0.2511  0.6428  1.7743
 3791TIP3   OH232931   0.765   1.563   1.049  0.0737 -0.6518  0.7291
 3791TIP3    H132932   0.827   1.619   1.002  0.9456 -0.2270  2.3344
 3791TIP3    H232933   0.772   1.592   1.140 -3.3240  0.1786  0.7873
 3792TIP3   OH232934   2.692   4.175   7.129  0.1311 -0.7310 -0.1642
 3792TIP3    H132935   2.615   4.227   7.150  2.3551  3.1187 -1.1477
 3792TIP3    H232936   2.755   4.195   7.198  0.8738 -2.5725 -0.2657
 3793TIP3   OH232937   6.115   1.273   7.016 -0.2865  0.1440  0.5095
 3793TIP3    H132938   6.098   1.228   6.933 -0.0975 -0.4377  0.7867
 3793TIP3    H232939   6.210   1.272   7.025 -0.1122  2.8120 -0.7063
 3794TIP3   OH232940   2.029   0.766   0.282 -0.0709 -0.2794 -0.3096
 3794TIP3    H132941   2.101   0.827   0.296 -0.7590 -0.1146  2.7178
 3794TIP3    H232942   1.985   0.799   0.203 -0.1300  2.8237  0.9747
 3795TIP3   OH232943   3.588   6.578   1.557  0.4455 -0.0659  0.2281
 3795TIP3    H132944   3.671   6.566   1.604  0.3472  0.7814  0.6309
 3795TIP3    H232945   3.603   6.652   1.499  0.8658 -1.7255 -1.8124
 3796TIP3   OH232946   0.530   1.921   1.250  0.0838  0.5183 -0.2240
 3796TIP3    H132947   0.553   1.926   1.343  1.5427 -1.0803 -0.4822
 3796TIP3    H232948   0.440   1.891   1.249  0.0051  0.7092  0.6714
 3797TIP3   OH232949   2.397   6.204   1.291 -0.2515 -0.0287  0.4803
 3797TIP3    H132950   2.408   6.117   1.330 -0.9590  0.0435  0.8358
 3797TIP3    H232951   2.327   6.193   1.228 -0.5258  0.3512  0.7186
 3798TIP3   OH232952   2.363   1.793   6.895  0.2820 -0.1986  0.2263
 3798TIP3    H132953   2.391   1.883   6.910  2.8490 -1.1758  1.6063
 3798TIP3    H232954   2.316   1.768   6.974  0.2411 -0.3346  0.1592
 3799TIP3   OH232955   6.924   3.976   1.763 -0.3778  0.1908  0.1082
 3799TIP3    H132956   6.867   4.008   1.693  0.2166 -0.3899 -0.6406
 3799TIP3    H232957   6.961   4.056   1.801  0.3437  0.4513 -1.1187
 3800TIP3   OH232958   3.562   4.406   6.815  0.1487 -0.6718  0.0697
 3800TIP3    H132959   3.549   4.497   6.789  1.8579 -0.5506 -0.4248
 3800TIP3    H232960   3.479   4.363   6.795 -0.1850  0.4675 -1.0534
 3801TIP3   OH232961   2.556   0.317   1.164 -0.4130  0.4937 -0.2221
 3801TIP3    H132962   2.577   0.234   1.122  0.4338  0.3664  0.4322
 3801TIP3    H232963   2.490   0.296   1.230  0.8352  0.0920  0.9131
 3802TIP3   OH232964   1.209   3.131   1.040  0.9863  0.4611  0.4988
 3802TIP3    H132965   1.160   3.211   1.056  0.6539  0.1221  1.1741
 3802TIP3    H232966   1.251   3.111   1.123 -0.4993 -1.1234  0.8996
 3803TIP3   OH232967   0.083   2.751   0.668 -0.0366 -0.2181 -0.3217
 3803TIP3    H132968   0.069   2.761   0.762  0.8000  0.7817 -0.3052
 3803TIP3    H232969   0.175   2.729   0.659  0.0288  0.3175 -0.9615
 3804TIP3   OH232970   0.513   7.026   1.848 -0.0119  0.6071 -0.3973
 3804TIP3    H132971   0.593   6.980   1.822  0.3749  0.5253  0.8617
 3804TIP3    H232972   0.536   7.065   1.933 -0.2629  3.2674 -1.5252
 3805TIP3   OH232973   0.738   7.293   1.495 -0.1281 -0.3899  0.2568
 3805TIP3    H132974   0.648   7.262   1.489 -0.1851 -0.1158 -0.3414
 3805TIP3    H232975   0.745   7.329   1.584 -1.1735  1.3111 -0.3202
 3806TIP3   OH232976   1.472   0.842   1.865 -0.4557  0.0270 -0.0205
 3806TIP3    H132977   1.539   0.777   1.889 -1.6613 -1.3146 -0.2285
 3806TIP3    H232978   1.484   0.912   1.930 -0.3802 -1.2770  1.4225
 3807TIP3   OH232979   2.827   1.035   0.506  0.8576 -0.2290  0.4760
 3807TIP3    H132980   2.894   1.002   0.447  1.3991 -0.7415  1.3631
 3807TIP3    H232981   2.875   1.087   0.570  0.3985 -0.5229  1.0680
 3808TIP3   OH232982   0.395   5.993   7.298  0.0486 -0.2496  0.2200
 3808TIP3    H132983   0.363   5.936   7.368 -3.1345 -0.6298 -1.4848
 3808TIP3    H232984   0.361   6.079   7.320 -0.5753 -0.2811 -0.5983
 3809TIP3   OH232985   6.542   2.904   6.569 -0.1418 -0.0104  0.1258
 3809TIP3    H132986   6.606   2.862   6.626  0.5112 -1.3542 -1.5595
 3809TIP3    H232987   6.591   2.975   6.526 -1.3070  2.7792  3.1687
 3810TIP3   OH232988   1.542   5.532   1.639  0.0175  0.1211  0.2502
 3810TIP3    H132989   1.585   5.617   1.631 -0.6614  0.5322  0.9396
 3810TIP3    H232990   1.476   5.544   1.707  0.5137 -1.2093  0.9870
 3811TIP3   OH232991   5.049   0.355   7.080  0.3261 -0.4169  0.4441
 3811TIP3    H132992   5.126   0.358   7.023  0.3680 -0.8023  0.4817
 3811TIP3    H232993   4.992   0.425   7.047  0.3081 -0.6994 -0.1250
 3812TIP3   OH232994   2.026   1.087   0.979  0.0708 -0.3916 -0.1995
 3812TIP3    H132995   2.092   1.126   0.921 -0.2223 -1.7847 -1.4897
 3812TIP3    H232996   1.958   1.154   0.985  1.5402  1.0427  1.1044
 3813TIP3   OH232997   5.789   7.191   8.145  0.0826 -0.4950 -0.1652
 3813TIP3    H132998   5.744   7.134   8.207 -0.9836 -0.2549 -0.7029
 3813TIP3    H232999   5.739   7.273   8.147  2.0834  0.7323  1.2196
 3814TIP3   OH233000   3.308   1.844   0.258  0.5750 -0.0917 -0.4194
 3814TIP3    H133001   3.342   1.814   0.174 -0.5684 -3.0881  0.0956
 3814TIP3    H233002   3.342   1.780   0.321 -3.9834 -1.8672  0.4354
 3815TIP3   OH233003   1.633   7.204   1.099 -0.1207  0.0049  0.4952
 3815TIP3    H133004   1.599   7.253   1.173 -1.0829  1.0939 -0.6487
 3815TIP3    H233005   1.580   7.124   1.096 -1.9271  1.2226 -0.6663
 3816TIP3   OH233006   0.760   3.234   7.736 -0.7813  0.4856  0.7549
 3816TIP3    H133007   0.677   3.283   7.740 -1.1486  0.1599 -1.6661
 3816TIP3    H233008   0.827   3.302   7.729 -0.9220  0.7287  1.6907
 3817TIP3   OH233009   1.308   6.770   8.375  0.2021  0.2645 -0.0638
 3817TIP3    H133010   1.299   6.836   8.306  2.7369  0.1611 -0.5601
 3817TIP3    H233011   1.255   6.696   8.345 -1.2740  1.4262 -0.3351
 3818TIP3   OH233012   2.014   5.705   8.500  0.2806 -0.9242 -0.4451
 3818TIP3    H133013   2.037   5.798   8.509 -0.9931 -0.6966  0.6530
 3818TIP3    H233014   1.953   5.703   8.426  1.6812 -1.1538 -1.6206
 3819TIP3   OH233015   1.207   1.617   0.508  0.1238 -0.4973  0.3866
 3819TIP3    H133016   1.133   1.677   0.499 -0.1966 -0.8557  0.6207
 3819TIP3    H233017   1.284   1.673   0.514 -0.3111 -0.0804  2.0395
 3820TIP3   OH233018   1.001   0.594   6.550  0.3757  0.1229  0.3210
 3820TIP3    H133019   1.024   0.582   6.642  1.8866  1.4197  0.1456
 3820TIP3    H233020   1.086   0.603   6.506 -0.3027 -1.3708 -1.3227
 3821TIP3   OH233021   2.115   4.906   7.525 -0.5643 -0.4431 -0.4599
 3821TIP3    H133022   2.049   4.941   7.584 -0.0591 -0.5068  0.1460
 3821TIP3    H233023   2.140   4.822   7.563  0.4250 -0.0611 -0.2558
 3822TIP3   OH233024   2.394   1.229   0.157  0.0786  0.1743 -0.2011
 3822TIP3    H133025   2.436   1.315   0.156  0.1862  0.1193 -0.6593
 3822TIP3    H233026   2.398   1.199   0.066 -0.1091 -0.2425 -0.0760
 3823TIP3   OH233027   0.077   7.016   2.294  0.4135 -0.6198 -1.1399
 3823TIP3    H133028   0.036   6.938   2.331  0.9816 -0.6422 -0.5381
 3823TIP3    H233029   0.003   7.073   2.269 -0.0239  0.3116  1.9995
 3824TIP3   OH233030   6.935   0.861   0.218 -0.4466  0.3233  0.1714
 3824TIP3    H133031   7.000   0.898   0.278  0.4942  0.9973 -1.2124
 3824TIP3    H233032   6.901   0.784   0.263  1.9389 -0.5177  0.5957
 3825TIP3   OH233033   7.085   2.708   6.601  0.0048 -0.0900 -0.5014
 3825TIP3    H133034   7.021   2.776   6.619 -0.7235 -0.6921 -0.8080
 3825TIP3    H233035   7.084   2.698   6.506  1.4810  0.7863 -0.6369
 3826TIP3   OH233036   1.603   2.103   1.156 -0.3452  0.4370 -0.0882
 3826TIP3    H133037   1.614   2.170   1.088  0.3158 -0.4864 -0.8954
 3826TIP3    H233038   1.656   2.135   1.229  0.4040  0.5276 -0.6700
 3827TIP3   OH233039   1.176   6.717   6.778 -0.4488  0.2315  0.2514
 3827TIP3    H133040   1.191   6.760   6.863 -0.8748 -1.0092  0.9659
 3827TIP3    H233041   1.216   6.776   6.714 -2.9067  2.7914  0.9628
 3828TIP3   OH233042   1.419   5.154   8.481 -0.3517  0.0221 -0.1393
 3828TIP3    H133043   1.436   5.241   8.516 -0.1356  0.1206 -0.4860
 3828TIP3    H233044   1.333   5.131   8.515 -0.1787  0.1433  0.3994
 3829TIP3   OH233045   1.578   6.864   0.404  0.8906 -0.3439 -0.3730
 3829TIP3    H133046   1.494   6.908   0.389  0.6375 -0.9235 -0.6804
 3829TIP3    H233047   1.580   6.848   0.499  0.9074  0.1643 -0.2839
 3830TIP3   OH233048   0.351   1.572   0.212 -0.2506 -0.2402  0.5481
 3830TIP3    H133049   0.415   1.506   0.189 -0.8379 -0.0052 -1.8460
 3830TIP3    H233050   0.266   1.529   0.203 -0.5468  0.2215  1.0493
 3831TIP3   OH233051   1.210   2.240   6.554  0.8262 -0.3444  0.0937
 3831TIP3    H133052   1.173   2.324   6.581 -1.2259 -1.0243 -0.5148
 3831TIP3    H233053   1.172   2.176   6.614  2.8330 -0.7931  0.9328
 3832TIP3   OH233054   1.193   1.747   8.462 -0.1103 -0.2811 -0.2470
 3832TIP3    H133055   1.261   1.732   8.396 -0.1708  1.1325 -0.6460
 3832TIP3    H233056   1.207   1.837   8.490 -0.8629 -0.4785  0.7883
 3833TIP3   OH233057   7.297   4.378   1.667  0.8140  0.2997 -0.5681
 3833TIP3    H133058   7.227   4.313   1.661 -0.1388  1.0347  1.6687
 3833TIP3    H233059   7.367   4.333   1.715 -0.0792  1.0668  1.5053
 3834TIP3   OH233060   0.927   1.299   0.631 -0.2790  0.4798 -0.3676
 3834TIP3    H133061   1.012   1.280   0.590  0.4811  0.7581  1.0390
 3834TIP3    H233062   0.873   1.222   0.610  1.2575 -1.0577  1.1959
 3835TIP3   OH233063   6.209   0.086   0.826 -0.0958 -0.6161 -0.2386
 3835TIP3    H133064   6.136   0.091   0.764  0.9299  0.3529 -1.3946
 3835TIP3    H233065   6.187   0.012   0.883 -0.8805 -1.7887 -2.0044
 3836TIP3   OH233066   1.556   3.184   1.758 -0.1479  0.5682 -0.1096
 3836TIP3    H133067   1.603   3.222   1.833 -0.1756  0.3169  0.0377
 3836TIP3    H233068   1.466   3.213   1.769  0.1195  1.6678 -0.8035
 3837TIP3   OH233069   3.001   0.582   7.512  0.3640  0.7071  0.0892
 3837TIP3    H133070   3.081   0.530   7.513  1.1105  1.8000 -0.6541
 3837TIP3    H233071   3.029   0.667   7.477 -1.3990  0.6350 -1.5625
 3838TIP3   OH233072   6.948   1.814   1.304  0.6950  0.2519  0.4097
 3838TIP3    H133073   6.993   1.801   1.387 -0.1706  0.9207  0.9882
 3838TIP3    H233074   7.015   1.852   1.246  2.3872 -3.6930 -0.3952
 3839TIP3   OH233075   2.166   2.688   8.416  0.2980  0.0683 -0.2874
 3839TIP3    H133076   2.194   2.617   8.473  0.2234  0.7135  0.5688
 3839TIP3    H233077   2.082   2.658   8.381 -0.0009 -0.0359  0.5037
 3840TIP3   OH233078   5.271   1.799   1.823 -0.0510  0.0895  0.1097
 3840TIP3    H133079   5.178   1.778   1.824 -0.0662  0.1844  1.0261
 3840TIP3    H233080   5.286   1.836   1.736 -0.9662  0.5153  0.1249
 3841TIP3   OH233081   0.658   0.758   2.325  0.3765 -0.1112  0.0585
 3841TIP3    H133082   0.660   0.663   2.329  3.2649 -0.0749  0.4943
 3841TIP3    H233083   0.566   0.781   2.339 -0.9062 -2.9357 -3.0679
 3842TIP3   OH233084   2.705   0.966   8.146 -0.2002 -0.4602 -0.6202
 3842TIP3    H133085   2.748   0.912   8.080  0.0268  0.2643 -1.0683
 3842TIP3    H233086   2.670   0.903   8.210  0.6159 -1.1053 -0.8015
 3843TIP3   OH233087   6.130   0.478   0.783  0.2467  0.1408 -0.1484
 3843TIP3    H133088   6.046   0.522   0.799 -0.6773 -1.4139 -0.5552
 3843TIP3    H233089   6.114   0.387   0.810  1.4404 -0.4395 -1.3354
 3844TIP3   OH233090   0.988   3.199   0.615  0.2980  0.5931 -0.1774
 3844TIP3    H133091   0.911   3.217   0.669 -0.1563 -0.5177 -0.4384
 3844TIP3    H233092   1.008   3.107   0.631  1.5370  0.8573 -0.1634
 3845TIP3   OH233093   5.726   0.700   7.895  0.2656  0.2385 -0.5986
 3845TIP3    H133094   5.690   0.702   7.983  0.1840 -2.1924 -0.5581
 3845TIP3    H233095   5.821   0.703   7.908  0.2266  1.5766 -0.5184
 3846TIP3   OH233096   6.906   3.759   7.019  0.6257 -0.2655  0.0793
 3846TIP3    H133097   6.958   3.830   7.056  0.5218 -1.5079  2.7293
 3846TIP3    H233098   6.815   3.790   7.026  0.6628 -0.1686  0.1326
 3847TIP3   OH233099   7.072   6.364   1.679 -0.0046 -0.0131 -0.5342
 3847TIP3    H133100   7.103   6.311   1.605  0.4868  1.0714 -1.1322
 3847TIP3    H233101   6.991   6.322   1.707 -0.5704 -0.0303 -2.1587
 3848TIP3   OH233102   1.611   5.966   8.081  0.4442 -0.2215 -0.3067
 3848TIP3    H133103   1.604   5.987   7.988 -0.9301  0.0806 -0.1418
 3848TIP3    H233104   1.521   5.967   8.113  0.9620  0.3433  1.1766
 3849TIP3   OH233105   6.143   7.234   1.706 -0.4215  0.2315 -0.0130
 3849TIP3    H133106   6.203   7.307   1.693  1.6466 -1.2922  0.6523
 3849TIP3    H233107   6.078   7.268   1.767 -1.7052  2.6823 -2.6394
 3850TIP3   OH233108   1.132   5.997   2.057  0.4300 -0.0069  0.3659
 3850TIP3    H133109   1.116   6.017   2.149  1.7446 -1.2924  0.8980
 3850TIP3    H233110   1.084   6.064   2.009  0.0344  0.8979  1.9903
 3851TIP3   OH233111   3.954   6.354   0.054 -0.6064 -0.1394  0.2906
 3851TIP3    H133112   3.919   6.425   0.108  0.2207  0.6848 -0.2281
 3851TIP3    H233113   3.880   6.328  -0.001 -0.0457  2.7363 -1.9950
 3852TIP3   OH233114   1.417   1.423   0.178  0.0619  0.2544  0.0993
 3852TIP3    H133115   1.416   1.400   0.271  2.0700  0.9447  0.3014
 3852TIP3    H233116   1.439   1.341   0.133 -2.5626 -0.4859  0.0732
 3853TIP3   OH233117   3.876   4.328   1.604  0.6734 -0.2114  0.3442
 3853TIP3    H133118   3.848   4.260   1.543  1.3265 -0.2580  0.0914
 3853TIP3    H233119   3.968   4.309   1.620  0.3466 -0.6054  1.8671
 3854TIP3   OH233120   6.740   6.351   0.660  0.1195 -0.7513  0.1122
 3854TIP3    H133121   6.749   6.301   0.579 -0.1532 -1.0427  0.2631
 3854TIP3    H233122   6.830   6.378   0.682 -0.0836  1.6205 -1.7378
 3855TIP3   OH233123   2.414   0.565   1.682 -0.0298 -0.2105 -0.2254
 3855TIP3    H133124   2.410   0.585   1.775  0.3224 -0.1678 -0.2186
 3855TIP3    H233125   2.467   0.636   1.644  1.1364 -1.0511 -0.2182
 3856TIP3   OH233126   1.020   1.296   1.360  0.2422 -0.4975  0.0384
 3856TIP3    H133127   1.053   1.380   1.392  1.3180 -2.0290  3.1253
 3856TIP3    H233128   0.925   1.307   1.357  0.4964  1.5609 -1.8899
 3857TIP3   OH233129   3.931   5.395   2.227  0.1147  0.2047  0.6632
 3857TIP3    H133130   3.965   5.483   2.208  0.3566 -0.1290 -0.4897
 3857TIP3    H233131   3.872   5.408   2.301  0.1125  1.3560  0.4773
 3858TIP3   OH233132   0.780   7.092   8.307 -0.3428  0.0640  0.2507
 3858TIP3    H133133   0.716   7.155   8.340  0.0133 -1.1295  3.4234
 3858TIP3    H233134   0.857   7.104   8.362 -0.1106 -2.7833  0.6501
 3859TIP3   OH233135   1.624   1.727   2.798  0.0998 -0.0050  0.1372
 3859TIP3    H133136   1.714   1.695   2.790 -0.5055 -1.5237 -0.9692
 3859TIP3    H233137   1.630   1.821   2.782  1.7766  0.2690  2.2111
 3860TIP3   OH233138   3.032   2.325   1.516 -0.0823  0.4204  0.0251
 3860TIP3    H133139   3.034   2.402   1.574 -1.0446  0.6168 -0.1863
 3860TIP3    H233140   3.108   2.336   1.459  0.6477  0.4341  0.9805
 3861TIP3   OH233141   1.286   0.155   0.412  0.5160  0.1658 -0.0211
 3861TIP3    H133142   1.265   0.247   0.432  1.3040 -0.0333  1.9065
 3861TIP3    H233143   1.204   0.108   0.427 -0.0625  0.6159 -1.6381
 3862TIP3   OH233144   0.128   3.563   1.995  0.4320 -0.2075 -0.0507
 3862TIP3    H133145   0.171   3.634   2.042  3.1333 -0.6438 -1.7762
 3862TIP3    H233146   0.080   3.606   1.924  1.3173 -0.0281 -0.5432
 3863TIP3   OH233147   1.616   2.021   2.843  0.2799  0.2352  0.3166
 3863TIP3    H133148   1.561   2.036   2.766  0.3388 -0.3077  0.1610
 3863TIP3    H233149   1.589   2.087   2.906 -0.3764  0.1304  0.1468
 3864TIP3   OH233150   3.774   4.836   1.244 -0.0275  0.2805 -0.0461
 3864TIP3    H133151   3.773   4.920   1.291  0.2318 -0.7320  1.8192
 3864TIP3    H233152   3.769   4.770   1.313 -0.1729 -1.2487 -1.4958
 3865TIP3   OH233153   0.425   5.362   7.406  0.2382  0.6652 -0.0890
 3865TIP3    H133154   0.435   5.298   7.477 -0.0228 -0.0036 -0.6467
 3865TIP3    H233155   0.336   5.395   7.417 -0.5081 -0.8813 -1.2721
 3866TIP3   OH233156   0.647   1.966   0.760  0.0154 -0.3125  0.7817
 3866TIP3    H133157   0.714   1.902   0.738 -0.2420 -0.0334 -0.8885
 3866TIP3    H233158   0.696   2.045   0.782  0.2510 -0.0054 -0.7764
 3867TIP3   OH233159   7.020   1.631   8.016  0.5488 -0.6627  0.1030
 3867TIP3    H133160   6.941   1.576   8.016  1.1283 -1.5376 -2.2999
 3867TIP3    H233161   7.009   1.688   7.940  0.9882  1.1095  1.3282
 3868TIP3   OH233162   2.301   2.237   2.724 -0.4870  0.5284 -0.1495
 3868TIP3    H133163   2.259   2.169   2.776  0.5505 -0.8975 -1.1406
 3868TIP3    H233164   2.231   2.276   2.672 -0.6743 -1.5709 -1.5184
 3869TIP3   OH233165   2.071   0.840   2.191  0.3399  0.3262 -0.3149
 3869TIP3    H133166   2.120   0.872   2.115 -0.8271 -1.0831 -1.6843
 3869TIP3    H233167   2.083   0.745   2.189 -0.1437  0.2273  0.9629
 3870TIP3   OH233168   1.827   0.129   6.116  0.6395 -0.7385  0.7098
 3870TIP3    H133169   1.754   0.107   6.174 -0.4842 -2.5459 -1.3176
 3870TIP3    H233170   1.896   0.161   6.174 -1.6967  0.8796  2.6890
 3871TIP3   OH233171   0.124   3.016   0.499 -0.4780  0.0996 -0.1947
 3871TIP3    H133172   0.116   2.923   0.477  0.4949  0.2920 -1.4534
 3871TIP3    H233173   0.098   3.021   0.591  0.8480 -1.6321  0.3036
 3872TIP3   OH233174   3.641   4.458   1.395  0.8636  0.1201 -0.0742
 3872TIP3    H133175   3.723   4.416   1.372 -0.7396 -2.9965 -0.4079
 3872TIP3    H233176   3.621   4.424   1.483 -0.2318  0.5781 -0.1363
 3873TIP3   OH233177   2.580   1.354   2.328  0.6559 -1.2021 -0.3665
 3873TIP3    H133178   2.624   1.384   2.249  0.9221 -0.6422 -0.0145
 3873TIP3    H233179   2.645   1.366   2.398  0.0359 -0.5697  0.1219
 3874TIP3   OH233180   6.311   4.116   1.308  0.5211 -0.1195  0.2964
 3874TIP3    H133181   6.396   4.080   1.286  1.4178  0.8914  2.0036
 3874TIP3    H233182   6.317   4.209   1.285  0.0334  0.0545  0.8524
 3875TIP3   OH233183   2.176   0.210   1.593 -0.3112  0.4185  0.2919
 3875TIP3    H133184   2.093   0.238   1.555 -0.2694 -1.1569 -1.0289
 3875TIP3    H233185   2.158   0.125   1.631  0.4091  0.6088  1.0698
 3876TIP3   OH233186   0.442   2.534   6.963 -0.2995 -0.4165  0.0483
 3876TIP3    H133187   0.442   2.511   6.870  1.1909  2.1865 -0.6466
 3876TIP3    H233188   0.365   2.590   6.973  0.6990  1.0241 -0.1191
 3877TIP3   OH233189   0.215   6.674   7.712  0.0459 -0.8063 -0.6026
 3877TIP3    H133190   0.207   6.626   7.794  0.0712 -0.5265 -0.4338
 3877TIP3    H233191   0.289   6.634   7.667 -1.4793 -2.5863 -1.5987
 3878TIP3   OH233192   2.414   1.763   1.021  0.7639 -0.7271  0.1510
 3878TIP3    H133193   2.420   1.673   1.053  2.7975 -0.3978  0.7906
 3878TIP3    H233194   2.391   1.814   1.098 -0.6029 -0.7077 -0.2570
 3879TIP3   OH233195   1.310   7.176   0.131 -0.0530 -0.4618 -0.1984
 3879TIP3    H133196   1.312   7.271   0.120 -1.3949 -0.6750 -2.6518
 3879TIP3    H233197   1.400   7.148   0.117  0.4998  0.5027  1.2932
 3880TIP3   OH233198   2.421   3.041   6.761  0.3642  0.0800  0.1276
 3880TIP3    H133199   2.414   3.068   6.852  1.9025 -0.0416  0.2869
 3880TIP3    H233200   2.343   3.079   6.719  1.0513  2.4653  0.9219
 3881TIP3   OH233201   0.556   5.643   0.946  0.3031  0.5134  0.6693
 3881TIP3    H133202   0.523   5.641   0.856  1.7219 -1.4552  0.1789
 3881TIP3    H233203   0.546   5.735   0.972  0.0355  1.1481 -1.5491
 3882TIP3   OH233204   1.761   4.475   1.768 -0.3424 -0.3341 -0.1100
 3882TIP3    H133205   1.730   4.466   1.858 -1.2075  1.2835 -0.2254
 3882TIP3    H233206   1.682   4.496   1.718  0.3315 -0.0046 -1.0460
 3883TIP3   OH233207   6.217   5.580   8.475 -0.5160  0.0414  0.6119
 3883TIP3    H133208   6.138   5.633   8.484 -0.7590 -0.4368  1.2606
 3883TIP3    H233209   6.192   5.509   8.415 -0.8104 -0.5623  1.4445
 3884TIP3   OH233210   1.002   0.036   2.139 -0.1416 -0.9329 -0.0072
 3884TIP3    H133211   0.944   0.064   2.211  0.1823 -0.5932  0.1203
 3884TIP3    H233212   0.944  -0.010   2.079 -0.1306 -2.6923  1.2811
 3885TIP3   OH233213   0.873   0.040   0.190  1.1056  0.2261  0.0871
 3885TIP3    H133214   0.861   0.119   0.137  0.2099  0.7974  1.1303
 3885TIP3    H233215   0.909   0.071   0.272 -1.4021 -0.1588  1.3732
 3886TIP3   OH233216   1.821   1.011   2.015  0.3300 -0.0196  0.2028
 3886TIP3    H133217   1.815   1.009   2.111 -0.0252  0.3558  0.1906
 3886TIP3    H233218   1.765   1.084   1.990  0.6178  0.0359 -0.2766
 3887TIP3   OH233219   2.376   1.147   1.326  0.6116  0.0219  0.6077
 3887TIP3    H133220   2.337   1.189   1.403  0.5327 -0.8183  1.0354
 3887TIP3    H233221   2.311   1.081   1.299 -0.1845  1.5222 -1.2786
 3888TIP3   OH233222   2.142   3.279   0.067 -0.3345 -0.1528 -0.5010
 3888TIP3    H133223   2.081   3.295   0.139 -0.6617 -0.7336 -0.6489
 3888TIP3    H233224   2.114   3.341  -0.001 -1.1733 -0.8620 -0.8145
 3889TIP3   OH233225   1.245   2.136   1.699  0.0613  0.2157 -0.3708
 3889TIP3    H133226   1.216   2.047   1.679 -1.2618  0.2944  1.1387
 3889TIP3    H233227   1.246   2.180   1.613  2.0665 -1.5924 -1.3238
 3890TIP3   OH233228   0.236   2.322   7.997 -0.2624  0.8876 -0.3606
 3890TIP3    H133229   0.178   2.398   8.000 -3.4033 -1.3125 -2.3329
 3890TIP3    H233230   0.187   2.252   8.040  0.6565 -1.1609 -2.5022
 3891TIP3   OH233231   1.098   1.890   8.028  0.2023 -0.0705 -0.5426
 3891TIP3    H133232   1.043   1.876   8.105  1.4413 -3.9669 -0.3072
 3891TIP3    H233233   1.170   1.945   8.060  0.2649 -0.9631  0.8879
 3892TIP3   OH233234   1.636   1.410   0.494 -0.4299  0.0121 -0.0470
 3892TIP3    H133235   1.691   1.348   0.446 -0.6382 -0.8837  0.8387
 3892TIP3    H233236   1.690   1.438   0.568  0.3749  2.3890 -1.4687
 3893TIP3   OH233237   1.167   2.925   1.921  0.3347 -0.8534 -0.4863
 3893TIP3    H133238   1.195   2.960   2.006  0.9110 -1.7214 -0.3069
 3893TIP3    H233239   1.229   2.854   1.904 -0.0189 -0.9279 -1.4569
 3894TIP3   OH233240   1.040   5.400   0.212  0.1755 -0.1764 -0.6630
 3894TIP3    H133241   1.023   5.312   0.179  1.0157  0.3041 -2.4334
 3894TIP3    H233242   1.112   5.433   0.158 -0.3347  1.7107 -0.2412
 3895TIP3   OH233243   7.267   4.153   1.168 -0.1973 -0.7172 -0.1409
 3895TIP3    H133244   7.306   4.182   1.251 -2.6419  3.0848 -0.2061
 3895TIP3    H233245   7.340   4.114   1.120  2.5028  1.9498  1.5916
 3896TIP3   OH233246   1.231   0.446   0.501 -0.0326 -0.0916  0.6900
 3896TIP3    H133247   1.165   0.488   0.445 -3.2373 -4.7277  0.7110
 3896TIP3    H233248   1.227   0.494   0.583 -0.4729  2.2347 -0.6530
 3897TIP3   OH233249   5.308   0.276   8.041 -0.0928 -0.3281 -0.3023
 3897TIP3    H133250   5.236   0.321   8.086  1.0592  1.3381 -0.0546
 3897TIP3    H233251   5.285   0.281   7.949 -0.9225 -0.9376 -0.1318
 3898TIP3   OH233252   1.332   0.270   7.881  0.3445 -0.1937 -0.3020
 3898TIP3    H133253   1.236   0.266   7.871  0.1598  0.1263  1.2438
 3898TIP3    H233254   1.351   0.208   7.951  1.1379  0.6833  0.2576
 3899TIP3   OH233255   0.854   1.736   7.613  0.0360  0.5915  0.1778
 3899TIP3    H133256   0.877   1.780   7.695 -0.7663  0.0269  0.7179
 3899TIP3    H233257   0.800   1.662   7.640 -0.9494  0.8867 -0.9296
 3900TIP3   OH233258   1.639   6.869   0.981  1.2031 -0.4123 -0.4097
 3900TIP3    H133259   1.549   6.862   1.014  0.5236  2.8689 -1.3627
 3900TIP3    H233260   1.654   6.787   0.934 -1.4451 -0.8702 -0.5285
 3901TIP3   OH233261   2.095   1.342   0.146 -0.0547 -0.1580 -0.1058
 3901TIP3    H133262   2.154   1.268   0.163  1.2489  0.8607 -0.1391
 3901TIP3    H233263   2.016   1.320   0.196  0.8776 -0.8600  1.1057
 3902TIP3   OH233264   0.206   4.889   6.521 -0.8752  0.3550 -0.2492
 3902TIP3    H133265   0.261   4.931   6.454 -0.5679 -0.0936 -0.2796
 3902TIP3    H233266   0.119   4.925   6.506 -0.6514  0.8475 -0.3937
 3903TIP3   OH233267   3.681   0.222   1.684 -0.3401  0.2593  0.6025
 3903TIP3    H133268   3.769   0.185   1.690 -0.6877 -0.8723 -1.0358
 3903TIP3    H233269   3.626   0.149   1.658 -1.8094  0.9317  1.7427
 3904TIP3   OH233270   0.864   6.848   1.584 -0.2821 -0.4707  0.0992
 3904TIP3    H133271   0.870   6.938   1.554  0.9375 -0.5109  0.1778
 3904TIP3    H233272   0.944   6.806   1.550 -1.8023 -2.0536 -1.7018
 3905TIP3   OH233273   0.905   2.761   7.773 -0.2659 -0.3481  0.2487
 3905TIP3    H133274   0.902   2.670   7.804 -0.2051 -0.4541 -0.0521
 3905TIP3    H233275   0.826   2.771   7.721 -0.8723  0.1313  1.2548
 3906TIP3   OH233276   0.151   2.539   7.716  0.4402  0.3872  0.1201
 3906TIP3    H133277   0.133   2.535   7.622  2.8474  1.3252 -0.4127
 3906TIP3    H233278   0.246   2.540   7.722  0.3314 -0.5225  2.6262
 3907TIP3   OH233279   0.493   1.387   1.530  0.3319  0.1273  0.0567
 3907TIP3    H133280   0.453   1.425   1.609 -0.6600 -2.5677  0.9169
 3907TIP3    H233281   0.419   1.355   1.479  1.2191 -3.2829  0.7914
 3908TIP3   OH233282   3.845   4.546   7.703  0.0968 -0.2590  0.8084
 3908TIP3    H133283   3.911   4.598   7.657  0.4856 -0.5038  1.0816
 3908TIP3    H233284   3.800   4.498   7.634  1.4929 -1.5680  0.7726
 3909TIP3   OH233285   3.100   7.002   1.109 -0.4989 -0.5467 -0.1528
 3909TIP3    H133286   3.091   6.913   1.075  1.5148  0.2903 -3.0423
 3909TIP3    H233287   3.150   6.992   1.190 -0.3811 -2.0521 -0.4045
 3910TIP3   OH233288   1.670   5.317   1.879 -0.0885  0.3583 -0.3332
 3910TIP3    H133289   1.695   5.407   1.900  0.6999 -0.1076  0.7562
 3910TIP3    H233290   1.684   5.269   1.960 -2.6283 -0.3331 -0.2401
 3911TIP3   OH233291   3.008   0.154   7.183 -0.6491  0.7518 -0.6293
 3911TIP3    H133292   3.059   0.224   7.224  2.5212 -2.6101  1.4741
 3911TIP3    H233293   3.071   0.105   7.131 -2.4562 -1.5153 -0.7688
 3912TIP3   OH233294   1.189   3.681   1.779 -0.1439  0.0349 -0.0330
 3912TIP3    H133295   1.112   3.624   1.785  2.8375 -3.9741  4.0473
 3912TIP3    H233296   1.207   3.705   1.870  1.7821  3.2919 -1.2222
 3913TIP3   OH233297   2.263   0.986   2.371  0.0167 -0.0101 -0.0375
 3913TIP3    H133298   2.246   1.077   2.397 -0.0123 -0.7881  2.7899
 3913TIP3    H233299   2.188   0.962   2.316 -0.2601  1.4870 -0.3309
 3914TIP3   OH233300   0.613   0.489   2.292 -0.2587 -0.0275  0.0610
 3914TIP3    H133301   0.693   0.441   2.274 -0.0017  0.3410  0.1970
 3914TIP3    H233302   0.542   0.426   2.278 -0.1306  0.4362 -2.9155
 3915TIP3   OH233303   3.403   2.636   1.618  0.2483  0.6167 -0.2327
 3915TIP3    H133304   3.407   2.564   1.680 -0.7519 -0.2612 -1.1585
 3915TIP3    H233305   3.357   2.706   1.664 -2.3318 -0.7604 -0.6549
 3916TIP3   OH233306   2.776   1.833   2.570 -0.3092  1.0016  0.2627
 3916TIP3    H133307   2.779   1.897   2.498  0.5991  0.6752  0.0057
 3916TIP3    H233308   2.701   1.778   2.549 -2.3315  3.1894  1.5328
 3917TIP3   OH233309   4.288   0.938   7.738  0.0472 -0.3906  0.0682
 3917TIP3    H133310   4.359   0.954   7.675  0.6076 -2.6431  0.1004
 3917TIP3    H233311   4.240   0.863   7.702 -1.3406  0.0836  0.8908
 3918TIP3   OH233312   0.833   1.110   8.362 -0.7062  0.1044  0.9035
 3918TIP3    H133313   0.885   1.033   8.384 -1.0293  0.1287  1.7807
 3918TIP3    H233314   0.897   1.177   8.340 -0.4666 -0.8645 -1.4073
 3919TIP3   OH233315   3.641   1.701   0.266  0.0898 -0.1515  0.6139
 3919TIP3    H133316   3.732   1.675   0.283  0.2504 -0.0254 -0.0422
 3919TIP3    H233317   3.634   1.789   0.302  0.1235 -0.2916  0.9767
 3920TIP3   OH233318   4.471   5.220   0.159 -0.0803 -0.1234 -0.4801
 3920TIP3    H133319   4.458   5.311   0.131  1.3519  0.2878  0.1253
 3920TIP3    H233320   4.385   5.192   0.190 -0.6199  0.9149 -1.0019
 3921TIP3   OH233321   5.567   2.219   2.465  0.1646  0.5002  0.1977
 3921TIP3    H133322   5.478   2.226   2.499  0.2424  0.4836  0.4058
 3921TIP3    H233323   5.573   2.289   2.400  0.5013  1.5142  1.2971
 3922TIP3   OH233324   4.280   4.769   1.643 -0.4326  0.4592  0.2177
 3922TIP3    H133325   4.250   4.851   1.681  0.1276  0.7568  0.0288
 3922TIP3    H233326   4.369   4.759   1.675 -1.1388 -1.0494  1.7882
 3923TIP3   OH233327   3.060   2.652   7.334  0.1331 -0.4279  0.4354
 3923TIP3    H133328   2.995   2.635   7.266  2.3929 -0.0099 -1.9027
 3923TIP3    H233329   3.043   2.742   7.361  0.7505  0.2746 -1.3885
 3924TIP3   OH233330   3.214   0.152   7.924 -0.2183 -1.0103 -0.3995
 3924TIP3    H133331   3.289   0.190   7.970 -0.7187 -2.2096  1.4219
 3924TIP3    H233332   3.252   0.084   7.868  0.3035 -0.0423 -1.2433
 3925TIP3   OH233333   3.970   6.609   8.262 -0.1368 -0.4038 -0.0363
 3925TIP3    H133334   4.020   6.618   8.344  2.1017  1.4968 -1.5575
 3925TIP3    H233335   4.010   6.534   8.217  0.1163 -0.0482 -0.4057
 3926TIP3   OH233336   2.626   7.039   2.418  0.0450 -0.0371  0.3846
 3926TIP3    H133337   2.694   7.105   2.429 -1.1988  1.0714  1.6127
 3926TIP3    H233338   2.640   6.978   2.490  1.0995 -1.0591 -0.6625
 3927TIP3   OH233339   1.249   0.223   1.365 -0.0847  0.8233 -0.5584
 3927TIP3    H133340   1.170   0.220   1.418 -0.1506  2.1384 -0.5753
 3927TIP3    H233341   1.219   0.203   1.276 -0.4788  1.8438 -0.6560
 3928TIP3   OH233342   2.220   1.415   1.114  0.0355  0.2282  0.0262
 3928TIP3    H133343   2.248   1.332   1.076 -0.2551  0.2958 -0.3411
 3928TIP3    H233344   2.301   1.456   1.146  0.3790  0.4662 -1.1079
 3929TIP3   OH233345   2.318   5.973   1.806 -0.1163 -0.1483  0.2401
 3929TIP3    H133346   2.382   5.916   1.848 -0.9030 -0.6843  0.7183
 3929TIP3    H233347   2.241   5.918   1.793 -0.4864  0.4924 -0.3292
 3930TIP3   OH233348   0.134   1.296   1.496 -0.3410 -0.7746 -0.0817
 3930TIP3    H133349   0.180   1.333   1.421 -0.8560 -0.0427 -0.0422
 3930TIP3    H233350   0.071   1.235   1.459 -0.6685 -0.3344 -0.2593
 3931TIP3   OH233351   5.206   0.375   0.128  0.0172  0.0860  0.2089
 3931TIP3    H133352   5.140   0.442   0.106  1.1164  1.5160  1.1501
 3931TIP3    H233353   5.246   0.408   0.208  2.5532 -0.2844 -0.8816
 3932TIP3   OH233354   2.643   1.072   7.604 -0.0708  0.0003  0.5829
 3932TIP3    H133355   2.615   1.107   7.688  1.5155  0.6843  0.8568
 3932TIP3    H233356   2.566   1.076   7.548 -0.5797  1.5690  1.3788
 3933TIP3   OH233357   3.035   1.915   2.129 -0.0635  0.1917 -0.1863
 3933TIP3    H133358   2.968   1.973   2.093 -0.8714 -0.3311  0.4728
 3933TIP3    H233359   3.118   1.951   2.096 -0.6770  0.7138 -1.1730
 3934TIP3   OH233360   3.042   1.983   1.827  0.0227 -0.1220  0.5599
 3934TIP3    H133361   3.059   2.076   1.837  0.0380 -0.0279 -0.3065
 3934TIP3    H233362   3.125   1.945   1.799 -0.5390 -0.0378 -1.2922
 3935TIP3   OH233363   2.507   2.228   1.204 -0.3519 -0.2809 -0.4235
 3935TIP3    H133364   2.466   2.307   1.239 -0.9452 -0.4260 -0.7977
 3935TIP3    H233365   2.456   2.206   1.126  0.5202 -0.3724 -0.9785
 3936TIP3   OH233366   7.275   2.614   0.965 -0.4751  0.0572  0.7063
 3936TIP3    H133367   7.279   2.702   0.929 -0.9336 -1.0063 -2.0684
 3936TIP3    H233368   7.182   2.600   0.983 -0.8282 -0.9114 -1.6976
 3937TIP3   OH233369   5.292   1.108   1.350  0.3985  0.8213 -0.0986
 3937TIP3    H133370   5.259   1.187   1.307 -0.3603  0.0742 -0.9041
 3937TIP3    H233371   5.328   1.139   1.433  0.9733  2.1473 -0.8213
 3938TIP3   OH233372   6.116   0.356   0.076 -0.4824 -0.3263  0.3120
 3938TIP3    H133373   6.187   0.415   0.051 -0.2634 -0.1638  1.2703
 3938TIP3    H233374   6.086   0.318  -0.006 -0.1058  0.5345 -0.2334
 3939TIP3   OH233375   2.403   0.407   0.619  0.4530 -0.3553  0.0145
 3939TIP3    H133376   2.383   0.421   0.711 -1.0630  0.7216 -0.4466
 3939TIP3    H233377   2.323   0.368   0.583  1.3130 -1.5225 -0.6887
 3940TIP3   OH233378   4.963   0.353   1.665 -0.3108  0.3217  0.3757
 3940TIP3    H133379   5.046   0.371   1.709 -0.5258  1.4182  0.3421
 3940TIP3    H233380   4.900   0.411   1.708 -0.8540  0.2197 -0.2761
 3941TIP3   OH233381   3.092   3.886   6.959  0.4321 -0.2722 -0.1252
 3941TIP3    H133382   3.152   3.910   7.029  0.4504  0.4665 -0.3927
 3941TIP3    H233383   3.018   3.947   6.969  0.4159 -0.1957 -0.7187
 3942TIP3   OH233384   2.658   2.714   1.606  0.4317 -0.4391  0.1780
 3942TIP3    H133385   2.627   2.792   1.650 -0.7651 -0.7452 -0.1122
 3942TIP3    H233386   2.643   2.731   1.513 -0.1940 -1.1616  0.1405
 3943TIP3   OH233387   2.573   5.997   6.904 -0.1426 -0.3469 -1.1565
 3943TIP3    H133388   2.514   5.987   6.979  1.0346  0.2295 -0.1286
 3943TIP3    H233389   2.652   5.949   6.929  1.0375  1.5416 -1.1582
 3944TIP3   OH233390   6.540   1.039   8.125  0.1049  0.3867 -0.2283
 3944TIP3    H133391   6.559   1.012   8.215  0.4741  0.4859 -0.2755
 3944TIP3    H233392   6.614   1.094   8.101 -0.0668  0.4784 -0.5442
 3945TIP3   OH233393   3.500   0.805   2.230  0.0058 -0.1530  0.2698
 3945TIP3    H133394   3.419   0.856   2.228  0.6844  0.9435  0.0589
 3945TIP3    H233395   3.472   0.715   2.215 -1.2483  0.1158  0.9233
 3946TIP3   OH233396   4.120   6.243   0.337 -0.2958 -0.0882 -0.2898
 3946TIP3    H133397   4.203   6.230   0.290 -1.5658 -1.7729 -2.1227
 3946TIP3    H233398   4.063   6.287   0.273 -1.2069 -0.0015  0.5769
 3947TIP3   OH233399   2.094   1.210   2.234  0.4833 -0.7433 -0.2722
 3947TIP3    H133400   2.002   1.220   2.212  0.6982 -1.6733 -1.6644
 3947TIP3    H233401   2.098   1.218   2.329 -0.9335 -0.0305 -0.2671
 3948TIP3   OH233402   2.989   2.883   0.859  0.0365  0.5915  0.4673
 3948TIP3    H133403   3.018   2.801   0.898 -0.2575  0.1934 -0.1310
 3948TIP3    H233404   2.969   2.940   0.933  1.5351  0.5859  0.8807
 3949TIP3   OH233405   3.999   1.513   7.546 -0.1781 -0.0650  0.4348
 3949TIP3    H133406   3.971   1.528   7.456 -0.8260 -1.5896  0.3729
 3949TIP3    H233407   4.030   1.423   7.546  1.1056  0.3705  1.4220
 3950TIP3   OH233408   6.484   0.698   8.255 -0.4754 -0.1896 -0.1804
 3950TIP3    H133409   6.418   0.646   8.301  0.4794 -0.6521  0.6709
 3950TIP3    H233410   6.472   0.674   8.163 -0.9487 -0.8953  0.0590
 3951TIP3   OH233411   1.913   6.471   1.743  0.0533 -0.5006 -0.3300
 3951TIP3    H133412   1.858   6.393   1.756  1.3783 -1.3777  0.1082
 3951TIP3    H233413   1.946   6.463   1.654  1.2522 -1.1526  0.1544
 3952TIP3   OH233414   2.729   2.776   0.279 -0.4260 -0.3898  0.1450
 3952TIP3    H133415   2.760   2.862   0.250 -0.3416 -0.0313  1.2732
 3952TIP3    H233416   2.806   2.719   0.275 -0.1582 -0.0677  0.7484
 3953TIP3   OH233417   2.592   3.185   8.071 -0.1876 -0.3333  0.3587
 3953TIP3    H133418   2.676   3.231   8.077 -0.7086  0.4424  2.4132
 3953TIP3    H233419   2.607   3.117   8.006  1.4925  0.9031 -0.6192
 3954TIP3   OH233420   2.140   1.571   0.002  0.1584 -0.5096  0.4532
 3954TIP3    H133421   2.098   1.500   0.052  0.5058 -0.0080  1.4734
 3954TIP3    H233422   2.191   1.526  -0.065 -0.0465 -1.2107  0.7587
 3955TIP3   OH233423   4.327   5.795   0.926 -0.7514  0.4882 -0.2747
 3955TIP3    H133424   4.245   5.809   0.973 -0.5507 -0.4634  0.3792
 3955TIP3    H233425   4.306   5.727   0.862 -0.8257  1.2384 -1.0575
 3956TIP3   OH233426   3.771   1.619   2.217  0.2076  0.2398  0.0957
 3956TIP3    H133427   3.718   1.549   2.179 -1.5700  1.2661  0.6574
 3956TIP3    H233428   3.724   1.645   2.296 -0.9760  4.3327 -1.8194
 3957TIP3   OH233429   3.981   6.378   2.185 -0.1714 -0.2940 -0.5065
 3957TIP3    H133430   3.962   6.374   2.278  0.1484 -2.4444 -0.5276
 3957TIP3    H233431   4.059   6.324   2.173  0.4571  0.8688 -1.8577
 3958TIP3   OH233432   1.050   7.198   7.944  0.6024  0.0524  0.0861
 3958TIP3    H133433   1.022   7.118   7.989 -0.8705 -0.5360 -1.8109
 3958TIP3    H233434   1.146   7.192   7.942  0.5864 -0.8323  1.4310
 3959TIP3   OH233435   3.545   1.470   7.496 -0.1672  0.0111 -0.3645
 3959TIP3    H133436   3.604   1.460   7.570  0.1046 -1.7588 -0.7798
 3959TIP3    H233437   3.594   1.434   7.422 -0.9423  0.5263 -1.1415
 3960TIP3   OH233438   1.577   3.331   7.408  0.1442  0.0043 -0.2365
 3960TIP3    H133439   1.532   3.342   7.491  1.6981 -3.3154  1.1152
 3960TIP3    H233440   1.520   3.275   7.356  0.1471  0.3678 -0.6373
 3961TIP3   OH233441   0.289   0.532   2.230 -0.6614 -0.7499  0.3266
 3961TIP3    H133442   0.331   0.607   2.272 -0.6028  0.6175 -2.1313
 3961TIP3    H233443   0.337   0.456   2.264 -0.0457  0.3721  2.0331
 3962TIP3   OH233444   4.331   1.395   7.982  0.0657 -0.8359  0.0919
 3962TIP3    H133445   4.362   1.482   7.954  2.5741 -1.4266  0.8486
 3962TIP3    H233446   4.236   1.404   7.987  0.1334  1.3756 -1.5039
 3963TIP3   OH233447   1.879   1.413   7.449 -0.5893 -0.0319  0.3447
 3963TIP3    H133448   1.923   1.461   7.519  0.4883 -0.9157  0.2788
 3963TIP3    H233449   1.832   1.343   7.494 -0.8546  0.1045  0.2853
 3964TIP3   OH233450   3.117   5.409   2.205  0.6036 -0.0094  0.1119
 3964TIP3    H133451   3.161   5.493   2.223  3.4171 -1.5543  0.7625
 3964TIP3    H233452   3.097   5.374   2.292  2.1610 -1.3614 -0.0554
 3965TIP3   OH233453   3.545   2.550   0.687 -0.1135 -0.0784 -0.0014
 3965TIP3    H133454   3.634   2.561   0.655 -0.0381 -0.3480  0.1118
 3965TIP3    H233455   3.517   2.638   0.712  0.1666 -0.0128  0.0854
 3966TIP3   OH233456   3.623   0.530   1.224 -0.2041 -0.4443 -0.1906
 3966TIP3    H133457   3.654   0.469   1.291  0.0134 -1.0966 -0.8754
 3966TIP3    H233458   3.698   0.541   1.165 -0.5921 -0.3727 -0.6762
 3967TIP3   OH233459   3.432   6.752   1.225  0.2039  0.2266  0.2835
 3967TIP3    H133460   3.360   6.777   1.169  0.3965 -0.0398 -0.0854
 3967TIP3    H233461   3.423   6.657   1.236 -0.0660  0.3337  1.0294
 3968TIP3   OH233462   3.962   1.793   2.095 -0.4683 -0.2376 -0.3015
 3968TIP3    H133463   3.897   1.732   2.131 -0.4562  1.4012  2.6682
 3968TIP3    H233464   3.927   1.880   2.114  0.6214  0.6982 -2.4195
 3969TIP3   OH233465   4.373   4.665   1.168 -0.6479 -1.0199  0.5274
 3969TIP3    H133466   4.444   4.697   1.112 -0.2295 -2.1405  0.3949
 3969TIP3    H233467   4.329   4.599   1.115 -1.2561 -0.9415  0.9290
 3970TIP3   OH233468   3.721   5.807   1.315  0.2451  0.1436  0.4421
 3970TIP3    H133469   3.650   5.745   1.330  1.0868 -1.2621 -1.2277
 3970TIP3    H233470   3.710   5.836   1.224  1.9674 -0.3385  0.0556
 3971TIP3   OH233471   1.367   2.178   1.942  0.6384 -0.8024 -0.3204
 3971TIP3    H133472   1.312   2.141   1.873 -0.9486 -0.4556  0.7413
 3971TIP3    H233473   1.363   2.272   1.928 -1.3573 -0.5933  1.4579
 3972TIP3   OH233474   4.114   0.180   6.565 -0.1094  0.2933  0.0310
 3972TIP3    H133475   4.115   0.151   6.656  0.8654  1.0696  0.2745
 3972TIP3    H233476   4.038   0.238   6.560 -0.7262 -0.4934  0.1023
 3973TIP3   OH233477   2.831   6.083   8.121  1.0872  0.2114 -0.0444
 3973TIP3    H133478   2.804   6.029   8.195 -0.9586 -0.3259 -1.1478
 3973TIP3    H233479   2.754   6.136   8.100  2.7527  2.8651  0.3997
 3974TIP3   OH233480   4.366   5.125   1.312 -0.5552 -0.1510  0.4024
 3974TIP3    H133481   4.408   5.140   1.397  0.9774  0.5604 -0.4413
 3974TIP3    H233482   4.331   5.036   1.317  1.2594 -0.8485  1.0895
 3975TIP3   OH233483   3.311   7.301   7.711  0.3882 -0.6038  0.4487
 3975TIP3    H133484   3.284   7.318   7.621  3.8585  4.1274  0.1059
 3975TIP3    H233485   3.392   7.250   7.702 -0.7473 -2.5580  1.0352
 3976TIP3   OH233486   3.575   5.295   7.670 -0.2199  0.0570  0.0026
 3976TIP3    H133487   3.525   5.254   7.599  0.3464  1.6219 -1.3411
 3976TIP3    H233488   3.513   5.299   7.743 -2.2071  2.2376 -1.7321
 3977TIP3   OH233489   5.084   7.045   8.378 -0.0584  0.2555 -0.4803
 3977TIP3    H133490   5.068   6.962   8.423  1.7033  0.3009  0.2757
 3977TIP3    H233491   5.151   7.023   8.313  0.6230  1.1259 -0.0805
 3978TIP3   OH233492   2.015   1.052   1.853 -0.2170  0.1627  0.2007
 3978TIP3    H133493   1.959   1.032   1.928 -0.8782  1.1781 -0.0219
 3978TIP3    H233494   2.051   1.139   1.872  0.1024  0.1553 -0.3655
 3979TIP3   OH233495   1.584   2.553   2.027 -0.2077  0.6551 -0.0138
 3979TIP3    H133496   1.507   2.507   1.995  0.5381 -0.7774  0.1828
 3979TIP3    H233497   1.550   2.633   2.067 -1.3288  1.4107 -2.4305
 3980TIP3   OH233498   0.694   0.156   6.830  0.1073  0.2048  0.2678
 3980TIP3    H133499   0.665   0.225   6.770  0.4079 -1.8365 -2.3336
 3980TIP3    H233500   0.738   0.092   6.773 -0.2874 -2.1954  2.5697
 3981TIP3   OH233501   2.154   5.198   0.880 -0.1698 -0.2961  0.1943
 3981TIP3    H133502   2.075   5.212   0.827 -0.3085  0.8571  0.6883
 3981TIP3    H233503   2.201   5.127   0.835 -0.8161 -0.0675 -0.8569
 3982TIP3   OH233504   1.619   6.441   7.715 -0.4150 -0.5846  0.0560
 3982TIP3    H133505   1.705   6.410   7.744  0.2220 -0.0782 -1.2537
 3982TIP3    H233506   1.634   6.473   7.627 -1.9521 -0.4351 -0.1577
 3983TIP3   OH233507   3.342   5.264   1.218  0.3448 -0.2245 -0.4223
 3983TIP3    H133508   3.386   5.348   1.206  3.0460 -1.5327 -0.0183
 3983TIP3    H233509   3.388   5.222   1.291 -2.2928 -1.2221  0.7588
 3984TIP3   OH233510   3.372   0.404   0.172 -0.3948 -0.3537 -0.1260
 3984TIP3    H133511   3.395   0.365   0.256  1.4135  0.3033 -0.3039
 3984TIP3    H233512   3.302   0.466   0.192 -0.6207 -0.8899  0.7497
 3985TIP3   OH233513   5.661   0.005   0.268  0.2202  0.4982 -0.3688
 3985TIP3    H133514   5.722  -0.017   0.339  0.6201  0.3706 -0.7546
 3985TIP3    H233515   5.576  -0.028   0.299  1.2451 -3.9679 -2.0547
 3986TIP3   OH233516   2.211   5.049   1.298 -0.0247 -0.1874  0.0907
 3986TIP3    H133517   2.267   5.071   1.224 -1.9183 -0.7271 -1.5291
 3986TIP3    H233518   2.204   4.953   1.295  0.2473 -0.2543  1.2476
 3987TIP3   OH233519   3.087   3.034   7.020  0.8065 -0.3063 -0.5495
 3987TIP3    H133520   3.088   2.950   7.065 -1.0724  0.5086  1.0689
 3987TIP3    H233521   3.157   3.084   7.061  0.1605 -0.1360  0.3406
 3988TIP3   OH233522   1.249   2.267   7.766 -0.4834 -0.0700 -0.1604
 3988TIP3    H133523   1.219   2.177   7.767 -2.2363  0.4973  0.9331
 3988TIP3    H233524   1.219   2.302   7.682  2.4751 -1.1942 -1.7661
 3989TIP3   OH233525   5.069   2.368   1.781  0.2180  0.2856 -1.1790
 3989TIP3    H133526   5.101   2.448   1.822 -0.4565  0.4173 -0.9030
 3989TIP3    H233527   5.049   2.393   1.691 -1.2402  0.7609 -0.7408
 3990TIP3   OH233528   2.460   1.788   1.870 -0.1288  0.8746  0.0218
 3990TIP3    H133529   2.457   1.718   1.936  1.6815  0.8673  0.1237
 3990TIP3    H233530   2.531   1.762   1.811  0.4440  2.5320 -0.0369
 3991TIP3   OH233531   0.734   0.687   7.279  0.8055  0.2020 -0.0286
 3991TIP3    H133532   0.772   0.724   7.359 -0.8112 -0.6776  1.1722
 3991TIP3    H233533   0.775   0.601   7.271 -0.7156 -0.6486  1.1346
 3992TIP3   OH233534   2.392   5.601   0.125 -0.1813  0.4179 -0.0989
 3992TIP3    H133535   2.372   5.688   0.161  1.3619  0.0635  1.7031
 3992TIP3    H233536   2.308   5.555   0.127 -0.5799  1.1383  1.0532
 3993TIP3   OH233537   0.906   3.660   1.118 -0.5145 -0.3524  0.1725
 3993TIP3    H133538   0.843   3.718   1.075 -0.9834 -1.3239 -0.4699
 3993TIP3    H233539   0.954   3.619   1.046 -2.0680 -2.8379  0.4900
 3994TIP3   OH233540   3.372   2.304   0.291  0.4393  0.1951 -0.2533
 3994TIP3    H133541   3.287   2.271   0.319 -0.0740  1.3454 -0.3918
 3994TIP3    H233542   3.430   2.288   0.365  0.0576 -0.4152 -0.0828
 3995TIP3   OH233543   2.358   1.130   8.385  0.2997 -0.1578  0.3895
 3995TIP3    H133544   2.398   1.106   8.302 -1.4274 -1.0749 -0.2208
 3995TIP3    H233545   2.265   1.109   8.373 -0.1306  0.6342  2.2019
 3996TIP3   OH233546   3.862   2.200   0.803 -0.2495  0.0150  0.2837
 3996TIP3    H133547   3.937   2.154   0.839 -0.2817 -0.1307  0.1643
 3996TIP3    H233548   3.825   2.140   0.739 -0.9176 -0.2231  0.8841
 3997TIP3   OH233549   1.448   3.578   1.472  0.7114 -0.0129  0.6901
 3997TIP3    H133550   1.542   3.573   1.452  0.8589  1.6405  0.9085
 3997TIP3    H233551   1.444   3.564   1.567  0.5541 -1.9232  0.4185
 3998TIP3   OH233552   2.642   1.598   8.295 -0.2916  0.4495 -0.9491
 3998TIP3    H133553   2.701   1.544   8.242  0.1987  1.0274 -0.9900
 3998TIP3    H233554   2.556   1.587   8.254 -0.4008 -1.0918 -0.3709
 3999TIP3   OH233555   4.134   0.761   0.063 -0.3103 -0.3165  0.2968
 3999TIP3    H133556   4.155   0.853   0.076 -1.1881  0.1310 -1.2605
 3999TIP3    H233557   4.200   0.713   0.114  0.8309  1.1472  0.2211
 4000TIP3   OH233558   4.499   0.330   0.513 -0.0477  0.6163 -0.4094
 4000TIP3    H133559   4.484   0.262   0.448  0.3930 -1.0613  1.2230
 4000TIP3    H233560   4.591   0.321   0.537 -0.2768  1.0399  0.6479
 4001TIP3   OH233561   1.363   2.901   0.961 -0.0304 -0.4266  0.3069
 4001TIP3    H133562   1.291   2.964   0.968 -1.0188 -1.5365  0.3873
 4001TIP3    H233563   1.439   2.947   0.997 -0.7006  0.7601  0.2378
 4002TIP3   OH233564   3.327   1.078   2.221 -0.2959 -0.5612 -0.0668
 4002TIP3    H133565   3.359   1.147   2.280  0.1925 -0.9566  0.1351
 4002TIP3    H233566   3.242   1.110   2.191  0.4673  0.7129 -0.9407
 4003TIP3   OH233567   2.767   1.027   1.810  0.3025  0.0355  0.3984
 4003TIP3    H133568   2.824   1.101   1.832 -1.1569  1.2050  0.3518
 4003TIP3    H233569   2.790   0.959   1.872  1.0498  0.8564  1.0263
 4004TIP3   OH233570   3.149   2.202   0.402  0.3976 -0.9488 -0.5744
 4004TIP3    H133571   3.175   2.110   0.406 -1.4577 -1.5064 -0.8618
 4004TIP3    H233572   3.151   2.232   0.493  1.0356 -1.2541 -0.4835
 4005TIP3   OH233573   3.252   2.392   1.222  0.1452 -0.2272 -0.2476
 4005TIP3    H133574   3.342   2.409   1.194  0.5993 -0.5723  0.9356
 4005TIP3    H233575   3.252   2.415   1.315 -1.2099  0.5448 -0.4329
 4006TIP3   OH233576   4.283   5.066   0.257  0.2793  0.8002  0.5733
 4006TIP3    H133577   4.190   5.084   0.270  0.3871  2.1775 -0.4682
 4006TIP3    H233578   4.286   4.981   0.214 -0.3988 -0.2253  2.5150
 4007TIP3   OH233579   1.754   4.461   2.084 -0.2503  0.2351 -0.1754
 4007TIP3    H133580   1.811   4.385   2.087 -1.4302 -0.6167  1.2016
 4007TIP3    H233581   1.686   4.444   2.149 -2.0286  1.2644 -1.6750
 4008TIP3   OH233582   1.562   2.113   1.626 -0.2988  0.1415  0.1195
 4008TIP3    H133583   1.581   2.184   1.687  0.7730  0.7830 -0.9382
 4008TIP3    H233584   1.484   2.143   1.578  1.3618  1.5708 -1.7654
 4009TIP3   OH233585   3.087   0.977   6.897  0.6485  0.0431 -0.3024
 4009TIP3    H133586   3.080   0.886   6.868 -2.1649  0.3339 -0.6978
 4009TIP3    H233587   3.094   1.027   6.816 -0.2006  0.3375 -0.1993
 4010TIP3   OH233588   3.617   0.806   0.253 -0.2223  0.1019  0.2254
 4010TIP3    H133589   3.590   0.813   0.161 -1.4713 -0.2919  0.5636
 4010TIP3    H233590   3.616   0.712   0.271 -0.2155  0.1948  0.7155
 4011TIP3   OH233591   1.553   0.391   7.369 -0.5160 -0.3113  0.4585
 4011TIP3    H133592   1.509   0.309   7.348 -2.0682  0.4899  0.5534
 4011TIP3    H233593   1.589   0.421   7.285  0.8737 -1.5366  0.5871
 4012TIP3   OH233594   0.666   1.437   8.067 -0.4775 -0.2267  0.0199
 4012TIP3    H133595   0.637   1.493   8.138  0.8521  0.8843 -0.2988
 4012TIP3    H233596   0.684   1.497   7.994  1.5510 -0.9641 -0.1360
 4013TIP3   OH233597   2.276   3.685   1.838 -0.1684 -0.2431 -0.0816
 4013TIP3    H133598   2.286   3.705   1.931  2.0514  1.9912 -0.7434
 4013TIP3    H233599   2.339   3.615   1.821 -1.2918 -1.3652  0.2704
 4014TIP3   OH233600   3.214   6.111   2.018 -0.3592 -0.0874 -0.4993
 4014TIP3    H133601   3.257   6.160   2.088 -0.8479  0.8745 -0.8644
 4014TIP3    H233602   3.170   6.038   2.064 -0.0644  0.1098  0.1049
 4015TIP3   OH233603   4.616   3.783   7.006 -0.5122 -0.1005 -0.2320
 4015TIP3    H133604   4.703   3.799   6.968 -0.3333 -1.7218 -0.5352
 4015TIP3    H233605   4.556   3.832   6.949  0.3709  2.8649  1.2723
 4016TIP3   OH233606   3.756   5.119   8.218 -0.7183  0.6804  0.4065
 4016TIP3    H133607   3.745   5.214   8.210  0.2791  0.6704 -1.3673
 4016TIP3    H233608   3.770   5.089   8.128 -0.1960 -1.0404  1.0435
 4017TIP3   OH233609   2.455   0.295   1.634 -0.4246  0.3118  0.0954
 4017TIP3    H133610   2.426   0.385   1.647 -1.1460  0.3170 -1.4650
 4017TIP3    H233611   2.374   0.244   1.631 -0.0648 -0.2584 -0.0668
 4018TIP3   OH233612   4.071   0.001   0.402  0.1834 -0.3385  0.1250
 4018TIP3    H133613   4.153  -0.036   0.367  0.7026  0.3144  0.6407
 4018TIP3    H233614   4.006  -0.019   0.335  1.5610  2.5948 -2.2098
 4019TIP3   OH233615   3.565   1.159   0.173 -0.4167  0.9209 -0.1805
 4019TIP3    H133616   3.543   1.077   0.129 -1.0253  1.1689 -0.3433
 4019TIP3    H233617   3.648   1.186   0.135  0.2000 -0.0571  0.4784
 4020TIP3   OH233618   2.082   1.439   0.791 -0.5336  0.3684 -0.0386
 4020TIP3    H133619   1.986   1.438   0.785 -0.5455  1.3010 -0.1691
 4020TIP3    H233620   2.111   1.466   0.704 -0.0801 -1.3822 -0.4541
 4021TIP3   OH233621   2.954   3.644   7.020  0.6527 -0.3616 -0.0264
 4021TIP3    H133622   2.883   3.708   7.024  0.9207 -0.0660  0.0189
 4021TIP3    H233623   3.021   3.686   6.967  0.6580 -0.7765 -0.3508
 4022TIP3   OH233624   2.710   0.422   1.820 -0.7734 -0.3525  0.1163
 4022TIP3    H133625   2.765   0.478   1.874 -1.5681  0.6120 -0.0717
 4022TIP3    H233626   2.630   0.408   1.872 -0.1008 -2.3212  0.6936
 4023TIP3   OH233627   3.091   5.998   1.342 -0.6018  0.2390 -0.2412
 4023TIP3    H133628   3.067   5.910   1.311 -1.7564  0.2741  0.5518
 4023TIP3    H233629   3.158   5.982   1.409  1.1930  0.1146 -2.0356
 4024TIP3   OH233630   1.306   5.290   0.967 -0.2157 -0.1612  0.4392
 4024TIP3    H133631   1.326   5.310   0.876 -0.3978 -0.8878  0.2345
 4024TIP3    H233632   1.389   5.304   1.013 -0.1908  0.4691  0.2093
 4025TIP3   OH233633   2.737   2.381   2.001  0.4003 -0.1494 -0.6325
 4025TIP3    H133634   2.654   2.366   2.048  0.2949  0.1590 -0.7187
 4025TIP3    H233635   2.719   2.456   1.945  0.8705  0.1771 -0.3437
 4026TIP3   OH233636   1.868   1.986   2.259 -0.1314 -0.3543 -0.2127
 4026TIP3    H133637   1.851   2.079   2.270  1.3283  0.1134 -1.7418
 4026TIP3    H233638   1.963   1.978   2.265 -0.3198 -1.9034  0.9703
 4027TIP3   OH233639   0.991   4.781   1.440 -0.5803  0.4795 -0.1721
 4027TIP3    H133640   1.053   4.729   1.491  0.3845  0.2906 -1.5109
 4027TIP3    H233641   0.939   4.717   1.392 -2.4463  0.6042  1.6471
 4028TIP3   OH233642   2.888   6.371   1.617  0.0443 -0.4229  0.5921
 4028TIP3    H133643   2.804   6.394   1.576  0.3283 -1.0300 -0.3419
 4028TIP3    H233644   2.863   6.339   1.704 -0.7465 -1.0264  0.1584
 4029TIP3   OH233645   0.046   0.880   6.562  0.9398  0.1907 -0.3561
 4029TIP3    H133646   0.015   0.809   6.619  1.5868  0.4506  0.3378
 4029TIP3    H233647  -0.009   0.874   6.484  0.7600 -0.8634 -0.1642
 4030TIP3   OH233648   1.879   7.214   8.420  0.5346  0.0119  0.4406
 4030TIP3    H133649   1.890   7.296   8.373 -0.0342 -0.3382 -0.3168
 4030TIP3    H233650   1.791   7.184   8.396  1.4065 -1.7325 -0.7607
 4031TIP3   OH233651   4.188   1.461   0.810 -0.8875 -0.3064 -0.1973
 4031TIP3    H133652   4.252   1.456   0.881 -0.5790  1.5334 -0.3057
 4031TIP3    H233653   4.135   1.383   0.820 -0.8452 -0.0887  2.0730
 4032TIP3   OH233654   2.040   1.308   1.320  0.1270  0.7959  0.2450
 4032TIP3    H133655   2.041   1.353   1.404 -2.0851  2.0879 -0.3530
 4032TIP3    H233656   2.081   1.369   1.259 -0.4294  0.8687 -0.0597
 4033TIP3   OH233657   2.384   4.235   6.211  0.0876  0.0696  0.2568
 4033TIP3    H133658   2.397   4.147   6.176  0.6377 -0.2658  1.2812
 4033TIP3    H233659   2.306   4.268   6.165 -0.0021 -0.8711 -0.2750
 4034TIP3   OH233660   0.426   1.575   7.748  0.3384  0.5137 -0.0695
 4034TIP3    H133661   0.415   1.480   7.754 -1.7146  0.7720  0.7575
 4034TIP3    H233662   0.502   1.594   7.803 -0.7491 -0.3939  1.7844
 4035TIP3   OH233663   3.246   0.008   0.705 -0.5790 -0.1598  0.5175
 4035TIP3    H133664   3.182   0.039   0.768 -2.2042 -2.6877  0.1958
 4035TIP3    H233665   3.201   0.014   0.620  0.0901 -0.6845  0.1158
 4036TIP3   OH233666   2.806   5.900   7.031 -0.0727 -0.0316 -0.3122
 4036TIP3    H133667   2.857   5.820   7.020 -0.1248 -0.3038  1.2911
 4036TIP3    H233668   2.829   5.954   6.955  0.8282 -1.0986 -0.8039
 4037TIP3   OH233669   1.971   2.275   2.360 -0.3191  0.2022 -0.0911
 4037TIP3    H133670   1.885   2.284   2.400 -0.0843 -1.3888  0.8446
 4037TIP3    H233671   2.029   2.328   2.415 -1.2993  4.3813 -2.9360
 4038TIP3   OH233672   5.172   3.737   1.905  0.7697  0.1383  0.3077
 4038TIP3    H133673   5.210   3.825   1.904  1.2498 -0.0566  1.0851
 4038TIP3    H233674   5.077   3.753   1.908  0.8522  0.6288  0.4148
 4039TIP3   OH233675   0.653   1.278   1.760 -0.2609 -0.0631 -0.2520
 4039TIP3    H133676   0.644   1.194   1.714 -0.0300 -0.8911  1.1934
 4039TIP3    H233677   0.726   1.265   1.820 -1.1029  0.7327  0.9685
 4040TIP3   OH233678   3.282   1.851   8.397 -0.3176 -0.6060 -0.2339
 4040TIP3    H133679   3.354   1.807   8.443  0.9484  0.0049 -1.5875
 4040TIP3    H233680   3.239   1.904   8.465 -1.1742 -3.0087  1.1711
 4041TIP3   OH233681   2.464   1.390   0.602  0.0094  0.1593 -0.2770
 4041TIP3    H133682   2.384   1.391   0.551  0.0832 -2.0692 -0.4846
 4041TIP3    H233683   2.435   1.390   0.694 -0.1840  0.9440 -0.3367
 4042TIP3   OH233684   2.614   1.732   1.594  0.2031  0.3563 -0.0432
 4042TIP3    H133685   2.568   1.751   1.512 -1.3209 -1.5481  0.3360
 4042TIP3    H233686   2.681   1.801   1.600 -0.7372  1.5066 -2.0364
 4043TIP3   OH233687   0.451   1.621   0.461 -0.5920 -0.4117  0.4211
 4043TIP3    H133688   0.533   1.670   0.460 -1.5382  1.2171  0.9154
 4043TIP3    H233689   0.427   1.613   0.369  1.3221 -2.9936  0.1036
 4044TIP3   OH233690   3.306   2.270   0.028  0.2448 -0.5499 -0.2305
 4044TIP3    H133691   3.374   2.212  -0.005  1.8691  0.1365  1.7825
 4044TIP3    H233692   3.341   2.304   0.111 -3.0353 -1.0857  1.4561
 4045TIP3   OH233693   4.145   0.406   7.252  0.1095  0.3729  0.2900
 4045TIP3    H133694   4.193   0.487   7.271  0.2872 -0.0926  1.8807
 4045TIP3    H233695   4.066   0.411   7.305 -0.3204 -0.0880 -0.2945
 4046TIP3   OH233696   4.090   1.563   7.229  0.1188 -0.3545 -0.1734
 4046TIP3    H133697   4.091   1.468   7.244  1.7272 -0.3903 -0.3696
 4046TIP3    H233698   4.134   1.574   7.145  1.8727  0.7023  0.8488
 4047TIP3   OH233699   2.552   1.182   1.830 -0.4667 -0.0832  0.2016
 4047TIP3    H133700   2.633   1.137   1.854  0.2413  0.6337 -0.7976
 4047TIP3    H233701   2.491   1.111   1.806  1.1150 -0.4919 -2.8159
 4048TIP3   OH233702   4.834   0.502   0.466 -0.2713 -0.0975 -0.0083
 4048TIP3    H133703   4.821   0.597   0.467 -0.7082 -0.1548 -0.1912
 4048TIP3    H233704   4.909   0.489   0.408  0.1287  0.1782  0.4473
 4049TIP3   OH233705   2.930   7.225   0.342  0.0204 -0.1913  0.1694
 4049TIP3    H133706   3.005   7.173   0.371  0.4430  0.6025  0.5307
 4049TIP3    H233707   2.875   7.233   0.420 -0.6514 -1.1301 -0.2072
 4050TIP3   OH233708   3.042   1.313   1.350 -0.1298  0.1455  0.5616
 4050TIP3    H133709   3.070   1.303   1.441  0.6016  0.0853  0.3332
 4050TIP3    H233710   3.081   1.396   1.322 -0.9932  0.5504  0.5338
 4051TIP3   OH233711   7.229   0.991   1.374  0.6267 -0.4519 -0.3615
 4051TIP3    H133712   7.225   1.070   1.321  1.4365 -0.7194 -0.8236
 4051TIP3    H233713   7.203   0.921   1.314  2.8611 -0.9386 -0.7914
 4052TIP3   OH233714   1.879   6.695   1.101  0.5395 -0.7286 -0.5912
 4052TIP3    H133715   1.838   6.681   1.016 -0.0986 -2.2522 -0.0500
 4052TIP3    H233716   1.919   6.782   1.095 -0.4690 -0.3599 -2.0471
 4053TIP3   OH233717   4.899   0.600   1.988 -0.3563  0.7120  0.0807
 4053TIP3    H133718   4.833   0.649   2.038  0.1885  1.3085  0.2209
 4053TIP3    H233719   4.977   0.602   2.042 -0.4643 -0.7393  0.3016
 4054TIP3   OH233720   1.688   0.713   2.232 -0.0400  0.4980  0.1711
 4054TIP3    H133721   1.674   0.793   2.283  0.6828  0.0596  1.0938
 4054TIP3    H233722   1.623   0.652   2.265  1.5352 -0.3366  1.8088
 4055TIP3   OH233723   0.217   0.046   8.199 -0.1876 -0.7001  0.1722
 4055TIP3    H133724   0.240  -0.047   8.198 -0.9004 -0.9311  2.4838
 4055TIP3    H233725   0.237   0.075   8.288 -1.0314  1.1003 -0.1997
 4056TIP3   OH233726   5.393   3.897   1.726  0.4324  0.1834 -0.5951
 4056TIP3    H133727   5.330   3.943   1.781  0.6763  0.5447 -0.6090
 4056TIP3    H233728   5.435   3.967   1.676  0.8005 -0.0587 -0.6263
 4057TIP3   OH233729   2.540   1.482   1.837  0.1218  0.2634  0.2430
 4057TIP3    H133730   2.567   1.390   1.841  2.6840  1.0300  1.4446
 4057TIP3    H233731   2.482   1.492   1.913  0.6370 -0.1325  0.7016
 4058TIP3   OH233732   2.617   6.060   2.052  0.3002 -0.1844  0.2472
 4058TIP3    H133733   2.694   6.046   2.108  0.6826  1.2184  0.1055
 4058TIP3    H233734   2.640   6.018   1.969  1.0969  0.5743  0.0733
 4059TIP3   OH233735   1.350   5.775   0.825  0.7670 -0.3638 -0.3344
 4059TIP3    H133736   1.278   5.831   0.794  2.0099  1.4115 -0.0792
 4059TIP3    H233737   1.327   5.754   0.915  0.5083  0.0932 -0.2946
 4060TIP3   OH233738   2.971   7.260   0.072  0.8723 -0.3515  0.5372
 4060TIP3    H133739   2.951   7.246   0.165 -0.9252  1.9051  0.5374
 4060TIP3    H233740   2.983   7.355   0.065  0.2957 -0.4175 -1.6652
 4061TIP3   OH233741   2.529   1.104   2.106 -0.0050 -0.2125 -0.0202
 4061TIP3    H133742   2.496   1.168   2.168  0.9666 -0.0963  0.3886
 4061TIP3    H233743   2.537   1.151   2.023  1.2267  0.3591  0.4076
 4062TIP3   OH233744   2.517   6.681   2.581 -0.5191  0.2245  0.3688
 4062TIP3    H133745   2.430   6.693   2.542 -0.0876  0.9475 -0.3606
 4062TIP3    H233746   2.544   6.770   2.606  0.0929  0.0182  0.4292
 4063TIP3   OH233747   3.688   4.519   0.271 -0.3258  0.1553 -0.6638
 4063TIP3    H133748   3.656   4.530   0.361  1.9978  0.4554  0.1387
 4063TIP3    H233749   3.609   4.499   0.221 -1.9942  2.0602  1.0705
 4064TIP3   OH233750   3.937   7.182   0.206 -0.6572  0.1238 -0.1848
 4064TIP3    H133751   4.027   7.148   0.205 -0.1427  1.4490 -1.6046
 4064TIP3    H233752   3.891   7.131   0.140 -1.2518 -1.2918  1.2989
 4065TIP3   OH233753   1.907   7.152   7.438 -0.2422  0.0426 -0.6816
 4065TIP3    H133754   1.930   7.185   7.351  1.5392 -1.5747 -0.8539
 4065TIP3    H233755   1.823   7.109   7.425  1.0736 -2.1803 -2.1432
 4066TIP3   OH233756   3.940   7.302   1.994 -0.2544  0.1199  0.5609
 4066TIP3    H133757   3.901   7.220   2.026 -0.3354  0.1460  0.5292
 4066TIP3    H233758   3.867   7.363   1.990 -0.4199 -0.1489 -0.5799
 4067TIP3   OH233759   4.169   0.688   1.487  0.0534  0.1791  0.1020
 4067TIP3    H133760   4.113   0.611   1.498  0.2997 -0.0527 -0.2315
 4067TIP3    H233761   4.234   0.681   1.557  2.1419 -1.7525 -1.9349
 4068TIP3   OH233762   6.506   2.652   1.744  0.2072 -0.3994 -0.1920
 4068TIP3    H133763   6.498   2.595   1.820 -0.4136  0.3744  0.3333
 4068TIP3    H233764   6.426   2.703   1.744  1.1195  1.0785 -0.1487
 4069TIP3   OH233765   3.417   2.300   7.294 -0.1691  0.2894  0.2920
 4069TIP3    H133766   3.448   2.220   7.335 -0.5503  0.1760  0.3537
 4069TIP3    H233767   3.469   2.308   7.214 -0.4498 -0.2537  0.0589
 4070TIP3   OH233768   3.172   0.195   1.417 -0.2468  0.2218 -0.5980
 4070TIP3    H133769   3.266   0.207   1.405 -0.0504 -0.0278  0.6537
 4070TIP3    H233770   3.133   0.277   1.388  0.1993 -0.3342 -2.8687
 4071TIP3   OH233771   3.391   0.141   1.035 -0.1628 -0.4070 -0.3648
 4071TIP3    H133772   3.323   0.092   1.082  0.7191 -0.4510  0.8922
 4071TIP3    H233773   3.370   0.233   1.052 -0.5567 -0.4008 -0.9003
 4072TIP3   OH233774   3.247   2.195   7.748 -0.3456  0.2736 -0.0651
 4072TIP3    H133775   3.298   2.276   7.745  1.4835 -0.8248  0.1900
 4072TIP3    H233776   3.275   2.154   7.830  1.0048 -2.0184 -1.6270
 4073TIP3   OH233777   3.462   6.672   6.712  0.1225  0.1894 -0.1342
 4073TIP3    H133778   3.391   6.618   6.749 -0.5509  1.1884  0.0467
 4073TIP3    H233779   3.431   6.695   6.625 -0.2271  1.4710  0.3260
 4074TIP3   OH233780   3.161   6.991   0.719 -0.0078  0.1801 -0.1202
 4074TIP3    H133781   3.077   6.985   0.766  1.5582 -2.8440  2.5151
 4074TIP3    H233782   3.143   6.954   0.633 -1.6483  0.6602 -0.0077
 4075TIP3   OH233783   3.821   0.579   1.005  0.2141  0.4444 -0.6642
 4075TIP3    H133784   3.916   0.585   1.011  0.2157 -0.0922 -0.1428
 4075TIP3    H233785   3.795   0.659   0.961  0.7858  1.2348  0.4201
 4076TIP3   OH233786   6.651   4.629   0.951  0.0040 -0.1356  0.3566
 4076TIP3    H133787   6.679   4.693   1.016  1.0870 -0.6040  0.3471
 4076TIP3    H233788   6.622   4.554   1.003 -1.2880  0.3550  0.3684
 4077TIP3   OH233789   3.550   0.986   1.128 -0.5046 -0.6798  0.0246
 4077TIP3    H133790   3.549   0.951   1.217 -1.6723  0.9405  0.6774
 4077TIP3    H233791   3.472   1.041   1.123 -1.2203 -1.8324 -2.4506
 4078TIP3   OH233792   0.641   2.234   7.765 -0.0313  0.3919 -0.0590
 4078TIP3    H133793   0.596   2.201   7.843 -0.0966 -0.1912 -0.3420
 4078TIP3    H233794   0.602   2.185   7.693  1.4998 -0.5551 -0.2492
 4079TIP3   OH233795   5.238   4.595   7.176  0.1175  0.1368  0.0672
 4079TIP3    H133796   5.224   4.513   7.128  1.3637 -0.3675  0.5386
 4079TIP3    H233797   5.323   4.626   7.146 -0.1437  1.0275  0.2294
 4080TIP3   OH233798   3.457   1.712   2.011 -0.0852  0.6754  1.0163
 4080TIP3    H133799   3.484   1.626   1.979  1.4567  0.9971  1.4190
 4080TIP3    H233800   3.515   1.773   1.967 -0.9712  1.4865  0.9710
 4081TIP3   OH233801   3.365   0.709   8.416 -0.1374  0.3108  0.4746
 4081TIP3    H133802   3.277   0.686   8.444  0.5988 -1.3068  1.5531
 4081TIP3    H233803   3.406   0.624   8.397  0.1115  1.2213 -3.3338
 4082TIP3   OH233804   2.824   6.419   7.392 -0.7004 -0.3724  0.3249
 4082TIP3    H133805   2.813   6.343   7.450  0.3011 -0.7812  0.0040
 4082TIP3    H233806   2.916   6.415   7.366 -1.1050 -0.1132 -1.1855
 4083TIP3   OH233807   2.029   0.180   1.975 -0.1626  0.5259 -0.3518
 4083TIP3    H133808   2.064   0.228   2.050  0.8522 -0.1933 -0.3605
 4083TIP3    H233809   1.935   0.177   1.990 -0.0468  1.0553  0.4982
 4084TIP3   OH233810   2.399   1.790   8.067  0.1790 -0.2251 -0.0780
 4084TIP3    H133811   2.367   1.836   8.144  1.8969 -0.9607  1.0950
 4084TIP3    H233812   2.331   1.727   8.046 -0.8245  0.7860  0.1055
 4085TIP3   OH233813   3.581   6.303   1.867 -0.1783 -0.3473  0.6949
 4085TIP3    H133814   3.655   6.362   1.881 -0.9229  0.0270  3.1945
 4085TIP3    H233815   3.597   6.266   1.780  1.9485  1.1405  0.4052
 4086TIP3   OH233816   1.517   1.035   2.059 -0.3590  0.5228 -0.1601
 4086TIP3    H133817   1.551   1.005   2.144  1.5150 -0.2331 -1.1536
 4086TIP3    H233818   1.504   1.129   2.071 -1.8379  0.1512  1.5142
 4087TIP3   OH233819   1.401   1.304   1.539  0.5509 -0.8991 -0.0455
 4087TIP3    H133820   1.462   1.251   1.489  0.7399 -0.3439 -0.4109
 4087TIP3    H233821   1.356   1.242   1.596  1.5093 -1.2981  0.2870
 4088TIP3   OH233822   4.254   3.805   2.247 -0.0419  1.0200 -0.6995
 4088TIP3    H133823   4.342   3.839   2.263 -0.3467  0.9292  1.2410
 4088TIP3    H233824   4.242   3.738   2.314 -1.3256  0.5431 -1.3963
 4089TIP3   OH233825   1.880   4.944   7.034  0.7512 -0.6252 -0.4070
 4089TIP3    H133826   1.840   4.953   6.948 -0.4247  0.9495  0.2644
 4089TIP3    H233827   1.805   4.941   7.094  1.5915  1.2054  0.7798
 4090TIP3   OH233828   3.022   5.641   0.505  0.1805  0.0563  0.5165
 4090TIP3    H133829   3.022   5.573   0.438 -2.1667  1.8463 -1.4094
 4090TIP3    H233830   2.966   5.607   0.574  0.4064 -0.6867  0.3335
 4091TIP3   OH233831   4.370   5.052   8.143 -0.5796 -0.2091 -0.1206
 4091TIP3    H133832   4.307   5.032   8.212  0.6987 -0.9213  0.8482
 4091TIP3    H233833   4.455   5.028   8.180  0.3895  1.7799 -0.9903
 4092TIP3   OH233834   3.960   5.598   0.579 -0.5519  0.1050 -0.7546
 4092TIP3    H133835   4.024   5.545   0.627 -0.3652  0.2391 -0.8500
 4092TIP3    H233836   3.876   5.579   0.620 -0.1814  1.4198  0.6880
 4093TIP3   OH233837   2.810   1.594   2.020  0.4758  0.1895  0.1181
 4093TIP3    H133838   2.752   1.669   2.037 -0.5065 -0.6826  0.7497
 4093TIP3    H233839   2.869   1.623   1.951 -0.2121  1.3778  0.0240
 4094TIP3   OH233840   2.658   1.840   0.985 -0.3184  0.5067 -0.1731
 4094TIP3    H133841   2.702   1.873   1.063  1.6539 -2.7287  0.1766
 4094TIP3    H233842   2.566   1.833   1.009 -0.0771  1.6120  1.0982
 4095TIP3   OH233843   4.458   3.673   1.620  0.7122 -0.5264 -0.1291
 4095TIP3    H133844   4.469   3.652   1.713  2.4974  0.6655 -0.0498
 4095TIP3    H233845   4.536   3.636   1.577  0.4976 -0.0259 -0.9671
 4096TIP3   OH233846   1.373   0.433   6.265 -0.3268 -0.0819 -0.6596
 4096TIP3    H133847   1.282   0.440   6.295  0.2479  1.6133  0.7304
 4096TIP3    H233848   1.384   0.339   6.246 -1.5839 -0.7443  1.6949
 4097TIP3   OH233849   4.356   5.345   1.129 -0.4491  0.1221 -0.1801
 4097TIP3    H133850   4.381   5.266   1.178 -0.6626  0.4140  0.4107
 4097TIP3    H233851   4.271   5.370   1.167 -1.1378 -0.2594 -1.4356
 4098TIP3   OH233852   3.769   1.023   0.653 -0.0047 -0.1539  0.4394
 4098TIP3    H133853   3.741   1.008   0.743  0.6789 -1.3467  0.4608
 4098TIP3    H233854   3.691   1.003   0.601  0.0448 -0.9815  0.6722
 4099TIP3   OH233855   4.135   1.694   1.889 -0.9572 -0.2443  0.1837
 4099TIP3    H133856   4.086   1.709   1.808 -0.8792  0.3770  0.2481
 4099TIP3    H233857   4.074   1.719   1.958 -0.5060  0.6729  0.2589
 4100TIP3   OH233858   3.624   3.858   1.344 -0.8706  0.1198 -0.4101
 4100TIP3    H133859   3.656   3.771   1.364 -1.5231 -0.1427 -0.5042
 4100TIP3    H233860   3.703   3.909   1.323 -0.6316 -0.8473 -1.8920
 4101TIP3   OH233861   4.680   6.898   1.335 -0.0958  0.3314 -0.6337
 4101TIP3    H133862   4.772   6.908   1.311  0.2627 -0.6638  0.3199
 4101TIP3    H233863   4.676   6.817   1.386 -1.5146  0.3137 -0.7373
 4102TIP3   OH233864   6.889   1.225   1.067  0.0715  0.5073 -0.5678
 4102TIP3    H133865   6.976   1.264   1.065  1.3282 -2.0738  0.4816
 4102TIP3    H233866   6.841   1.268   0.997  2.4011  1.5124 -1.5881
 4103TIP3   OH233867   1.966   6.832   8.067  0.0631  0.2155  0.6215
 4103TIP3    H133868   2.062   6.838   8.070 -0.0071  0.9836  1.3576
 4103TIP3    H233869   1.942   6.791   8.151 -0.1133 -2.0320 -0.4717
 4104TIP3   OH233870   3.408   0.420   1.058 -0.7319 -0.1943 -0.5592
 4104TIP3    H133871   3.456   0.463   1.129  1.3236 -0.5579 -1.7050
 4104TIP3    H233872   3.452   0.449   0.978 -2.2879 -0.7249 -1.6265
 4105TIP3   OH233873   2.550   1.814   1.344  0.5127 -0.8680  0.1779
 4105TIP3    H133874   2.601   1.894   1.355  0.5358 -1.1064  2.0902
 4105TIP3    H233875   2.467   1.843   1.308  0.0586  0.1988  2.0112
 4106TIP3   OH233876   2.298   2.663   0.914  0.0635 -0.4921 -0.5040
 4106TIP3    H133877   2.219   2.612   0.897  0.3540 -0.9345 -0.5407
 4106TIP3    H233878   2.330   2.688   0.827 -0.6777  0.6808 -0.4465
 4107TIP3   OH233879   5.629   6.948   8.192  0.2167 -0.1831 -0.0907
 4107TIP3    H133880   5.610   6.913   8.104 -1.0457 -1.2434  0.5806
 4107TIP3    H233881   5.705   6.899   8.221  1.5064  1.1451 -1.1282
 4108TIP3   OH233882   3.393   5.371   0.917  0.5695 -0.4061 -0.2468
 4108TIP3    H133883   3.368   5.423   0.994 -0.2439  0.6139 -1.1850
 4108TIP3    H233884   3.398   5.281   0.950 -1.7303 -0.2677  0.5809
 4109TIP3   OH233885   4.607   6.743   1.966 -0.4120  0.3227  0.2675
 4109TIP3    H133886   4.549   6.675   1.931  1.5899 -0.3446 -1.8879
 4109TIP3    H233887   4.660   6.697   2.032  0.8357 -0.2255 -1.0812
 4110TIP3   OH233888   6.570   2.847   6.977 -0.4524 -0.2018  0.2414
 4110TIP3    H133889   6.601   2.785   7.044 -0.1429 -0.4638 -0.1422
 4110TIP3    H233890   6.563   2.931   7.023 -0.0155 -0.3329  0.5477
 4111TIP3   OH233891   2.433   1.531   1.223  0.0367  0.1757 -0.3345
 4111TIP3    H133892   2.426   1.536   1.319 -1.2616 -1.6352 -0.3171
 4111TIP3    H233893   2.512   1.478   1.208 -0.1999 -0.2051 -0.2476
 4112TIP3   OH233894   1.668   0.476   1.824 -0.9656 -0.1183  0.1769
 4112TIP3    H133895   1.573   0.461   1.830 -1.0372 -0.1539 -1.0168
 4112TIP3    H233896   1.683   0.552   1.880 -1.6363 -0.3813  0.7212
 4113TIP3   OH233897   1.003   5.448   2.045 -0.3340 -0.0333 -0.0728
 4113TIP3    H133898   1.076   5.469   1.986 -1.2227 -0.5857 -1.4024
 4113TIP3    H233899   0.983   5.531   2.089  0.0400  0.5127 -0.9138
 4114TIP3   OH233900   1.974   6.453   0.871 -0.4200 -0.4925  0.0094
 4114TIP3    H133901   1.901   6.471   0.812 -0.3322 -0.5023 -0.1027
 4114TIP3    H233902   2.044   6.423   0.814 -1.3034 -3.5040  0.4078
 4115TIP3   OH233903   1.734   6.032   2.101  0.2331 -0.1381  0.0078
 4115TIP3    H133904   1.782   5.974   2.160 -1.6125  0.4011  2.0794
 4115TIP3    H233905   1.781   6.116   2.105  0.2276 -0.1632  0.5225
 4116TIP3   OH233906   5.845   0.092   7.323 -0.1191 -0.7728 -0.2567
 4116TIP3    H133907   5.935   0.122   7.307 -0.4513 -0.5926 -1.8674
 4116TIP3    H233908   5.843   0.073   7.416 -0.1096  5.0778  1.1449
 4117TIP3   OH233909   4.540   1.528   6.101 -0.4933  0.0976  0.4514
 4117TIP3    H133910   4.565   1.579   6.025 -1.9170 -2.6350 -1.9646
 4117TIP3    H233911   4.608   1.462   6.109 -0.7034 -0.0438  1.1169
 4118TIP3   OH233912   2.536   7.268   0.669 -0.0998  0.0608  0.2598
 4118TIP3    H133913   2.506   7.265   0.760 -0.6534 -0.3943  0.0700
 4118TIP3    H233914   2.595   7.343   0.666  0.6685 -0.4840  1.2161
 4119TIP3   OH233915   4.043   0.707   6.435 -0.3462  0.7086 -0.1193
 4119TIP3    H133916   3.982   0.637   6.411  1.6952 -1.4920  0.8861
 4119TIP3    H233917   4.004   0.787   6.399 -1.4505 -1.2876 -3.5912
 4120TIP3   OH233918   0.362   2.627   0.667 -0.0843 -0.0689 -0.6180
 4120TIP3    H133919   0.395   2.622   0.577  0.4076  0.9922 -0.5007
 4120TIP3    H233920   0.439   2.649   0.720 -1.0385  2.9950 -0.4108
 4121TIP3   OH233921   2.750   3.337   0.704  0.0656 -0.1317  0.1273
 4121TIP3    H133922   2.744   3.387   0.786  2.0727 -0.7782  0.6988
 4121TIP3    H233923   2.706   3.254   0.723  1.4316 -0.6910  0.8942
 4122TIP3   OH233924   4.034   0.319   2.223  0.2834 -0.3928 -0.2184
 4122TIP3    H133925   3.957   0.287   2.271  0.0366  0.3739 -0.0951
 4122TIP3    H233926   4.041   0.411   2.248  0.4110 -0.0924 -1.3250
 4123TIP3   OH233927   1.915   1.472   8.097  0.1427 -0.3420  0.0048
 4123TIP3    H133928   1.914   1.408   8.169 -1.2970  0.4750  0.7209
 4123TIP3    H233929   1.928   1.419   8.018  1.1229 -1.3051  0.7964
 4124TIP3   OH233930   4.748   0.379   2.162  0.1018  0.1891 -0.1170
 4124TIP3    H133931   4.800   0.352   2.087  0.2201  0.5033 -0.1490
 4124TIP3    H233932   4.703   0.458   2.133 -2.2049 -1.3424 -0.8749
 4125TIP3   OH233933   6.969   7.301   0.338 -0.0478 -0.0034  0.4467
 4125TIP3    H133934   6.915   7.223   0.323  1.0133 -0.4338 -1.2445
 4125TIP3    H233935   6.910   7.363   0.382 -1.6035 -0.8582 -0.4011
 4126TIP3   OH233936   3.332   0.077   6.778 -0.4117  0.3688  0.4859
 4126TIP3    H133937   3.254   0.122   6.745  0.0211  1.9191  1.4991
 4126TIP3    H233938   3.302  -0.011   6.799 -0.8805 -0.4592 -3.2858
 4127TIP3   OH233939   6.709   6.480   1.815 -0.1535  0.1138  0.1754
 4127TIP3    H133940   6.764   6.547   1.855 -0.3373  1.7591 -2.2943
 4127TIP3    H233941   6.697   6.415   1.885  2.9855  0.8406  1.4786
 4128TIP3   OH233942   2.639   0.129   1.936 -0.0203  0.0964 -0.2246
 4128TIP3    H133943   2.667   0.202   1.991  1.1925 -1.1106  0.7762
 4128TIP3    H233944   2.605   0.064   1.997  1.0274 -1.1272 -0.9199
 4129TIP3   OH233945   3.758   5.327   0.119 -0.4234  0.2495 -0.0862
 4129TIP3    H133946   3.814   5.402   0.140 -1.5123  0.6845  1.3206
 4129TIP3    H233947   3.704   5.357   0.046 -0.5528  0.6720  0.1828
 4130TIP3   OH233948   0.665   1.128   6.717 -0.6137  0.0422 -0.2206
 4130TIP3    H133949   0.713   1.203   6.683 -0.1844  0.1752  0.6488
 4130TIP3    H233950   0.599   1.166   6.775 -3.2809  0.0090 -3.0845
 4131TIP3   OH233951   3.710   4.508   1.684 -0.5198 -0.0570 -0.2844
 4131TIP3    H133952   3.782   4.448   1.664  1.7170  2.7432 -0.9024
 4131TIP3    H233953   3.743   4.563   1.755 -2.8275 -0.0350  0.8149
 4132TIP3   OH233954   4.685   1.274   2.116 -0.6171  0.0641  0.2765
 4132TIP3    H133955   4.638   1.214   2.174  0.7717 -0.7941  0.5340
 4132TIP3    H233956   4.749   1.316   2.172 -0.2061  0.2724 -0.3473
 4133TIP3   OH233957   7.036   1.063   1.806 -0.0173 -0.1444  0.2080
 4133TIP3    H133958   7.096   1.011   1.860  0.2277 -0.7287 -0.6157
 4133TIP3    H233959   6.967   1.001   1.782  0.2571 -0.0747 -0.7519
 4134TIP3   OH233960   5.045   5.949   8.230  0.3585 -0.6194  0.6203
 4134TIP3    H133961   4.966   5.961   8.284 -1.3117 -2.5560 -1.3127
 4134TIP3    H233962   5.039   6.017   8.163  0.2471 -0.8809  0.3659
 4135TIP3   OH233963   4.216   6.286   8.398 -0.4046 -0.3490  0.4404
 4135TIP3    H133964   4.177   6.319   8.317 -0.3328 -1.7310 -0.1859
 4135TIP3    H233965   4.296   6.337   8.409 -0.8925  0.4889  0.1518
 4136TIP3   OH233966   1.775   6.904   7.117 -0.7090 -0.1609 -0.1876
 4136TIP3    H133967   1.763   6.979   7.174 -1.6401  0.0935 -0.7179
 4136TIP3    H233968   1.697   6.902   7.062  0.1040 -0.4822 -1.3589
 4137TIP3   OH233969   6.369   0.054   0.155  0.0588  0.3471 -0.6433
 4137TIP3    H133970   6.433   0.068   0.085 -0.6099  1.2711 -1.0741
 4137TIP3    H233971   6.393   0.116   0.224  0.1212  0.1293 -0.4691
 4138TIP3   OH233972   4.201   2.021   1.742 -0.0840  0.5284 -0.6021
 4138TIP3    H133973   4.144   2.053   1.673 -0.3039 -2.4969 -1.8909
 4138TIP3    H233974   4.224   1.932   1.716  2.3029  0.3814  1.7025
 4139TIP3   OH233975   3.798   0.304   1.016 -0.2883  0.1885 -0.1859
 4139TIP3    H133976   3.783   0.391   0.978 -4.3340 -0.4509 -0.2139
 4139TIP3    H233977   3.848   0.257   0.950  0.7952  2.0311 -0.7322
 4140TIP3   OH233978   4.021   5.591   1.570  0.2508  0.2622  0.2442
 4140TIP3    H133979   4.109   5.613   1.540  0.6817 -0.6803  0.8174
 4140TIP3    H233980   3.981   5.676   1.590  0.6362  0.7658 -1.0830
 4141TIP3   OH233981   6.234   0.716   1.133 -0.3790 -0.4697  0.0543
 4141TIP3    H133982   6.216   0.766   1.053  0.9677 -0.2474 -0.1344
 4141TIP3    H233983   6.301   0.653   1.107 -0.0004 -0.4571  0.9822
 4142TIP3   OH233984   3.262   7.160   1.682 -0.6470 -0.4619  0.1152
 4142TIP3    H133985   3.239   7.158   1.589 -0.4822 -0.2804  0.0714
 4142TIP3    H233986   3.227   7.244   1.714  1.7044  0.7384 -0.3985
 4143TIP3   OH233987   4.025   1.295   7.333  0.3581 -0.0677  0.4375
 4143TIP3    H133988   3.964   1.234   7.292  0.9275  0.4600 -1.2182
 4143TIP3    H233989   4.111   1.255   7.321  0.7559  1.1042 -0.7998
 4144TIP3   OH233990   4.280   0.894   1.919  0.1176 -0.5096 -0.1585
 4144TIP3    H133991   4.268   0.812   1.871 -1.9436  0.2594 -1.0256
 4144TIP3    H233992   4.327   0.869   1.999 -0.2945 -2.4955 -0.5141
 4145TIP3   OH233993   5.319   6.456   0.098  0.2217  0.6222 -0.5511
 4145TIP3    H133994   5.306   6.425   0.008  1.2892  0.6780 -0.7334
 4145TIP3    H233995   5.407   6.492   0.098  1.4204 -2.0989  1.2677
 4146TIP3   OH233996   4.413   0.238   6.781  0.2584  0.4642 -0.1983
 4146TIP3    H133997   4.394   0.325   6.747  1.5012  0.0769 -1.9819
 4146TIP3    H233998   4.331   0.189   6.770 -0.2430  1.2180  0.1984
 4147TIP3   OH233999   6.047   1.630   2.314  0.0209 -0.0561  0.3952
 4147TIP3    H134000   5.970   1.662   2.360 -0.4796  0.8220 -1.0456
 4147TIP3    H234001   6.013   1.565   2.253  0.3226  0.9396 -0.8328
 4148TIP3   OH234002   0.503   6.767   1.537 -0.3066 -0.4849  0.6865
 4148TIP3    H134003   0.582   6.741   1.490  0.8246  0.4083  2.0518
 4148TIP3    H234004   0.468   6.685   1.572 -1.3980 -1.2276 -1.9790
 4149TIP3   OH234005   6.892   6.242   0.216 -0.9287  0.7055  0.7941
 4149TIP3    H134006   6.856   6.218   0.302 -0.8953 -0.1367  0.5760
 4149TIP3    H234007   6.964   6.301   0.236  0.0151 -0.6322  1.4333
 4150TIP3   OH234008   4.766   2.313   2.189 -0.6803  0.0566  0.0810
 4150TIP3    H134009   4.674   2.337   2.178 -1.2713 -2.2972 -0.2540
 4150TIP3    H234010   4.796   2.293   2.100 -0.1201 -0.2001  0.3273
 4151TIP3   OH234011   4.195   1.225   1.429  0.1454 -0.4256 -0.3413
 4151TIP3    H134012   4.157   1.173   1.500 -0.4808  1.0457  0.4031
 4151TIP3    H234013   4.119   1.254   1.378  0.4466  0.4186 -0.3081
 4152TIP3   OH234014   6.023   2.458   1.618 -0.2165 -0.2132 -0.0445
 4152TIP3    H134015   6.054   2.549   1.612  0.1645 -0.4695 -2.7758
 4152TIP3    H234016   5.992   2.449   1.708  3.1881  1.4913  1.4027
 4153TIP3   OH234017   6.733   0.624   8.338 -1.0413  0.4559 -0.4796
 4153TIP3    H134018   6.657   0.658   8.291 -1.9350  1.3311  1.5370
 4153TIP3    H234019   6.786   0.701   8.357 -0.1157 -0.0384 -1.0612
 4154TIP3   OH234020   3.393   1.562   7.859  0.1266 -0.5782  0.0400
 4154TIP3    H134021   3.438   1.494   7.909  0.2013 -0.2730  0.3932
 4154TIP3    H234022   3.451   1.638   7.865  0.1204 -0.5271 -0.4858
 4155TIP3   OH234023   6.751   1.380   0.645  0.2563  0.5511 -0.4114
 4155TIP3    H134024   6.841   1.403   0.622  0.5681 -0.2472 -0.0039
 4155TIP3    H234025   6.743   1.403   0.738  0.7613 -1.4713  0.1746
 4156TIP3   OH234026   6.147   0.994   0.684 -0.2090  0.3131 -0.2773
 4156TIP3    H134027   6.219   1.056   0.672 -1.0227  1.9161  2.5864
 4156TIP3    H234028   6.154   0.968   0.776 -1.9998 -1.1460 -0.5356
 4157TIP3   OH234029   4.724   6.048   1.528 -0.1470  0.6368 -0.3956
 4157TIP3    H134030   4.697   5.996   1.452 -0.6164  1.6782 -0.9478
 4157TIP3    H234031   4.818   6.059   1.519 -0.4045  1.9708 -1.6004
 4158TIP3   OH234032   7.167   0.785   1.205 -0.1612 -0.2528  0.3737
 4158TIP3    H134033   7.102   0.834   1.156 -0.3985  0.4836  1.4093
 4158TIP3    H234034   7.119   0.712   1.245 -0.6180  0.9949  2.1561
 4159TIP3   OH234035   2.582   1.200   7.829  0.2123  0.2734 -0.2930
 4159TIP3    H134036   2.621   1.231   7.911  0.1799 -0.5633  0.0376
 4159TIP3    H234037   2.502   1.252   7.820 -0.2699 -0.2959  0.6868
 4160TIP3   OH234038   6.210   0.436   2.004  0.5250 -0.2046  0.3122
 4160TIP3    H134039   6.136   0.383   1.972  0.4695  0.1482 -0.1553
 4160TIP3    H234040   6.169   0.512   2.044  0.6232 -0.2089  0.4195
 4161TIP3   OH234041   4.488   1.237   1.719 -0.0238 -0.3481 -0.0200
 4161TIP3    H134042   4.521   1.194   1.798 -0.4349 -0.1980  0.2349
 4161TIP3    H234043   4.396   1.212   1.716 -0.3624  0.8499  0.3433
 4162TIP3   OH234044   0.806   6.487   0.228 -0.1121 -0.1178  0.5616
 4162TIP3    H134045   0.749   6.444   0.164  0.6263 -2.2275  1.3104
 4162TIP3    H234046   0.889   6.499   0.183  1.0293 -3.3732  1.7115
 4163TIP3   OH234047   5.069   2.206   2.500  0.1892  0.2348  0.5192
 4163TIP3    H134048   5.026   2.152   2.433  0.9669  0.8751 -0.4987
 4163TIP3    H234049   5.126   2.145   2.547  0.4728  0.0148 -0.1132
 4164TIP3   OH234050   4.061   2.417   1.933 -0.2021 -0.7335 -0.4262
 4164TIP3    H134051   4.007   2.485   1.973  0.4406  0.3910 -1.4543
 4164TIP3    H234052   4.138   2.463   1.900  0.2654 -1.9610 -1.0878
 4165TIP3   OH234053   4.117   1.196   0.736  0.0219  0.2751  0.0734
 4165TIP3    H134054   4.211   1.179   0.742  0.1704  1.2820  0.9543
 4165TIP3    H234055   4.097   1.192   0.643  0.8104 -0.6280 -0.0570
 4166TIP3   OH234056   3.902   0.215   0.491 -0.8443 -0.0267 -0.5879
 4166TIP3    H134057   3.851   0.136   0.509  0.0854 -0.4691  0.1508
 4166TIP3    H234058   3.991   0.183   0.475  0.1928  1.0747  2.5496
 4167TIP3   OH234059   4.981   0.515   1.259 -0.2410  0.3772 -0.2311
 4167TIP3    H134060   5.029   0.431   1.260 -0.5181  0.2164  2.4018
 4167TIP3    H234061   5.011   0.561   1.337 -1.8805  1.7303 -0.3672
 4168TIP3   OH234062   4.736   1.048   6.769  0.2412 -0.0069  0.1933
 4168TIP3    H134063   4.697   0.986   6.830  0.4245 -0.6031 -0.2910
 4168TIP3    H234064   4.811   1.002   6.732  0.7057  0.7045  0.2391
 4169TIP3   OH234065   6.691   5.033   1.833 -0.6561  0.4392  0.1954
 4169TIP3    H134066   6.729   5.121   1.834 -0.2549  0.2752 -0.3743
 4169TIP3    H234067   6.716   4.995   1.917  0.3331  0.3775 -0.1244
 4170TIP3   OH234068   4.650   1.514   1.978  0.2060 -0.1212  0.2020
 4170TIP3    H134069   4.667   1.426   2.014  0.6812 -0.2163 -0.2502
 4170TIP3    H234070   4.577   1.547   2.030  1.9602  0.4124  2.4008
 4171TIP3   OH234071   4.193   1.128   1.800  0.0700  0.3237  0.0696
 4171TIP3    H134072   4.237   1.071   1.863  2.8670  4.4916  2.1772
 4171TIP3    H234073   4.113   1.156   1.844 -0.6568 -0.9022 -0.4473
 4172TIP3   OH234074   5.551   0.516   0.288  0.0584  0.0362  0.1246
 4172TIP3    H134075   5.494   0.503   0.364 -0.5718 -0.1621 -0.3831
 4172TIP3    H234076   5.637   0.535   0.326 -0.3382  0.3163  0.8914
 4173TIP3   OH234077   3.123   2.078   1.482  0.6036 -0.0525 -0.0620
 4173TIP3    H134078   3.214   2.065   1.510  0.3524 -0.6913  0.4722
 4173TIP3    H234079   3.098   2.163   1.520  1.0220  0.1919 -0.3300
 4174TIP3   OH234080   4.594   7.225   2.125  0.2425  0.0235 -0.9764
 4174TIP3    H134081   4.521   7.186   2.076 -0.1916 -0.8270  0.3317
 4174TIP3    H234082   4.592   7.181   2.210  0.3521  2.2384  0.1909
 4175TIP3   OH234083   5.647   6.033   0.539 -0.2021  1.1021  0.6744
 4175TIP3    H134084   5.649   5.953   0.487  1.3521  0.7229  1.2991
 4175TIP3    H234085   5.581   6.017   0.606  0.9521 -0.1391  1.5336
 4176TIP3   OH234086   3.121   0.359   7.751 -0.5855  0.0574  0.1555
 4176TIP3    H134087   3.050   0.411   7.790 -1.9288 -1.4983 -0.1587
 4176TIP3    H234088   3.163   0.317   7.827 -2.9917 -2.7083  0.0172
 4177TIP3   OH234089   0.096   0.325   0.577  0.3178  0.1820 -0.0208
 4177TIP3    H134090   0.170   0.326   0.637  0.3726  1.9109 -0.0937
 4177TIP3    H234091   0.024   0.365   0.627 -0.1441 -0.0880 -0.4680
 4178TIP3   OH234092   7.170   0.814   0.058 -0.0926 -0.0347  0.0255
 4178TIP3    H134093   7.085   0.790   0.095  0.4262 -1.5840  0.2639
 4178TIP3    H234094   7.233   0.763   0.109  1.0533  1.7501  0.4050
 4179TIP3   OH234095   3.246   5.253   7.189  0.2562 -0.5014 -0.0135
 4179TIP3    H134096   3.187   5.189   7.229 -1.9333  0.7494 -1.1579
 4179TIP3    H234097   3.242   5.234   7.095 -0.5731  1.4572 -0.3782
 4180TIP3   OH234098   1.008   1.740   0.203  0.6234 -0.1018  0.1863
 4180TIP3    H134099   1.061   1.765   0.127 -0.7357 -0.0046 -0.7384
 4180TIP3    H234100   1.070   1.694   0.260  2.0732  1.3530 -0.1654
 4181TIP3   OH234101   5.924   6.587   1.706 -0.4928  1.0444  0.3766
 4181TIP3    H134102   5.841   6.571   1.663  0.6199 -1.0213 -1.0877
 4181TIP3    H234103   5.954   6.501   1.734  1.3734  1.6871  0.4633
 4182TIP3   OH234104   2.516   6.594   1.172  0.1232  1.0681 -0.1595
 4182TIP3    H134105   2.534   6.648   1.095  2.1623 -0.6359 -0.9133
 4182TIP3    H234106   2.486   6.510   1.137  1.8438  0.0037  0.8506
 4183TIP3   OH234107   4.695   1.810   2.094  0.3798  0.4203  0.1056
 4183TIP3    H134108   4.679   1.834   2.003  2.8166  1.6252 -0.0355
 4183TIP3    H234109   4.686   1.715   2.096  1.6349  0.2441 -1.6867
 4184TIP3   OH234110   0.922   5.389   7.264 -0.1532 -0.1458  0.1622
 4184TIP3    H134111   0.991   5.448   7.294 -0.3020 -0.7414  1.6957
 4184TIP3    H234112   0.924   5.397   7.169  1.1204  0.8697  0.2606
 4185TIP3   OH234113   4.610   5.760   1.806  0.3824 -0.3660  0.2059
 4185TIP3    H134114   4.700   5.777   1.835 -0.0862  0.3794  1.2626
 4185TIP3    H234115   4.606   5.666   1.793  1.6292 -0.2781 -0.9394
 4186TIP3   OH234116   4.304   0.957   6.636  0.2215  0.2241 -0.0209
 4186TIP3    H134117   4.342   1.031   6.683  0.2233  0.4303 -0.3435
 4186TIP3    H234118   4.376   0.895   6.625 -0.1206 -0.4623  1.5171
 4187TIP3   OH234119   3.454   5.964   8.445 -0.2054  0.2651 -0.1448
 4187TIP3    H134120   3.381   5.940   8.388  0.3886 -3.1360  0.4296
 4187TIP3    H234121   3.530   5.965   8.387  0.4012 -3.2099  0.4484
 4188TIP3   OH234122   4.903   6.745   0.351 -0.5648 -0.6759  0.1795
 4188TIP3    H134123   4.902   6.681   0.280 -0.1494 -0.4713 -0.0107
 4188TIP3    H234124   4.992   6.779   0.351 -0.8335  0.0280  0.1669
 4189TIP3   OH234125   5.839   1.749   2.449 -0.2478  0.1208 -0.1500
 4189TIP3    H134126   5.843   1.750   2.545  1.6058 -0.7403 -0.1966
 4189TIP3    H234127   5.746   1.764   2.429 -0.7887 -0.4685  1.7809
 4190TIP3   OH234128   3.634   4.461   7.268 -0.1262 -0.2094 -0.3309
 4190TIP3    H134129   3.658   4.550   7.240 -1.0977  0.5238  1.1148
 4190TIP3    H234130   3.539   4.458   7.260 -0.2961 -0.4085  1.6158
 4191TIP3   OH234131   0.040   6.449   1.157 -0.1077 -0.4463 -0.3240
 4191TIP3    H134132  -0.012   6.515   1.112  1.2471  1.9434  1.5069
 4191TIP3    H234133   0.080   6.495   1.230  0.1087 -3.5472  1.6102
 4192TIP3   OH234134   4.872   1.025   0.536  0.1402  0.4684  0.6229
 4192TIP3    H134135   4.877   1.121   0.540 -1.2493  0.6161 -0.6613
 4192TIP3    H234136   4.938   0.995   0.599 -0.2659  2.2608  1.9395
 4193TIP3   OH234137   5.232   6.432   7.214 -0.3068  0.4456  0.7979
 4193TIP3    H134138   5.294   6.362   7.194  1.6258  2.1281  0.6820
 4193TIP3    H234139   5.265   6.472   7.294  0.9293  3.7161 -1.2386
 4194TIP3   OH234140   2.861   6.359   0.983 -0.0191  0.2352  0.2702
 4194TIP3    H134141   2.850   6.363   1.078 -0.0982 -0.7340  0.3002
 4194TIP3    H234142   2.868   6.266   0.963  0.1548  0.4430 -0.6581
 4195TIP3   OH234143   5.016   1.716   6.951  0.0395 -0.2653 -0.1504
 4195TIP3    H134144   5.078   1.718   7.024  0.3372 -0.5471 -0.3907
 4195TIP3    H234145   4.935   1.681   6.989 -0.2524  0.9766  0.3668
 4196TIP3   OH234146   5.208   6.420   0.517 -0.5063  0.2676 -0.6771
 4196TIP3    H134147   5.128   6.415   0.569 -0.2827 -0.0971 -0.3576
 4196TIP3    H234148   5.257   6.493   0.554  1.6788 -2.6863  2.5930
 4197TIP3   OH234149   5.761   6.080   8.164  0.0558 -0.3479 -0.2798
 4197TIP3    H134150   5.713   6.046   8.239 -0.1332 -0.2755 -0.3700
 4197TIP3    H234151   5.767   6.174   8.178  1.2329 -0.5072  0.3455
 4198TIP3   OH234152   4.692   6.672   1.509  0.0227 -0.0613  0.4524
 4198TIP3    H134153   4.693   6.704   1.599  0.3841  1.4599 -0.0750
 4198TIP3    H234154   4.784   6.662   1.486  0.0127  1.9186 -0.5493
 4199TIP3   OH234155   5.895   4.148   6.597  0.2476  0.5307 -0.3983
 4199TIP3    H134156   5.912   4.065   6.643 -0.8750 -0.0005 -0.9197
 4199TIP3    H234157   5.800   4.149   6.586  0.3800  1.3464 -1.4366
 4200TIP3   OH234158   4.612   2.107   2.452 -0.5399  0.0207  0.4012
 4200TIP3    H134159   4.679   2.056   2.407  1.5330 -0.0745  3.4063
 4200TIP3    H234160   4.572   2.045   2.513 -1.5796  0.7254  0.4476
 4201TIP3   OH234161   6.324   5.518   1.418 -0.0348  0.1168  0.7330
 4201TIP3    H134162   6.363   5.508   1.332  1.0715  0.2598  1.2171
 4201TIP3    H234163   6.392   5.559   1.471 -1.2049  1.3914  1.2951
 4202TIP3   OH234164   4.642   1.329   1.465 -0.3903  0.4867  0.6791
 4202TIP3    H134165   4.690   1.407   1.437 -0.0139 -0.5950 -1.8001
 4202TIP3    H234166   4.556   1.338   1.423 -0.3221 -0.4599  0.3450
 4203TIP3   OH234167   4.205   6.688   6.518 -0.7026 -0.2094  0.1608
 4203TIP3    H134168   4.119   6.714   6.552 -0.0736  1.7951  0.2924
 4203TIP3    H234169   4.186   6.622   6.452 -2.2009 -1.4223  1.7601
 4204TIP3   OH234170   5.514   0.402   1.778 -0.1741 -0.1906 -0.2982
 4204TIP3    H134171   5.423   0.400   1.746 -0.1435 -0.7754 -0.3461
 4204TIP3    H234172   5.536   0.311   1.795  0.3978 -0.0450 -0.2460
 4205TIP3   OH234173   4.459   5.132   6.100  0.8727 -0.3719  0.3784
 4205TIP3    H134174   4.451   5.226   6.086  1.8878 -0.5861 -1.7001
 4205TIP3    H234175   4.475   5.095   6.013  0.1171 -2.5125  1.1046
 4206TIP3   OH234176   6.915   7.045   1.388 -0.4584 -0.1185 -0.0305
 4206TIP3    H134177   6.879   7.006   1.308 -1.0096 -0.0954  0.2064
 4206TIP3    H234178   6.913   6.974   1.452  1.2522 -0.5393 -0.4015
 4207TIP3   OH234179   1.512   1.305   7.724 -0.1399  0.1941 -0.2652
 4207TIP3    H134180   1.496   1.338   7.813 -1.1316 -0.4557 -0.2045
 4207TIP3    H234181   1.579   1.237   7.736 -1.2476 -0.8281  0.1585
 4208TIP3   OH234182   5.609   1.039   2.597 -0.1819  0.2409 -0.6228
 4208TIP3    H134183   5.647   1.015   2.682 -2.1545 -0.1070  0.1929
 4208TIP3    H234184   5.662   1.113   2.567  0.2932  0.6259  1.1011
 4209TIP3   OH234185   2.911   4.193   1.558  0.3197  0.2881  0.3247
 4209TIP3    H134186   2.921   4.288   1.553  2.5672  0.3953  4.6827
 4209TIP3    H234187   3.001   4.159   1.554 -0.3217 -1.5241  0.8889
 4210TIP3   OH234188   5.281   1.019   1.844 -0.2100  0.2151 -0.1431
 4210TIP3    H134189   5.241   0.969   1.915 -0.7897  0.3213 -0.3855
 4210TIP3    H234190   5.375   1.006   1.855 -0.3574 -1.2965 -0.4584
 4211TIP3   OH234191   5.724   1.251   1.363 -0.3222  0.1880  0.0861
 4211TIP3    H134192   5.661   1.316   1.335 -0.9485 -0.5606 -0.2663
 4211TIP3    H234193   5.677   1.168   1.358  1.3390 -0.6564 -2.2745
 4212TIP3   OH234194   2.647   0.004   1.621  0.1966 -0.0128 -0.5923
 4212TIP3    H134195   2.610   0.002   1.532  0.4048 -0.0259 -0.6784
 4212TIP3    H234196   2.602  -0.066   1.667 -1.2486  1.1682 -0.1627
 4213TIP3   OH234197   6.780   0.833   1.268 -0.5772  0.0283 -0.0175
 4213TIP3    H134198   6.801   0.761   1.208 -0.4450  0.9140 -1.0434
 4213TIP3    H234199   6.740   0.790   1.343  0.6966 -1.2453 -0.0541
 4214TIP3   OH234200   3.015   1.635   8.371  0.0565 -0.6516  0.0298
 4214TIP3    H134201   2.993   1.702   8.306  0.2674  0.8602  1.4765
 4214TIP3    H234202   3.110   1.625   8.364  0.0094 -0.8839 -0.2688
 4215TIP3   OH234203   7.266   6.624   8.225  0.4678  0.0847  0.8967
 4215TIP3    H134204   7.179   6.589   8.243  0.2625  0.1893  0.1406
 4215TIP3    H234205   7.255   6.719   8.228  0.2555  0.1125 -0.5453
 4216TIP3   OH234206   0.340   6.871   2.097  0.1273  0.2455 -0.2652
 4216TIP3    H134207   0.272   6.844   2.159 -1.0310  0.0828 -1.5626
 4216TIP3    H234208   0.419   6.881   2.150 -0.9864  0.7426  1.3234
 4217TIP3   OH234209   3.547   1.959   0.397 -0.4261 -0.2331 -0.0346
 4217TIP3    H134210   3.510   1.968   0.309 -1.2835  2.2408  0.5560
 4217TIP3    H234211   3.473   1.974   0.456  0.6850  0.6908  1.1322
 4218TIP3   OH234212   6.695   5.351   0.701  0.2072 -0.4118  0.2786
 4218TIP3    H134213   6.722   5.265   0.735  0.3403 -1.4147 -2.2287
 4218TIP3    H234214   6.682   5.336   0.607 -0.4300  2.1722 -0.0743
 4219TIP3   OH234215   4.909   5.170   7.867  0.0107  0.1131 -0.1251
 4219TIP3    H134216   4.925   5.168   7.962 -1.8666  1.1702  0.2366
 4219TIP3    H234217   4.979   5.115   7.830 -0.6874 -2.3655  2.0832
 4220TIP3   OH234218   4.712   7.234   0.757 -0.2304  0.0528 -0.0906
 4220TIP3    H134219   4.689   7.253   0.848 -1.0741 -0.0221 -0.2834
 4220TIP3    H234220   4.793   7.184   0.763  0.2552  0.8893  0.5760
 4221TIP3   OH234221   3.761   2.025   2.570  0.6224  0.3685 -0.1492
 4221TIP3    H134222   3.811   2.078   2.509 -1.5638  0.4413 -1.9233
 4221TIP3    H234223   3.671   2.030   2.539 -0.2676 -1.0426  2.0505
 4222TIP3   OH234224   3.337   2.401   1.474  0.1398 -0.3653  0.0431
 4222TIP3    H134225   3.411   2.346   1.447 -0.1697 -0.7943  0.0531
 4222TIP3    H234226   3.369   2.447   1.552  0.9075  0.5961 -0.8265
 4223TIP3   OH234227   4.752   1.238   7.945 -0.9536 -0.1840  0.1332
 4223TIP3    H134228   4.785   1.148   7.940 -3.0470 -0.9448 -0.4657
 4223TIP3    H234229   4.765   1.263   8.037  1.3323 -0.4196 -0.1023
 4224TIP3   OH234230   3.037   0.775   0.627  0.5091  0.0537 -0.4219
 4224TIP3    H134231   3.092   0.706   0.664  1.5754  0.4579 -1.2376
 4224TIP3    H234232   3.001   0.820   0.704  0.8106 -0.6123  0.1155
 4225TIP3   OH234233   4.057   5.197   0.025  0.5355 -1.1137  0.2289
 4225TIP3    H134234   4.116   5.273   0.034 -0.4082 -0.3754  0.2173
 4225TIP3    H234235   4.037   5.171   0.115 -1.2126  0.2777  0.2625
 4226TIP3   OH234236   4.825   1.714   1.748 -0.6418 -0.1287  0.0373
 4226TIP3    H134237   4.730   1.716   1.743 -0.6493  3.2115  0.6749
 4226TIP3    H234238   4.846   1.754   1.832  1.3189 -1.5871  0.2737
 4227TIP3   OH234239   3.500   5.872   7.131  0.4722 -0.3046 -0.4292
 4227TIP3    H134240   3.434   5.845   7.068 -1.4467 -1.9494  2.1700
 4227TIP3    H234241   3.496   5.968   7.130 -3.1726 -0.3470  0.8069
 4228TIP3   OH234242   4.737   5.984   0.613  0.0341  0.5535  0.6538
 4228TIP3    H134243   4.704   5.996   0.524  1.7123 -0.6620 -0.1719
 4228TIP3    H234244   4.801   6.054   0.625  0.4556  0.1832  0.5746
 4229TIP3   OH234245   3.568   1.352   0.561 -0.7110 -0.0891  0.3038
 4229TIP3    H134246   3.631   1.351   0.489 -1.3684  3.0940 -0.3802
 4229TIP3    H234247   3.490   1.308   0.525 -0.1071 -0.8939 -0.0244
 4230TIP3   OH234248   6.964   3.892   1.358  0.1907  0.0143 -0.3023
 4230TIP3    H134249   7.004   3.850   1.282 -1.0836  0.0682 -1.0131
 4230TIP3    H234250   7.004   3.849   1.433  0.7268 -0.7282 -1.0088
 4231TIP3   OH234251   2.631   0.973   0.156  0.5442  0.1030 -0.0092
 4231TIP3    H134252   2.607   1.047   0.210  0.0768 -0.8121  1.0642
 4231TIP3    H234253   2.595   0.897   0.202  2.8547 -1.0049  0.0447
 4232TIP3   OH234254   3.677   0.664   6.388  0.2020  0.0756 -0.2849
 4232TIP3    H134255   3.625   0.657   6.308  1.4312 -0.7033 -1.0332
 4232TIP3    H234256   3.760   0.622   6.366  1.0915  1.1633  0.9425
 4233TIP3   OH234257   3.796   4.746   0.968  0.1430  0.0672 -0.4612
 4233TIP3    H134258   3.757   4.707   1.046 -0.3252  1.9989  0.2941
 4233TIP3    H234259   3.863   4.806   1.002  1.3835 -0.6438 -1.6181
 4234TIP3   OH234260   5.422   6.500   8.342  0.0521 -0.4135  0.0029
 4234TIP3    H134261   5.518   6.504   8.342  0.0522 -0.4694  0.6228
 4234TIP3    H234262   5.395   6.575   8.288  0.4601 -0.8224 -0.7818
 4235TIP3   OH234263   2.230   0.161   1.087  0.1595 -0.0923  0.3337
 4235TIP3    H134264   2.262   0.209   1.164  1.8594  0.0278 -0.4160
 4235TIP3    H234265   2.170   0.221   1.045 -0.0906  0.1922  1.0857
 4236TIP3   OH234266   2.768   1.060   0.807 -0.6452  0.1857  0.1548
 4236TIP3    H134267   2.727   1.026   0.727 -1.6932  0.9843  0.3363
 4236TIP3    H234268   2.743   1.152   0.809  0.6455  0.5378  0.6148
 4237TIP3   OH234269   6.213   6.821   1.762  0.2732  0.2332  0.0226
 4237TIP3    H134270   6.180   6.853   1.846  0.1544 -1.3214  0.5826
 4237TIP3    H234271   6.267   6.746   1.784 -0.2753 -0.5894 -1.3394
 4238TIP3   OH234272   3.314   7.209   1.333 -0.0761  0.1186 -0.0746
 4238TIP3    H134273   3.384   7.155   1.296  0.3971 -0.2626  1.3629
 4238TIP3    H234274   3.357   7.290   1.360 -0.3595  0.2467  0.0005
 4239TIP3   OH234275   4.162   7.183   1.922  0.6070  0.3357 -0.2034
 4239TIP3    H134276   4.225   7.247   1.955  0.3633  0.1116  0.6951
 4239TIP3    H234277   4.076   7.221   1.940  0.4799  0.8224 -1.7867
 4240TIP3   OH234278   2.770   7.046   1.640  0.0667  0.3356  0.8400
 4240TIP3    H134279   2.676   7.054   1.651 -0.0155 -0.1240  0.4922
 4240TIP3    H234280   2.799   6.993   1.715  0.0047  0.2306  0.7904
 4241TIP3   OH234281   5.681   7.165   1.008 -0.2303 -0.4683 -0.2156
 4241TIP3    H134282   5.775   7.150   1.019 -0.1405  0.0424 -0.3000
 4241TIP3    H234283   5.675   7.237   0.946 -0.6584  0.6126  1.0630
 4242TIP3   OH234284   4.063   1.762   0.887  0.1641  0.1875 -0.5131
 4242TIP3    H134285   4.115   1.685   0.865 -0.5085 -0.3627 -0.1889
 4242TIP3    H234286   3.976   1.743   0.852  0.1788  1.1106 -1.0586
 4243TIP3   OH234287   3.154   1.544   1.038 -0.4733 -0.0708 -0.4627
 4243TIP3    H134288   3.060   1.548   1.024 -0.5554  3.1820  0.5368
 4243TIP3    H234289   3.166   1.559   1.132  1.0588  0.5664 -0.7339
 4244TIP3   OH234290   2.962   6.649   1.061 -0.6072  0.3056  0.1676
 4244TIP3    H134291   2.961   6.554   1.052  1.3644  0.1705  1.1102
 4244TIP3    H234292   2.901   6.667   1.132 -0.9036 -0.2604  0.0578
 4245TIP3   OH234293   7.026   6.894   1.974 -0.0886  0.0305  0.4687
 4245TIP3    H134294   7.120   6.885   1.956 -0.1874 -1.4736  0.6481
 4245TIP3    H234295   6.999   6.968   1.919  1.1811  0.4433  0.3680
 4246TIP3   OH234296   5.310   5.351   7.393  0.0642 -0.1455 -0.6101
 4246TIP3    H134297   5.240   5.286   7.385  0.2120 -0.2464 -1.0804
 4246TIP3    H234298   5.295   5.410   7.319 -0.1610  0.4405 -0.1013
 4247TIP3   OH234299   3.632   2.277   6.254 -0.1038 -0.1815 -0.0300
 4247TIP3    H134300   3.681   2.359   6.265 -0.8423  0.4205 -1.1415
 4247TIP3    H234301   3.571   2.295   6.182 -0.7765 -1.4765  0.2085
 4248TIP3   OH234302   1.780   2.805   7.790 -0.4103  0.0488  0.5654
 4248TIP3    H134303   1.718   2.745   7.747 -0.1271  0.5316 -0.5359
 4248TIP3    H234304   1.857   2.751   7.808  1.0159  0.7329 -3.1221
 4249TIP3   OH234305   1.342   1.990   8.110 -0.1303  0.0712 -0.1914
 4249TIP3    H134306   1.347   2.048   8.186  0.8365 -2.2126  1.5569
 4249TIP3    H234307   1.397   2.031   8.044  1.0158  0.8444  1.2253
 4250TIP3   OH234308   1.624   7.117   0.177 -0.1358 -0.0750  0.4674
 4250TIP3    H134309   1.684   7.191   0.167 -0.6228  0.3236  0.4678
 4250TIP3    H234310   1.671   7.056   0.233  0.0032  0.5271  1.0118
 4251TIP3   OH234311   6.381   7.167   7.309  0.4208 -0.0064 -0.0738
 4251TIP3    H134312   6.460   7.140   7.261  0.7975  3.1042 -1.2844
 4251TIP3    H234313   6.415   7.205   7.390  0.1518  1.2796 -0.5669
 4252TIP3   OH234314   5.269   0.224   7.755  0.9059 -0.3980 -0.4633
 4252TIP3    H134315   5.352   0.219   7.707  2.5385  1.1875  2.0569
 4252TIP3    H234316   5.207   0.262   7.692  1.9308 -2.0807 -2.5391
 4253TIP3   OH234317   6.314   6.500   6.938 -0.0659 -0.3564  0.1113
 4253TIP3    H134318   6.244   6.555   6.901 -0.4601 -0.4597  0.6891
 4253TIP3    H234319   6.269   6.419   6.963  0.5415 -0.9972 -0.8663
 4254TIP3   OH234320   4.472   0.582   1.151 -0.5292 -0.4056 -0.2620
 4254TIP3    H134321   4.396   0.530   1.125 -1.4884  0.2972  1.0845
 4254TIP3    H234322   4.545   0.520   1.151 -1.2661 -1.2870 -0.6638
 4255TIP3   OH234323   3.691   5.792   0.394  0.1735  0.4359 -0.3609
 4255TIP3    H134324   3.630   5.750   0.333  0.3553  0.3201 -0.4634
 4255TIP3    H234325   3.766   5.732   0.399  1.2431  1.5884 -1.9161
 4256TIP3   OH234326   5.445   6.466   6.216  0.3795 -0.1153  0.5708
 4256TIP3    H134327   5.357   6.503   6.211  0.1644 -0.3952  2.1616
 4256TIP3    H234328   5.504   6.542   6.214  0.0556  0.1410  0.7647
 4257TIP3   OH234329   6.126   0.956   7.777 -0.5225 -0.2581  0.2498
 4257TIP3    H134330   6.093   0.875   7.816 -0.9286 -0.0469  0.3400
 4257TIP3    H234331   6.217   0.962   7.808 -0.1155 -1.2778 -0.6793
 4258TIP3   OH234332   4.102   6.419   8.098  0.5084  0.5745 -0.3382
 4258TIP3    H134333   4.175   6.466   8.141  1.8348 -0.5536 -1.3197
 4258TIP3    H234334   4.120   6.428   8.005 -0.0589 -0.6031 -0.5620
 4259TIP3   OH234335   4.620   0.748   0.218  0.6153  0.0740 -0.4361
 4259TIP3    H134336   4.570   0.823   0.250 -1.4297 -1.4390 -0.0035
 4259TIP3    H234337   4.712   0.772   0.235 -0.0934  1.7678  1.2394
 4260TIP3   OH234338   6.292   1.501   2.221  0.1363  0.0179 -0.0768
 4260TIP3    H134339   6.378   1.541   2.223  0.5410 -0.8632  0.2927
 4260TIP3    H234340   6.231   1.575   2.220  0.8543  0.6373  1.0548
 4261TIP3   OH234341   4.113   0.992   6.996 -0.0125 -0.4813  0.0226
 4261TIP3    H134342   4.093   0.970   7.087  1.7883  0.8257  0.7538
 4261TIP3    H234343   4.102   0.909   6.949 -2.5118 -0.8295  1.1189
 4262TIP3   OH234344   4.531   5.500   8.112  0.1352  0.2284 -0.2600
 4262TIP3    H134345   4.488   5.450   8.042  0.2617 -0.4429  0.1383
 4262TIP3    H234346   4.491   5.468   8.192 -0.4068  1.3948 -0.0558
 4263TIP3   OH234347   4.652   0.915   1.169 -0.0808  0.4387 -0.3117
 4263TIP3    H134348   4.699   0.935   1.088  1.1176 -0.7080  0.0712
 4263TIP3    H234349   4.694   0.969   1.236  0.1932 -0.0075 -0.1164
 4264TIP3   OH234350   4.906   1.201   1.453  0.0848  0.0065  0.2454
 4264TIP3    H134351   4.834   1.257   1.480 -0.0565 -0.9062  1.8201
 4264TIP3    H234352   4.954   1.182   1.533  3.2746  2.1963 -1.0748
 4265TIP3   OH234353   5.022   2.459   1.520 -0.6125  0.3353 -0.4690
 4265TIP3    H134354   5.070   2.541   1.527  0.1726 -0.2265  0.9255
 4265TIP3    H234355   5.090   2.391   1.525 -1.5568 -0.4801  2.1970
 4266TIP3   OH234356   4.655   0.640   2.110 -0.4515  0.0033 -0.2722
 4266TIP3    H134357   4.682   0.674   2.195  0.3564  0.7856 -0.8376
 4266TIP3    H234358   4.569   0.602   2.126  0.1485 -0.8115  1.1287
 4267TIP3   OH234359   3.597   1.186   1.432 -0.2110  0.4618  0.1324
 4267TIP3    H134360   3.544   1.241   1.374 -0.2630  0.2914  0.0188
 4267TIP3    H234361   3.546   1.106   1.443 -0.5032  0.7578  0.9427
 4268TIP3   OH234362   4.895   1.402   2.272 -0.3823 -0.1635 -0.3698
 4268TIP3    H134363   4.941   1.446   2.200 -1.2316 -0.8660 -1.3460
 4268TIP3    H234364   4.829   1.465   2.300  0.1727  0.2480  0.0394
 4269TIP3   OH234365   6.711   2.801   1.633 -0.3888 -0.5144  0.1004
 4269TIP3    H134366   6.720   2.884   1.678 -0.5917 -0.5220  0.1551
 4269TIP3    H234367   6.638   2.757   1.676 -0.7887 -0.3891 -0.4425
 4270TIP3   OH234368   4.488   7.144   1.431  0.4203  0.3783  0.2897
 4270TIP3    H134369   4.534   7.083   1.373  0.5573 -0.7632  1.5447
 4270TIP3    H234370   4.498   7.105   1.518 -3.2514 -0.0776  0.5617
 4271TIP3   OH234371   3.195   0.547   0.705  0.1874  0.0778  0.5074
 4271TIP3    H134372   3.160   0.503   0.782  0.6064 -0.4110  0.4168
 4271TIP3    H234373   3.136   0.522   0.634  0.1884 -0.0072  0.5367
 4272TIP3   OH234374   2.726   4.325   8.296  0.0536 -0.0857  0.9825
 4272TIP3    H134375   2.741   4.297   8.387  0.6490 -0.0162  0.9069
 4272TIP3    H234376   2.666   4.398   8.304 -0.6527 -0.6890  1.2562
 4273TIP3   OH234377   2.220   6.191   1.025  0.2074 -0.2278 -0.0868
 4273TIP3    H134378   2.167   6.146   0.959  0.0229  0.2678 -0.2756
 4273TIP3    H234379   2.162   6.258   1.061  0.2220 -0.6554  0.7632
 4274TIP3   OH234380   4.584   1.066   1.905 -0.2250 -0.3743 -0.3436
 4274TIP3    H134381   4.560   0.989   1.957 -1.3971  0.3641  0.2199
 4274TIP3    H234382   4.662   1.101   1.949 -0.9232 -0.0379  0.6255
 4275TIP3   OH234383   5.360   0.029   8.159 -0.0471  0.2933 -0.3165
 4275TIP3    H134384   5.354   0.125   8.155 -3.1131  0.1473 -0.4495
 4275TIP3    H234385   5.313   0.005   8.239  0.2511 -1.1418 -0.5536
 4276TIP3   OH234386   0.114   0.831   1.128 -0.4702  0.3072 -0.1510
 4276TIP3    H134387   0.023   0.804   1.137 -0.1544 -0.1578  1.9562
 4276TIP3    H234388   0.128   0.837   1.033 -1.2517 -4.6723 -0.7466
 4277TIP3   OH234389   3.257   1.485   0.039  0.3191 -0.0130 -0.0680
 4277TIP3    H134390   3.296   1.439  -0.036  0.2452  1.3993 -0.9960
 4277TIP3    H234391   3.325   1.481   0.107  0.3990 -1.2852 -0.2082
 4278TIP3   OH234392   4.973   0.220   7.969  0.1974  0.1515  0.1546
 4278TIP3    H134393   5.054   0.175   7.947  0.4201  0.7766 -0.2865
 4278TIP3    H234394   4.915   0.150   8.002  1.2654 -0.1276  1.4868
 4279TIP3   OH234395   6.504   1.802   1.629 -0.6211  0.6890 -0.0482
 4279TIP3    H134396   6.583   1.750   1.614  0.0816  1.7903 -0.2030
 4279TIP3    H234397   6.513   1.835   1.719 -0.5719  1.3736 -0.3006
 4280TIP3   OH234398   4.711   0.120   1.164 -0.3250  0.3480 -0.2959
 4280TIP3    H134399   4.758   0.068   1.228 -1.2739 -0.7455 -0.4771
 4280TIP3    H234400   4.679   0.057   1.100 -0.3344  1.3004 -1.2519
 4281TIP3   OH234401   6.691   0.411   7.656  0.0429  0.0827  0.0210
 4281TIP3    H134402   6.714   0.383   7.745  1.4469  0.2747 -0.2649
 4281TIP3    H234403   6.721   0.502   7.652 -0.0500  0.0863 -0.6395
 4282TIP3   OH234404   3.527   1.651   6.751  0.0231  0.4505  0.2779
 4282TIP3    H134405   3.555   1.687   6.667 -1.8163 -0.1217 -0.6016
 4282TIP3    H234406   3.564   1.711   6.816  0.4368  1.6024 -0.9922
 4283TIP3   OH234407   6.038   1.182   6.771 -0.3928  0.3470 -0.6224
 4283TIP3    H134408   6.022   1.094   6.736 -0.1351 -0.0401  0.2080
 4283TIP3    H234409   6.122   1.208   6.735 -0.2248  0.0348 -0.4605
 4284TIP3   OH234410   5.540   1.456   1.319 -1.1586 -0.1030 -0.0498
 4284TIP3    H134411   5.580   1.542   1.310  0.2365 -0.9357 -2.1987
 4284TIP3    H234412   5.541   1.439   1.413 -0.0068  1.5602  0.2563
 4285TIP3   OH234413   6.457   5.978   7.578 -0.4725  0.5459  0.1840
 4285TIP3    H134414   6.379   5.951   7.529 -0.0317 -0.0445 -0.1867
 4285TIP3    H234415   6.424   6.044   7.639 -1.1668  0.7026 -0.3507
 4286TIP3   OH234416   2.648   2.433   7.840  0.4056  0.1081 -0.3779
 4286TIP3    H134417   2.671   2.370   7.772 -0.6060  0.4363 -1.0323
 4286TIP3    H234418   2.642   2.380   7.920  0.5039 -0.4639 -0.7488
 4287TIP3   OH234419   4.902   0.363   0.232  0.3373 -0.3428  0.1523
 4287TIP3    H134420   4.977   0.309   0.208  0.4721 -0.5579  1.0404
 4287TIP3    H234421   4.894   0.426   0.160  0.7244 -0.9724 -0.4498
 4288TIP3   OH234422   4.514   0.777   0.609 -0.0033  0.0678 -0.3411
 4288TIP3    H134423   4.478   0.702   0.562  0.0961 -0.8408  1.0145
 4288TIP3    H234424   4.554   0.739   0.687 -0.2126  1.5686  0.5084
 4289TIP3   OH234425   6.480   7.288   0.466  0.2747 -0.1329  0.1033
 4289TIP3    H134426   6.464   7.346   0.540 -0.0775 -0.2138  0.0886
 4289TIP3    H234427   6.394   7.269   0.430  0.2062 -2.0783  1.1876
 4290TIP3   OH234428   5.801   6.826   1.405 -0.2528 -0.1197 -0.4774
 4290TIP3    H134429   5.857   6.895   1.370 -2.3045  2.1339  0.5198
 4290TIP3    H234430   5.835   6.811   1.493 -0.2430  0.1581 -0.4319
 4291TIP3   OH234431   6.764   1.358   7.477  0.1088  0.0525 -0.4898
 4291TIP3    H134432   6.789   1.409   7.400 -1.8098  0.0051 -1.1596
 4291TIP3    H234433   6.754   1.423   7.546 -1.4660  0.4942 -1.1216
 4292TIP3   OH234434   5.631   7.170   1.672 -0.2686  0.5218 -0.7682
 4292TIP3    H134435   5.561   7.120   1.630 -0.1271 -1.7402  1.5632
 4292TIP3    H234436   5.587   7.238   1.722 -0.7975 -0.7885  0.5548
 4293TIP3   OH234437   2.202   7.117   7.524  0.5372  0.2673 -0.3926
 4293TIP3    H134438   2.191   7.023   7.506 -0.3164  0.4388 -0.7664
 4293TIP3    H234439   2.115   7.154   7.514  0.5784  0.8633  1.2736
 4294TIP3   OH234440   4.853   6.383   7.880 -0.0387  0.6115 -0.0217
 4294TIP3    H134441   4.787   6.452   7.878  0.2744  0.9513  1.1405
 4294TIP3    H234442   4.933   6.427   7.906  0.4059  0.0028 -0.3599
 4295TIP3   OH234443   4.775   0.942   1.657  0.1925 -0.0288  0.2315
 4295TIP3    H134444   4.747   1.024   1.697  2.3645  1.2348 -0.7149
 4295TIP3    H234445   4.717   0.875   1.693 -0.9595  1.7857  1.7731
 4296TIP3   OH234446   7.104   0.300   8.405 -0.0454  0.6216  0.1975
 4296TIP3    H134447   7.072   0.344   8.484 -0.0923  2.0876 -0.6302
 4296TIP3    H234448   7.032   0.306   8.343  1.1404  2.3059 -1.0450
 4297TIP3   OH234449   5.844   5.941   7.176 -0.7416 -0.3797  0.4325
 4297TIP3    H134450   5.871   6.023   7.218 -0.2377 -0.7004  0.7365
 4297TIP3    H234451   5.806   5.969   7.093  1.8320  0.0080 -0.6741
 4298TIP3   OH234452   6.549   6.250   0.235 -0.1582 -0.0619 -0.5715
 4298TIP3    H134453   6.568   6.196   0.158  0.0770 -1.9055  0.7523
 4298TIP3    H234454   6.492   6.320   0.202 -0.4065 -1.0705 -2.3276
 4299TIP3   OH234455   2.658   5.628   0.670  0.6665 -0.2766  0.0686
 4299TIP3    H134456   2.610   5.559   0.717  3.1430 -1.1756  1.3894
 4299TIP3    H234457   2.696   5.584   0.594 -0.1836  0.3254 -0.7189
 4300TIP3   OH234458   0.234   5.234   1.311  0.3938 -0.1005 -0.2862
 4300TIP3    H134459   0.308   5.228   1.372  0.1954  1.0796  0.0753
 4300TIP3    H234460   0.192   5.148   1.316  0.4740 -0.0703  1.1439
 4301TIP3   OH234461   0.013   6.639   2.104  0.1291 -0.3732 -0.3161
 4301TIP3    H134462  -0.036   6.600   2.177 -0.6426  0.5479 -0.3388
 4301TIP3    H234463  -0.022   6.595   2.026 -0.9843  0.5981 -0.3716
 4302TIP3   OH234464   4.007   6.556   0.427 -0.4662 -0.3206  0.2760
 4302TIP3    H134465   3.971   6.575   0.341  1.0521 -0.5429 -0.4225
 4302TIP3    H234466   4.098   6.588   0.423 -0.2950 -0.5982  1.6795
 4303TIP3   OH234467   5.881   6.392   1.440  0.3337  0.0817  0.0855
 4303TIP3    H134468   5.933   6.456   1.392 -1.2678  1.4848  0.1813
 4303TIP3    H234469   5.828   6.444   1.500 -0.1803 -1.4138  0.9556
 4304TIP3   OH234470   4.845   6.747   0.634  0.0051  0.7861  0.3571
 4304TIP3    H134471   4.771   6.685   0.632 -0.5355  1.3885  1.3609
 4304TIP3    H234472   4.875   6.751   0.543 -0.8572  0.1221  0.0348
 4305TIP3   OH234473   0.866   1.568   0.680 -0.0594 -0.0094 -0.4341
 4305TIP3    H134474   0.862   1.474   0.663  0.6051 -0.1270  0.0502
 4305TIP3    H234475   0.923   1.576   0.757 -0.4230  0.7561 -0.2380
 4306TIP3   OH234476   3.202   1.959   0.482  0.1094 -0.2809  0.5873
 4306TIP3    H134477   3.207   1.881   0.426 -0.0562 -0.5971  1.0086
 4306TIP3    H234478   3.130   1.940   0.542 -0.5761  0.6254  0.0596
 4307TIP3   OH234479   3.880   1.554   0.316  0.1388  0.3940  0.2677
 4307TIP3    H134480   3.836   1.469   0.318 -1.1355  1.0165 -0.2477
 4307TIP3    H234481   3.947   1.548   0.383  1.1116 -1.5671 -0.8307
 4308TIP3   OH234482   5.090   5.773   1.495  0.3320 -0.0772  0.3681
 4308TIP3    H134483   5.013   5.778   1.552 -0.8142  1.6599 -1.2713
 4308TIP3    H234484   5.163   5.801   1.552 -0.5381  0.1430  1.3977
 4309TIP3   OH234485   4.528   1.140   2.302  0.1779 -0.5587  0.4908
 4309TIP3    H134486   4.517   1.226   2.342  0.7664 -0.0064 -0.5234
 4309TIP3    H234487   4.490   1.079   2.366 -1.1075  0.5369  0.7870
 4310TIP3   OH234488   5.358   2.595   1.689 -0.2422 -0.3156  0.3171
 4310TIP3    H134489   5.352   2.675   1.741  0.9970  0.0056 -0.0247
 4310TIP3    H234490   5.333   2.622   1.601  0.2677 -0.2826  0.1819
 4311TIP3   OH234491   2.522   0.890   7.261 -0.0764 -0.0124 -0.3073
 4311TIP3    H134492   2.501   0.963   7.318  0.6253  1.2294 -1.5972
 4311TIP3    H234493   2.598   0.849   7.301 -0.0222  0.4192  0.0268
 4312TIP3   OH234494   6.442   0.184   0.665 -0.0782 -0.0377  0.0360
 4312TIP3    H134495   6.385   0.150   0.735 -1.5308  1.7898 -0.1944
 4312TIP3    H234496   6.418   0.277   0.659  1.5938  0.3157 -1.3987
 4313TIP3   OH234497   5.804   1.534   1.466  0.3524  0.3987 -0.2482
 4313TIP3    H134498   5.862   1.568   1.535  0.7986 -0.3735 -0.2450
 4313TIP3    H234499   5.857   1.469   1.420 -0.7040 -0.7410  0.1290
 4314TIP3   OH234500   4.737   7.229   0.356 -0.0288 -0.2188  0.6646
 4314TIP3    H134501   4.800   7.173   0.312 -0.0056 -2.0239  2.9346
 4314TIP3    H234502   4.656   7.218   0.306  0.5384 -0.5181 -0.2057
 4315TIP3   OH234503   4.375   1.748   1.763  0.1959  0.6336  0.1916
 4315TIP3    H134504   4.303   1.708   1.812  0.3105  3.2355  2.6467
 4315TIP3    H234505   4.428   1.674   1.733 -2.8746 -1.2654 -0.7187
 4316TIP3   OH234506   3.709   1.791   1.077 -0.7335  0.2609  0.4680
 4316TIP3    H134507   3.688   1.763   0.987 -0.3928  1.9708 -0.1588
 4316TIP3    H234508   3.650   1.864   1.094 -0.2471  0.4468  1.3589
 4317TIP3   OH234509   3.845   1.596   1.878 -0.4052 -0.0301  0.3108
 4317TIP3    H134510   3.916   1.571   1.818 -0.1750  0.1360  0.5107
 4317TIP3    H234511   3.821   1.514   1.921  1.1817  0.2858  1.8484
 4318TIP3   OH234512   5.189   6.233   8.355  0.3951 -0.7794  0.7639
 4318TIP3    H134513   5.276   6.194   8.358  0.6780 -0.3150 -0.9364
 4318TIP3    H234514   5.156   6.211   8.269 -1.9063 -2.4576  2.0304
 4319TIP3   OH234515   5.756   2.660   1.469 -0.1660  0.7548 -0.0370
 4319TIP3    H134516   5.789   2.572   1.451  1.9224  1.0983  1.8629
 4319TIP3    H234517   5.756   2.704   1.384 -1.2655 -1.0616 -1.0067
 4320TIP3   OH234518   3.166   6.474   2.215 -0.3546 -0.1560 -0.4420
 4320TIP3    H134519   3.174   6.485   2.120 -1.9340  0.3108 -0.5357
 4320TIP3    H234520   3.226   6.402   2.236  2.1215  1.5948 -1.3640
 4321TIP3   OH234521   4.223   0.276   0.606 -0.7058 -0.2869  0.9021
 4321TIP3    H134522   4.181   0.362   0.601 -2.2318 -0.9789  1.4297
 4321TIP3    H234523   4.312   0.294   0.636 -0.3388  1.2883 -1.0833
 4322TIP3   OH234524   1.881   6.503   6.892  0.1945 -0.3145  0.1600
 4322TIP3    H134525   1.909   6.546   6.973  0.1498 -0.7569  0.4069
 4322TIP3    H234526   1.800   6.457   6.915 -0.3073  0.2852 -0.3521
 4323TIP3   OH234527   5.293   5.641   1.332 -0.0918 -0.4688 -0.4550
 4323TIP3    H134528   5.273   5.571   1.270 -0.4587 -3.4857  2.9090
 4323TIP3    H234529   5.208   5.680   1.352 -0.0470  0.1116 -1.3861
 4324TIP3   OH234530   0.216   2.072   1.981  0.2714 -0.5180 -0.7888
 4324TIP3    H134531   0.248   2.130   2.049 -2.2115 -0.9659  0.8145
 4324TIP3    H234532   0.181   2.131   1.914 -0.7912 -0.1140  0.1058
 4325TIP3   OH234533   2.553   0.605   7.868 -0.4827 -0.6974 -0.1434
 4325TIP3    H134534   2.599   0.521   7.871  1.9086  0.6094  1.1026
 4325TIP3    H234535   2.471   0.589   7.915 -0.8108 -2.7390 -1.3266
 4326TIP3   OH234536   3.544   7.222   6.308 -0.3711 -0.0186 -0.1575
 4326TIP3    H134537   3.548   7.129   6.327  0.3599 -0.0391 -0.3936
 4326TIP3    H234538   3.593   7.232   6.226  1.7469  0.9355  1.1934
 4327TIP3   OH234539   5.394   6.266   7.029  0.2004  0.1715 -0.0668
 4327TIP3    H134540   5.469   6.247   6.973 -0.1848  0.1835 -0.5893
 4327TIP3    H234541   5.362   6.351   6.999  1.1365  1.0884  1.4184
 4328TIP3   OH234542   6.955   6.941   1.041 -0.1554  0.3353  0.8974
 4328TIP3    H134543   6.918   6.871   0.987 -1.2108  0.8601  0.9379
 4328TIP3    H234544   7.005   6.994   0.979 -0.9392  0.6441  0.5226
 4329TIP3   OH234545   2.994   1.645   2.448 -0.5999 -0.1338  0.3467
 4329TIP3    H134546   3.038   1.683   2.525  1.2812 -0.2451 -0.6596
 4329TIP3    H234547   2.901   1.667   2.461 -0.3904 -0.5550  2.8848
 4330TIP3   OH234548   5.022   1.558   2.082  0.3125 -0.1315 -0.5132
 4330TIP3    H134549   5.111   1.592   2.067  0.3426 -0.2467 -0.6036
 4330TIP3    H234550   4.982   1.557   1.995 -0.1577  0.9679 -0.3166
 4331TIP3   OH234551   3.336   0.132   8.291 -0.1769 -0.4823 -0.2528
 4331TIP3    H134552   3.404   0.076   8.253  0.4699  0.3681 -0.3738
 4331TIP3    H234553   3.257   0.078   8.289  0.3385 -1.2387 -0.7605
 4332TIP3   OH234554   2.325   1.014   1.841  0.4525 -0.8822  0.3847
 4332TIP3    H134555   2.238   1.005   1.802  0.3852 -1.0294  0.5674
 4332TIP3    H234556   2.325   0.951   1.914  0.1628  0.2259  1.3580
 4333TIP3   OH234557   0.284   6.953   7.695 -0.5190 -0.0293  0.1071
 4333TIP3    H134558   0.271   6.858   7.707 -1.4736 -0.1698 -1.9538
 4333TIP3    H234559   0.327   6.981   7.776  2.3907 -2.7351 -0.3835
 4334TIP3   OH234560   5.674   2.134   1.929 -0.4006 -0.1302  0.5074
 4334TIP3    H134561   5.753   2.086   1.953 -0.4819 -0.7775 -0.4857
 4334TIP3    H234562   5.632   2.156   2.012  1.3995  1.2106  1.0791
 4335TIP3   OH234563   3.435   6.758   0.464 -0.5151 -0.0833  0.3492
 4335TIP3    H134564   3.516   6.742   0.513 -0.0737  0.8930 -0.0498
 4335TIP3    H234565   3.419   6.676   0.418 -0.7786 -0.9214  1.8973
 4336TIP3   OH234566   6.268   0.228   1.267 -0.6798  0.0976  0.2382
 4336TIP3    H134567   6.268   0.134   1.283 -0.2138  0.2093  0.9008
 4336TIP3    H234568   6.182   0.257   1.295 -1.5822 -0.4503 -1.8918
 4337TIP3   OH234569   1.178   1.205   0.529  0.7845  0.1240  0.2101
 4337TIP3    H134570   1.254   1.262   0.515  0.1708  0.7946 -0.4315
 4337TIP3    H234571   1.181   1.143   0.456 -0.2072  1.1816 -0.7477
 4338TIP3   OH234572   0.977   0.095   0.988  0.5278 -0.0826  0.5271
 4338TIP3    H134573   0.900   0.039   0.989 -0.4634  1.2458 -0.6248
 4338TIP3    H234574   0.957   0.165   1.050  0.8741  0.1909  0.3339
 4339TIP3   OH234575   0.071   2.280   7.780  0.6012  0.1153 -0.2287
 4339TIP3    H134576   0.086   2.373   7.792 -0.2408  0.4386 -1.5751
 4339TIP3    H234577   0.074   2.267   7.685  0.9518 -1.2691 -0.0467
 4340TIP3   OH234578   6.970   0.119   0.682  0.0654 -0.0133  0.1101
 4340TIP3    H134579   6.961   0.033   0.642 -0.5808 -0.4356  1.1501
 4340TIP3    H234580   7.021   0.170   0.618 -1.7066 -0.3960 -1.6640
 4341TIP3   OH234581   5.567   0.479   7.742 -0.1909 -0.4106 -0.2852
 4341TIP3    H134582   5.509   0.523   7.680 -1.5290 -0.8900  0.5976
 4341TIP3    H234583   5.605   0.550   7.794  0.0383 -0.0878 -0.8971
 4342TIP3   OH234584   0.183   2.003   0.820 -0.1315 -0.1641  0.5802
 4342TIP3    H134585   0.231   1.922   0.802 -1.4080 -0.8736  0.2705
 4342TIP3    H234586   0.105   1.997   0.764 -2.2435 -0.5814  3.4460
 4343TIP3   OH234587   3.976   0.276   0.808  0.1326  0.6178 -0.2826
 4343TIP3    H134588   3.997   0.354   0.756  1.3069  0.1693 -0.4869
 4343TIP3    H234589   3.964   0.207   0.744 -0.5849  0.5402 -0.0767
 4344TIP3   OH234590   1.211   7.167   2.219  0.2105  0.5022 -0.2218
 4344TIP3    H134591   1.207   7.232   2.288  1.1685  0.4126 -0.0640
 4344TIP3    H234592   1.133   7.183   2.165 -2.1612 -1.3670  2.5498
 4345TIP3   OH234593   0.284   3.377   0.071 -0.8782  0.7890 -0.6008
 4345TIP3    H134594   0.340   3.309   0.108 -2.6663  0.1561  1.0152
 4345TIP3    H234595   0.319   3.391  -0.017 -0.3336 -2.0668 -0.8945
 4346TIP3   OH234596   2.669   1.841   2.095  0.8609 -0.1649 -0.4799
 4346TIP3    H134597   2.749   1.888   2.120  1.1955  0.0450 -1.9126
 4346TIP3    H234598   2.653   1.866   2.004  0.3109 -1.7876 -0.8567
 4347TIP3   OH234599   2.818   5.570   6.352  0.2502  0.1306  0.0748
 4347TIP3    H134600   2.861   5.608   6.275 -0.1229  0.2463 -0.0789
 4347TIP3    H234601   2.789   5.645   6.403  0.6472  0.0546  0.4168
 4348TIP3   OH234602   0.050   1.506   8.050  0.0072 -0.4463 -0.0522
 4348TIP3    H134603  -0.002   1.459   8.115  0.7703 -1.8272 -0.4310
 4348TIP3    H234604   0.117   1.443   8.022  0.8440  0.7556 -0.7990
 4349TIP3   OH234605   6.721   1.393   1.239 -0.1519  0.6510  0.0042
 4349TIP3    H134606   6.745   1.411   1.148 -1.9725 -2.2349 -1.1185
 4349TIP3    H234607   6.755   1.305   1.256  0.0321  1.1005  2.0779
 4350TIP3   OH234608   3.248   6.475   1.952 -0.0318 -0.3172 -0.0494
 4350TIP3    H134609   3.300   6.552   1.927 -0.0010  0.0796  1.1620
 4350TIP3    H234610   3.310   6.403   1.952 -0.2219 -0.4979 -1.9399
 4351TIP3   OH234611   6.944   6.201   8.414  0.0586  0.0993 -0.3956
 4351TIP3    H134612   6.921   6.205   8.506 -2.3237  1.7511 -1.0109
 4351TIP3    H234613   6.979   6.288   8.395  1.3910 -0.5258 -0.8520
 4352TIP3   OH234614   5.776   0.829   0.147  0.0465 -0.2405  0.7316
 4352TIP3    H134615   5.721   0.777   0.087 -1.6701  1.1672  1.0286
 4352TIP3    H234616   5.803   0.767   0.214  2.6118 -2.0479 -1.8302
 4353TIP3   OH234617   2.181   6.001   7.957  0.8208 -0.5047  0.7216
 4353TIP3    H134618   2.215   5.914   7.975 -0.0320 -0.5984  1.9760
 4353TIP3    H234619   2.175   6.006   7.862  0.5810 -1.9261  0.6577
 4354TIP3   OH234620   2.351   0.201   2.110 -0.7092 -0.2512 -0.5112
 4354TIP3    H134621   2.360   0.115   2.151  0.8733  0.2043  0.1306
 4354TIP3    H234622   2.274   0.240   2.152  0.7290  0.1074  1.8646
 4355TIP3   OH234623   7.115   6.155   1.519  0.4646  0.8906  0.3342
 4355TIP3    H134624   7.189   6.164   1.580 -0.2461 -0.4751  1.4243
 4355TIP3    H234625   7.148   6.096   1.451  0.3336  0.1138  0.9285
 4356TIP3   OH234626   5.112   1.711   1.372  0.3700 -0.3324  0.7577
 4356TIP3    H134627   5.083   1.762   1.448  1.0117  0.6124  0.3842
 4356TIP3    H234628   5.144   1.777   1.310 -1.6438 -0.9566 -1.0025
 4357TIP3   OH234629   7.159   0.952   2.044  0.2363  0.2652 -0.0841
 4357TIP3    H134630   7.116   0.944   2.129 -1.7770  0.7349 -1.0388
 4357TIP3    H234631   7.181   0.862   2.020  0.2575  0.0687  0.6448
 4358TIP3   OH234632   6.717   5.866   0.375  0.1006 -0.0345  0.1644
 4358TIP3    H134633   6.631   5.905   0.363  0.4860  1.4665  1.9873
 4358TIP3    H234634   6.756   5.866   0.288 -0.5413  2.1935 -0.1600
 4359TIP3   OH234635   0.128   3.793   1.175  0.3592 -0.3084  0.6799
 4359TIP3    H134636   0.197   3.816   1.237  1.1820 -0.7186 -0.0745
 4359TIP3    H234637   0.121   3.869   1.118  0.1420 -0.2443  0.7904
 4360TIP3   OH234638   0.797   6.259   6.837 -0.4471  0.3279  0.7763
 4360TIP3    H134639   0.832   6.330   6.784  1.4594 -1.8793 -1.0545
 4360TIP3    H234640   0.875   6.221   6.879 -1.0583 -2.2557 -0.3228
 4361TIP3   OH234641   1.407   0.432   2.028 -0.6419  0.8458  0.2603
 4361TIP3    H134642   1.361   0.513   2.048 -1.0595  0.8991 -0.8784
 4361TIP3    H234643   1.403   0.425   1.933  0.3230  0.0333  0.2773
 4362TIP3   OH234644   6.995   6.485   6.953  0.0607 -0.0244  0.0133
 4362TIP3    H134645   7.040   6.569   6.945  0.4024 -0.3538 -1.7279
 4362TIP3    H234646   6.917   6.494   6.899 -0.6378 -0.3595  0.9506
 4363TIP3   OH234647   5.743   7.236   7.115 -0.1629 -0.0865 -0.0171
 4363TIP3    H134648   5.782   7.297   7.179 -0.6492 -1.4143  1.5825
 4363TIP3    H234649   5.807   7.166   7.107 -1.0640 -0.9914  0.6529
 4364TIP3   OH234650   2.471   1.471   6.648  0.7628  0.2839 -0.6520
 4364TIP3    H134651   2.470   1.444   6.740 -1.2391 -0.8977 -0.9844
 4364TIP3    H234652   2.514   1.399   6.602  0.7420  0.3520 -0.7777
 4365TIP3   OH234653   4.807   1.207   8.210 -0.1138 -0.5792  0.4591
 4365TIP3    H134654   4.835   1.195   8.300  0.1774 -0.1960  0.4245
 4365TIP3    H234655   4.884   1.244   8.166 -0.1399 -1.0944 -0.0251
 4366TIP3   OH234656   5.173   6.299   1.842 -0.1137  0.4351 -0.1363
 4366TIP3    H134657   5.098   6.355   1.820 -0.0002  0.6995  0.1544
 4366TIP3    H234658   5.189   6.316   1.934 -1.0371 -1.1890  0.3596
 4367TIP3   OH234659   7.215   0.755   0.849 -0.5204  0.0105 -0.2760
 4367TIP3    H134660   7.164   0.830   0.817 -0.7355 -0.1709 -0.3625
 4367TIP3    H234661   7.151   0.684   0.854 -0.2374 -0.2614 -0.5508
 4368TIP3   OH234662   6.798   0.390   1.602  0.2006 -0.1679  0.0469
 4368TIP3    H134663   6.754   0.312   1.567 -0.6438  0.6169 -0.6650
 4368TIP3    H234664   6.798   0.377   1.697  2.7752 -2.4663 -0.2185
 4369TIP3   OH234665   6.894   0.034   8.407  0.7225  0.7710  0.1933
 4369TIP3    H134666   6.966   0.095   8.392 -0.7504  2.8123  1.1217
 4369TIP3    H234667   6.936  -0.047   8.437  2.7968  0.8505 -2.3799
 4370TIP3   OH234668   0.466   1.478   1.808  0.5938 -0.2223  0.0133
 4370TIP3    H134669   0.528   1.405   1.817 -0.6730 -1.4982 -1.3544
 4370TIP3    H234670   0.427   1.487   1.894  2.9890  0.9114  1.0398
 4371TIP3   OH234671   0.613   0.296   0.054  0.1917  0.2681  0.6326
 4371TIP3    H134672   0.523   0.327   0.042 -0.0042 -0.8830 -1.0588
 4371TIP3    H234673   0.618   0.271   0.146 -0.4330  2.7319  1.3882
 4372TIP3   OH234674   6.167   0.880   7.080  0.1045 -0.5626 -0.1016
 4372TIP3    H134675   6.129   0.899   7.166  3.5050 -0.6739  1.5231
 4372TIP3    H234676   6.097   0.897   7.018 -1.8095  1.6106  2.5542
 4373TIP3   OH234677   5.972   6.997   0.544  0.3200 -0.8799 -0.3574
 4373TIP3    H134678   6.018   6.917   0.519  0.6497 -0.8413  0.1132
 4373TIP3    H234679   6.041   7.064   0.549  0.0516 -0.5672 -0.7351
 4374TIP3   OH234680   0.335   1.850   0.551  0.3826  0.4586 -0.1880
 4374TIP3    H134681   0.340   1.832   0.645  0.0093 -1.2579 -0.4857
 4374TIP3    H234682   0.377   1.775   0.509 -1.1153  0.2829 -1.4579
 4375TIP3   OH234683   0.031   0.980   1.640 -0.0509  0.0942 -0.0314
 4375TIP3    H134684  -0.011   0.984   1.554  0.9093  0.5296 -0.4906
 4375TIP3    H234685  -0.023   0.921   1.691 -0.3037 -0.6286 -1.1272
 4376TIP3   OH234686   1.065   1.400   0.311  0.9307  0.6010  0.3740
 4376TIP3    H134687   1.098   1.343   0.381  0.4384 -1.4425 -1.0004
 4376TIP3    H234688   1.128   1.390   0.240  0.7835  1.7249  0.0761
 4377TIP3   OH234689   4.933   0.166   0.988 -0.3207 -0.2383  0.1354
 4377TIP3    H134690   4.987   0.100   1.030 -1.3563 -0.0915  1.7106
 4377TIP3    H234691   4.854   0.170   1.041 -0.2336  2.3310  0.1353
 4378TIP3   OH234692   5.532   2.006   1.743  0.2611 -1.0330 -0.0243
 4378TIP3    H134693   5.564   1.923   1.777  2.8773 -0.0890 -0.0206
 4378TIP3    H234694   5.570   2.072   1.801 -0.1971  0.2501 -1.1465
 4379TIP3   OH234695   6.364   6.921   2.124 -0.1293  0.1434 -0.4932
 4379TIP3    H134696   6.389   6.829   2.128 -2.4304 -0.5711 -1.3421
 4379TIP3    H234697   6.439   6.969   2.158  1.1000 -2.0518 -0.0689
 4380TIP3   OH234698   6.670   0.202   1.884 -0.5366 -0.1876 -0.1467
 4380TIP3    H134699   6.724   0.124   1.885 -0.0812  0.1107 -1.0480
 4380TIP3    H234700   6.581   0.170   1.901 -0.6900 -1.1976 -2.5418
 4381TIP3   OH234701   7.163   0.678   1.983  0.2908 -0.1570 -0.8358
 4381TIP3    H134702   7.071   0.652   1.992 -0.1540  1.5368 -0.2960
 4381TIP3    H234703   7.212   0.606   2.023 -0.8097 -0.9193 -0.8302
 4382TIP3   OH234704   1.281   4.837   8.144  0.4973 -0.2362 -0.3401
 4382TIP3    H134705   1.245   4.920   8.176  0.7953 -0.4037  0.4228
 4382TIP3    H234706   1.320   4.796   8.221  0.3726 -1.0768 -0.7175
 4383TIP3   OH234707   1.202   7.154   1.880 -0.3294 -0.1288  0.4597
 4383TIP3    H134708   1.162   7.160   1.793  0.3128 -1.2975  0.0712
 4383TIP3    H234709   1.181   7.066   1.910  0.1396 -0.0102  1.1492
 4384TIP3   OH234710   0.235   0.390   1.479  0.1699  0.0719  0.4183
 4384TIP3    H134711   0.292   0.459   1.514 -0.3394  0.5501  0.3170
 4384TIP3    H234712   0.210   0.422   1.393 -0.5670  0.0536  0.6217
 4385TIP3   OH234713   7.170   2.909   1.904 -0.5097  0.1104  0.0094
 4385TIP3    H134714   7.135   2.825   1.933 -1.3431 -0.5151 -2.6856
 4385TIP3    H234715   7.138   2.971   1.969 -3.9415 -0.9547 -0.5418
 4386TIP3   OH234716   1.705   6.672   2.127 -0.4857  0.2932  0.2980
 4386TIP3    H134717   1.696   6.728   2.050  0.1865 -0.2630 -0.1957
 4386TIP3    H234718   1.793   6.636   2.120  1.1276  3.2721  3.3932
 4387TIP3   OH234719   3.145   6.325   0.953  0.1378 -0.1656  0.2322
 4387TIP3    H134720   3.050   6.320   0.963  0.1326  0.4966  0.5700
 4387TIP3    H234721   3.179   6.248   1.000 -0.1110  0.7678  1.9956
 4388TIP3   OH234722   0.588   5.043   6.511  0.0531 -0.0115 -0.6959
 4388TIP3    H134723   0.537   4.965   6.490 -2.0000  0.6377  1.6014
 4388TIP3    H234724   0.541   5.114   6.469  0.8385  0.2213 -1.1822
 4389TIP3   OH234725   0.168   5.676   0.172 -0.2365 -0.3202  0.0339
 4389TIP3    H134726   0.221   5.610   0.127  0.0439  0.3492 -0.6362
 4389TIP3    H234727   0.093   5.628   0.207 -0.5214 -0.8256 -1.2632
 4390TIP3   OH234728   0.549   1.723   0.008  0.5886 -0.1008  0.3997
 4390TIP3    H134729   0.520   1.768   0.088  0.1499  0.5992 -0.1419
 4390TIP3    H234730   0.641   1.703   0.024  0.7521  0.8569  0.7315
 4391TIP3   OH234731   5.150   7.296   7.492 -0.0667 -0.1086 -0.0494
 4391TIP3    H134732   5.161   7.228   7.426 -2.9771  0.1761 -0.9069
 4391TIP3    H234733   5.074   7.268   7.543  0.8679  0.7282  1.8746
 4392TIP3   OH234734   2.762   0.092   7.484  0.2466 -0.0207 -0.0858
 4392TIP3    H134735   2.849   0.129   7.496 -0.5461  1.2595  2.0695
 4392TIP3    H234736   2.756   0.022   7.549 -0.9547  1.1079  1.0581
 4393TIP3   OH234737   0.685   5.331   1.220 -0.3214  0.0901  0.3734
 4393TIP3    H134738   0.736   5.341   1.300  0.1912 -2.9939  0.4684
 4393TIP3    H234739   0.595   5.349   1.246 -0.0388 -0.0829  1.4603
 4394TIP3   OH234740   5.772   4.083   1.828 -0.5945  0.0371  0.0064
 4394TIP3    H134741   5.696   4.045   1.873  0.4871 -1.7286  0.3696
 4394TIP3    H234742   5.751   4.074   1.735 -0.9056 -0.2616  0.1059
 4395TIP3   OH234743   5.174   1.550   7.717 -1.0355 -0.4445 -0.0760
 4395TIP3    H134744   5.186   1.598   7.799 -1.7671  1.6425 -1.1458
 4395TIP3    H234745   5.261   1.514   7.698 -0.2935  0.9882  0.4627
 4396TIP3   OH234746   1.612   6.696   1.724  0.0929  0.0429  0.0769
 4396TIP3    H134747   1.645   6.779   1.756 -0.1327  0.2846 -0.3152
 4396TIP3    H234748   1.611   6.639   1.801  1.7236 -0.0706  0.0438
 4397TIP3   OH234749   5.123   6.206   1.381  0.0533 -0.1839 -0.0708
 4397TIP3    H134750   5.202   6.207   1.326  0.1057  0.2997  0.0116
 4397TIP3    H234751   5.052   6.187   1.320  0.0829  0.5787 -0.3506
 4398TIP3   OH234752   6.827   2.595   1.265 -0.0889 -0.1877  0.2806
 4398TIP3    H134753   6.741   2.583   1.227  0.1174  1.2529 -0.6578
 4398TIP3    H234754   6.827   2.539   1.343 -1.2908 -1.4205 -0.5952
 4399TIP3   OH234755   0.199   1.043   8.196  0.2190 -0.4692 -0.0961
 4399TIP3    H134756   0.118   1.000   8.223 -0.9569  0.9639 -1.3258
 4399TIP3    H234757   0.268   0.989   8.235 -1.2771 -2.3424  0.0503
 4400TIP3   OH234758   6.599   0.635   1.384 -0.1603  0.4267 -0.0066
 4400TIP3    H134759   6.559   0.549   1.366 -1.0596  0.2939  2.4864
 4400TIP3    H234760   6.525   0.695   1.388  0.4299  1.2384 -1.2086
 4401TIP3   OH234761   5.592   7.096   7.480 -1.2734  0.0406  0.3464
 4401TIP3    H134762   5.686   7.108   7.471 -1.5814  1.5237 -1.2806
 4401TIP3    H234763   5.568   7.143   7.560 -0.4371 -1.6203  1.5973
 4402TIP3   OH234764   1.142   0.352   2.235  0.2504 -0.0488 -0.2584
 4402TIP3    H134765   1.209   0.298   2.279  0.7945 -0.7353 -1.9106
 4402TIP3    H234766   1.184   0.437   2.223  0.6869 -0.3615 -0.9444
 4403TIP3   OH234767   4.863   0.987   0.191  0.1120 -0.5452  0.5457
 4403TIP3    H134768   4.793   1.001   0.254 -0.4454  0.0292 -0.1964
 4403TIP3    H234769   4.935   0.949   0.243 -0.0099  0.7673  1.6999
 4404TIP3   OH234770   6.778   7.247   0.953  1.0646  0.1811 -0.2924
 4404TIP3    H134771   6.716   7.252   1.027  0.0330 -3.2675 -0.8611
 4404TIP3    H234772   6.737   7.301   0.885  0.4965  0.8946  0.5994
 4405TIP3   OH234773   5.192   6.847   0.369  0.4732  0.2030  0.0841
 4405TIP3    H134774   5.264   6.795   0.407 -0.4001 -1.3409 -0.3202
 4405TIP3    H234775   5.202   6.835   0.275 -0.8727 -0.8045  0.0562
 4406TIP3   OH234776   5.426   1.203   1.583  0.1135  0.0534  0.2120
 4406TIP3    H134777   5.461   1.287   1.612  0.2753  0.5319 -1.3328
 4406TIP3    H234778   5.400   1.159   1.664  0.1997  1.5036  1.0466
 4407TIP3   OH234779   4.930   1.475   1.809  0.2134 -0.2167  0.6931
 4407TIP3    H134780   4.982   1.458   1.731  1.9697  0.3181  1.7109
 4407TIP3    H234781   4.881   1.555   1.789 -1.0997 -1.3251 -0.6813
 4408TIP3   OH234782   0.261   0.242   6.590  0.5824  0.1849 -0.0017
 4408TIP3    H134783   0.356   0.231   6.580  0.7190  0.2123  1.2259
 4408TIP3    H234784   0.245   0.230   6.683 -0.8972 -1.8045 -0.4933
 4409TIP3   OH234785   1.872   5.555   7.407  0.0830  0.3183 -0.2336
 4409TIP3    H134786   1.788   5.601   7.405  0.6145  1.3630  1.1182
 4409TIP3    H234787   1.938   5.624   7.402  0.8896 -0.2302  1.9287
 4410TIP3   OH234788   6.958   6.918   1.626  0.0109  0.1635 -0.1738
 4410TIP3    H134789   6.993   6.991   1.676  0.6402  0.2716 -0.7729
 4410TIP3    H234790   6.989   6.840   1.671  0.8874  0.2591 -0.6045
 4411TIP3   OH234791   1.247   1.552   1.049  0.2934  0.1771 -0.0209
 4411TIP3    H134792   1.231   1.458   1.058  1.4448 -0.0741 -0.5941
 4411TIP3    H234793   1.246   1.585   1.139 -0.2407 -0.3524  0.1761
 4412TIP3   OH234794   1.898   2.633   1.807 -0.2720  0.0513 -0.7236
 4412TIP3    H134795   1.887   2.637   1.902 -1.8487  1.3693 -0.9573
 4412TIP3    H234796   1.962   2.701   1.788 -0.8517  0.5890 -0.7447
 4413TIP3   OH234797   0.645   3.522   0.588 -0.2466  0.4186 -0.3083
 4413TIP3    H134798   0.580   3.555   0.651 -0.1496 -1.0945  0.6253
 4413TIP3    H234799   0.654   3.592   0.523 -3.0239  0.5569 -0.6113
 4414TIP3   OH234800   3.338   2.857   1.405  0.0098 -0.5032  0.7418
 4414TIP3    H134801   3.329   2.772   1.447  0.8042 -0.3060  1.3189
 4414TIP3    H234802   3.248   2.888   1.394 -0.2316 -0.9078  1.5708
 4415TIP3   OH234803   5.314   5.060   1.858 -1.3589  0.8293 -0.4483
 4415TIP3    H134804   5.303   4.973   1.896  0.6034  0.8548  0.2274
 4415TIP3    H234805   5.325   5.118   1.933  0.4242  1.1893 -0.9558
 4416TIP3   OH234806   0.564   2.534   7.925 -0.5288  0.3530  0.3431
 4416TIP3    H134807   0.632   2.474   7.956  0.0469  1.0861  0.5209
 4416TIP3    H234808   0.493   2.524   7.989 -1.0291 -1.1978 -0.4400
 4417TIP3   OH234809   6.303   2.638   1.477 -0.0320 -0.7377 -0.0709
 4417TIP3    H134810   6.294   2.733   1.486 -0.5487 -0.8646  0.8684
 4417TIP3    H234811   6.367   2.613   1.544  0.0434 -1.0567 -0.2607
 4418TIP3   OH234812   6.470   2.355   1.496 -0.2041 -0.1373 -0.2042
 4418TIP3    H134813   6.409   2.299   1.543 -0.7384  0.1367 -0.5582
 4418TIP3    H234814   6.547   2.361   1.553 -1.0272  0.5850  0.8689
 4419TIP3   OH234815   0.156   0.186   1.666  0.6516 -0.0339  0.5281
 4419TIP3    H134816   0.144   0.108   1.613  2.1475 -0.0224  0.1426
 4419TIP3    H234817   0.182   0.254   1.603 -0.9794  0.8623  0.8088
 4420TIP3   OH234818   0.016   6.235   1.928  0.5967 -0.4871 -0.7538
 4420TIP3    H134819  -0.031   6.230   2.011  1.8010  0.8049  0.0367
 4420TIP3    H234820   0.049   6.147   1.913 -0.1071 -0.8575 -0.1368
 4421TIP3   OH234821   5.111   0.577   0.376 -0.2359  0.1719  0.2064
 4421TIP3    H134822   5.124   0.626   0.457 -2.9831 -0.5169  1.1408
 4421TIP3    H234823   5.119   0.642   0.306 -0.8998  1.3915  1.2500
 4422TIP3   OH234824   5.545   6.589   0.124  0.0833  0.3171  0.2711
 4422TIP3    H134825   5.553   6.674   0.167  1.8688 -0.0965  0.7927
 4422TIP3    H234826   5.635   6.566   0.099 -0.3560 -1.5080  0.3123
 4423TIP3   OH234827   0.152   7.171   7.231  0.0959 -0.7032  0.5600
 4423TIP3    H134828   0.233   7.179   7.282 -0.2319 -1.6062  1.2117
 4423TIP3    H234829   0.092   7.232   7.273  0.1456 -0.7062  0.6364
 4424TIP3   OH234830   6.177   7.191   0.544  0.3184  0.6490  0.1627
 4424TIP3    H134831   6.189   7.142   0.462 -0.7130  1.2864 -0.3845
 4424TIP3    H234832   6.238   7.150   0.605 -0.9637 -1.7528 -0.0897
 4425TIP3   OH234833   3.742   5.853   7.022 -0.4384  0.0227 -0.0228
 4425TIP3    H134834   3.731   5.796   6.946 -0.1979 -0.1126  0.0441
 4425TIP3    H234835   3.656   5.851   7.065 -0.1902 -0.9474  0.4370
 4426TIP3   OH234836   6.780   0.672   7.600  0.6629  0.5882  0.3486
 4426TIP3    H134837   6.734   0.740   7.551 -0.6653 -0.3385  0.2802
 4426TIP3    H234838   6.844   0.637   7.537 -1.3842 -0.9523 -0.9652
 4427TIP3   OH234839   5.739   3.893   6.924 -0.0772  0.4808 -0.1456
 4427TIP3    H134840   5.797   3.969   6.933 -1.2712  1.5243 -1.0033
 4427TIP3    H234841   5.780   3.839   6.858  0.2284  0.9162 -0.3168
 4428TIP3   OH234842   0.019   1.132   2.452 -0.1067  0.2817  0.2650
 4428TIP3    H134843   0.105   1.127   2.410  0.6525 -0.1231  1.8284
 4428TIP3    H234844   0.005   1.225   2.467 -0.4950  0.4495 -1.0968
 4429TIP3   OH234845   5.755   0.262   0.519  0.9965 -0.3404 -0.4790
 4429TIP3    H134846   5.728   0.318   0.447  1.9531 -0.4495 -0.9260
 4429TIP3    H234847   5.800   0.188   0.477 -0.4082 -1.5447  0.0900
 4430TIP3   OH234848   0.547   1.555   7.521 -0.4229 -0.5518  0.0037
 4430TIP3    H134849   0.630   1.509   7.529 -0.5670 -1.2070 -1.9278
 4430TIP3    H234850   0.503   1.540   7.605  1.4293 -0.0761  1.1042
 4431TIP3   OH234851   1.627   0.557   0.038  0.2531  0.1970 -0.1597
 4431TIP3    H134852   1.628   0.559   0.134  1.4288 -2.1916 -0.0938
 4431TIP3    H234853   1.535   0.562   0.015 -0.0627  0.3352  1.0907
 4432TIP3   OH234854   6.396   1.073   1.388 -0.4152 -0.8166 -0.1771
 4432TIP3    H134855   6.304   1.065   1.414 -0.6467 -0.7735 -0.9478
 4432TIP3    H234856   6.396   1.145   1.324  0.2835 -0.2718  0.4353
 4433TIP3   OH234857   6.434   7.164   1.398  0.6832  0.4144  0.1349
 4433TIP3    H134858   6.366   7.128   1.455 -0.0106  1.3372 -0.1071
 4433TIP3    H234859   6.392   7.172   1.312  1.0174  1.2344  0.0444
 4434TIP3   OH234860   5.066   5.251   1.832  0.4408 -0.6685  0.3933
 4434TIP3    H134861   5.033   5.213   1.913  1.1284  1.0546  1.5027
 4434TIP3    H234862   5.143   5.199   1.810 -0.1114 -1.5339  0.4896
 4435TIP3   OH234863   0.587   0.365   7.972  0.1824  0.4498 -0.0642
 4435TIP3    H134864   0.516   0.419   8.007  0.4486  2.3807 -2.3702
 4435TIP3    H234865   0.561   0.347   7.882  2.1607  0.3707 -0.6503
 4436TIP3   OH234866   0.043   2.788   7.514  0.3018 -0.2861  0.1959
 4436TIP3    H134867   0.028   2.796   7.609 -0.8788  1.2754 -0.1069
 4436TIP3    H234868  -0.021   2.723   7.485 -0.1208  0.0950  0.2772
 4437TIP3   OH234869   3.102   0.890   1.850  0.0043  0.3233  0.0983
 4437TIP3    H134870   3.103   0.971   1.902 -0.8297  0.3876  0.0191
 4437TIP3    H234871   3.016   0.852   1.867  0.1267 -0.1922 -0.4254
 4438TIP3   OH234872   0.840   3.205   1.459  0.3331  0.3948  0.0566
 4438TIP3    H134873   0.794   3.279   1.420 -0.1913 -0.5714 -1.1808
 4438TIP3    H234874   0.772   3.154   1.503  0.4402 -0.2121 -0.4704
 4439TIP3   OH234875   3.869   7.251   1.039  0.1886  0.1464 -0.6940
 4439TIP3    H134876   3.936   7.250   1.107 -0.2528 -0.2297 -0.2634
 4439TIP3    H234877   3.796   7.300   1.078  0.4064  1.0145 -1.3485
 4440TIP3   OH234878   6.989   3.274   6.547 -0.5640 -0.3281 -0.4696
 4440TIP3    H134879   7.069   3.325   6.534 -0.3867 -0.5331 -0.1883
 4440TIP3    H234880   6.924   3.315   6.489 -0.3405  0.0281 -0.4674
 4441TIP3   OH234881   5.784   5.939   1.664 -0.4917  0.2908  0.2836
 4441TIP3    H134882   5.850   5.890   1.714 -2.8492 -1.3375  1.9061
 4441TIP3    H234883   5.831   6.016   1.632  2.1438 -0.7113  1.5858
 4442TIP3   OH234884   6.374   0.260   1.860  0.1341 -0.2078  0.2410
 4442TIP3    H134885   6.353   0.340   1.908  0.6466 -0.9274  1.6827
 4442TIP3    H234886   6.393   0.195   1.927 -1.7528 -1.9844 -0.8547
 4443TIP3   OH234887   6.094   0.734   7.543 -0.2018  0.1527  0.4217
 4443TIP3    H134888   6.038   0.657   7.541 -2.9200  2.1149 -2.5272
 4443TIP3    H234889   6.069   0.779   7.624 -1.6053  0.0945  0.0324
 4444TIP3   OH234890   6.456   0.453   7.308  0.0528 -0.4281  0.0818
 4444TIP3    H134891   6.545   0.475   7.282 -0.5177  0.1730 -1.4028
 4444TIP3    H234892   6.450   0.358   7.295  0.7001 -0.5780  0.8776
 4445TIP3   OH234893   2.657   6.416   6.038  0.0598  0.0887 -0.3731
 4445TIP3    H134894   2.614   6.333   6.056  1.3054 -0.1097  1.8021
 4445TIP3    H234895   2.613   6.479   6.096  0.1491  0.6465 -0.9005
 4446TIP3   OH234896   6.703   0.223   7.129 -0.2368  0.5636  0.6611
 4446TIP3    H134897   6.725   0.161   7.199  2.0889  1.0638  0.3941
 4446TIP3    H234898   6.695   0.307   7.173 -1.6843  0.3837  0.7584
 4447TIP3   OH234899   4.656   6.407   1.541  0.2020 -0.0549 -0.7642
 4447TIP3    H134900   4.688   6.497   1.530 -0.0370 -0.1146 -1.9271
 4447TIP3    H234901   4.623   6.382   1.455  0.6864 -1.4230 -0.5635
 4448TIP3   OH234902   3.870   5.015   8.464  0.2251 -0.0050 -0.1912
 4448TIP3    H134903   3.812   5.037   8.391  0.7874 -0.6932 -0.8616
 4448TIP3    H234904   3.920   5.095   8.481 -0.9563  0.6075  0.4317
 4449TIP3   OH234905   6.994   1.691   1.793  0.3941 -0.3794  0.1604
 4449TIP3    H134906   6.971   1.599   1.805  1.3017 -0.7610 -0.9302
 4449TIP3    H234907   6.972   1.733   1.877 -1.2373 -1.3293  0.2255
 4450TIP3   OH234908   5.941   0.922   1.254  0.1927  0.0540  0.0392
 4450TIP3    H134909   6.027   0.963   1.265 -0.1512  0.9049 -0.4228
 4450TIP3    H234910   5.895   0.979   1.192 -0.8846 -0.1358  0.6595
 4451TIP3   OH234911   0.709   1.353   1.365  0.5405 -0.2892 -0.6265
 4451TIP3    H134912   0.700   1.301   1.285 -1.8260  0.7304 -1.0429
 4451TIP3    H234913   0.626   1.342   1.411  1.9433 -1.0843  1.8774
 4452TIP3   OH234914   6.891   2.865   6.838 -0.2819  0.0933  0.7697
 4452TIP3    H134915   6.906   2.928   6.768  2.4942 -0.6732  0.6187
 4452TIP3    H234916   6.805   2.827   6.818 -0.9371  2.1220 -0.4267
 4453TIP3   OH234917   1.565   0.335   1.175 -0.5517 -0.1030 -0.3791
 4453TIP3    H134918   1.559   0.241   1.195 -0.6353  0.1094  0.6299
 4453TIP3    H234919   1.652   0.360   1.207 -0.6820  0.2421 -0.2972
 4454TIP3   OH234920   6.582   0.348   8.223  0.2672 -0.1909 -0.6892
 4454TIP3    H134921   6.506   0.351   8.165  0.3570  2.4878 -0.7507
 4454TIP3    H234922   6.649   0.299   8.174 -1.4130 -2.6563 -0.5848
 4455TIP3   OH234923   1.317   0.497   8.155  0.4045  0.6691 -0.4099
 4455TIP3    H134924   1.323   0.587   8.123  0.1564  0.6135 -0.6179
 4455TIP3    H234925   1.391   0.452   8.114  0.1206  0.6126 -0.8634
 4456TIP3   OH234926   0.533   4.840   0.604  0.4855 -0.8666  0.0893
 4456TIP3    H134927   0.439   4.822   0.606  0.3478 -0.0811  2.2168
 4456TIP3    H234928   0.539   4.932   0.575  0.6422 -1.1188 -0.6902
 4457TIP3   OH234929   3.918   1.166   8.322  0.3214 -0.3947 -0.1348
 4457TIP3    H134930   4.014   1.168   8.320  0.3136 -0.2512 -0.4317
 4457TIP3    H234931   3.897   1.077   8.348  0.5338 -0.5157 -0.3717
 4458TIP3   OH234932   6.911   2.099   6.526  0.4111 -0.5374  0.4322
 4458TIP3    H134933   6.902   2.194   6.538 -0.9035 -0.3674 -1.5862
 4458TIP3    H234934   6.988   2.076   6.577  2.3699  2.0593 -1.1953
 4459TIP3   OH234935   5.620   5.610   7.578 -1.0027 -0.0428  0.4621
 4459TIP3    H134936   5.673   5.538   7.545  0.1831  0.6806  0.7580
 4459TIP3    H234937   5.656   5.688   7.536 -1.8216  0.4693  0.6884
 4460TIP3   OH234938   5.856   7.267   7.582  0.0119 -0.6585 -0.3951
 4460TIP3    H134939   5.775   7.290   7.628 -0.3142 -1.7113 -0.4195
 4460TIP3    H234940   5.923   7.265   7.650 -0.0986 -0.3522 -0.2788
 4461TIP3   OH234941   4.740   7.073   1.797  0.2993  0.5571  0.3991
 4461TIP3    H134942   4.655   7.072   1.752  1.0148  0.4959 -0.9854
 4461TIP3    H234943   4.718   7.069   1.890 -1.2161  0.5092  0.0533
 4462TIP3   OH234944   0.716   2.701   1.349  0.9651  0.8317  0.3447
 4462TIP3    H134945   0.744   2.793   1.350 -1.1889  1.5237 -0.2389
 4462TIP3    H234946   0.648   2.695   1.416  0.9319 -0.2734  0.2256
 4463TIP3   OH234947   6.401   5.059   1.848 -0.1709  0.1914 -0.0017
 4463TIP3    H134948   6.491   5.082   1.826 -0.1918 -1.2574 -1.6277
 4463TIP3    H234949   6.391   4.968   1.819 -2.6731  0.8773 -1.4486
 4464TIP3   OH234950   0.595   0.659   8.136 -0.7250 -0.4260  0.6162
 4464TIP3    H134951   0.570   0.727   8.199 -2.3597 -0.7380  0.3193
 4464TIP3    H234952   0.618   0.584   8.189 -1.2487 -0.4016  0.8829
 4465TIP3   OH234953   6.978   0.936   1.101  0.1393  0.1630 -0.4016
 4465TIP3    H134954   6.991   1.031   1.095 -0.1554  0.1610 -1.0369
 4465TIP3    H234955   6.905   0.927   1.162  0.0674  0.3511 -0.4566
 4466TIP3   OH234956   1.200   3.701   1.503  0.5716  0.7813 -0.6625
 4466TIP3    H134957   1.179   3.711   1.596  1.1126 -0.1316 -0.4349
 4466TIP3    H234958   1.294   3.683   1.502  0.5682  0.7977 -1.3879
 4467TIP3   OH234959   6.979   6.687   0.908  0.1452  0.1089  0.7207
 4467TIP3    H134960   6.926   6.622   0.955 -1.4148  0.3969 -0.5600
 4467TIP3    H234961   7.069   6.656   0.916 -0.5040 -1.8557  0.7171
 4468TIP3   OH234962   4.555   1.542   1.742 -0.5515 -0.8948 -0.0163
 4468TIP3    H134963   4.607   1.534   1.822  1.1044  0.2891 -0.9423
 4468TIP3    H234964   4.536   1.451   1.716  1.7738 -1.3883 -0.1038
 4469TIP3   OH234965   7.225   0.227   1.122 -0.1221  0.9142  0.0469
 4469TIP3    H134966   7.227   0.313   1.165  0.3174  0.0088  1.9052
 4469TIP3    H234967   7.174   0.172   1.182 -0.5524 -0.0848 -1.2221
 4470TIP3   OH234968   3.203   6.664   1.677 -0.3536  0.9280 -0.1401
 4470TIP3    H134969   3.170   6.723   1.610 -0.2976  0.8681 -0.2204
 4470TIP3    H234970   3.189   6.711   1.760  0.4357  1.4030 -0.2696
 4471TIP3   OH234971   0.996   0.299   1.213 -0.5650 -0.0750 -0.2239
 4471TIP3    H134972   0.922   0.238   1.219 -1.6130  1.2009  0.2392
 4471TIP3    H234973   0.977   0.365   1.280  1.1505  0.1250  0.0856
 4472TIP3   OH234974   1.269   6.748   1.704  0.4035 -0.5793  0.2077
 4472TIP3    H134975   1.228   6.732   1.619 -0.4569 -0.8512  0.6605
 4472TIP3    H234976   1.322   6.826   1.691  0.7405 -0.9531 -0.7288
 4473TIP3   OH234977   6.684   4.974   7.536 -0.0154  0.1201 -0.2624
 4473TIP3    H134978   6.690   5.024   7.454 -1.0833  1.4149  0.4229
 4473TIP3    H234979   6.758   5.005   7.589 -1.0784  1.5197  0.4349
 4474TIP3   OH234980   0.202   6.537   0.232  0.2636  0.2254  0.3676
 4474TIP3    H134981   0.264   6.570   0.296 -1.3058  2.1511  0.9538
 4474TIP3    H234982   0.174   6.614   0.183  1.5481 -1.2183 -2.7751
 4475TIP3   OH234983   5.755   0.188   6.970  0.3283 -0.1854 -0.4013
 4475TIP3    H134984   5.741   0.095   6.989 -0.4169 -0.0706 -0.3697
 4475TIP3    H234985   5.691   0.208   6.903  0.6826  0.2402 -0.6108
 4476TIP3   OH234986   6.696   5.427   1.370  0.1924  0.3417  0.4023
 4476TIP3    H134987   6.727   5.503   1.419 -0.2282  1.3146 -0.7970
 4476TIP3    H234988   6.733   5.351   1.415  2.9641  1.3760 -0.0266
 4477TIP3   OH234989   6.767   0.833   2.039  0.0095  0.3560  0.1212
 4477TIP3    H134990   6.773   0.857   1.947  0.1077  2.5497  0.6715
 4477TIP3    H234991   6.712   0.901   2.078  1.7170  0.6768  2.0706
 4478TIP3   OH234992   6.957   0.116   1.172 -0.3146  0.6432 -0.1893
 4478TIP3    H134993   6.881   0.058   1.178 -0.5051  0.8385 -0.6509
 4478TIP3    H234994   6.947   0.159   1.087  0.9661 -0.2560 -0.8006
 4479TIP3   OH234995   1.833   2.993   1.483  0.2349 -0.6284  0.2440
 4479TIP3    H134996   1.842   3.004   1.577  0.2034 -1.7152  0.3880
 4479TIP3    H234997   1.769   2.921   1.474 -0.6699  0.2682 -0.6119
 4480TIP3   OH234998   0.524   6.624   0.342 -0.0044 -0.4942  0.1480
 4480TIP3    H134999   0.547   6.538   0.378  0.3280 -0.9385 -1.1007
 4480TIP3    H235000   0.592   6.683   0.376 -0.0077 -0.7940  0.6901
 4481TIP3   OH235001   7.133   0.644   2.258  0.5088  0.2569 -0.3316
 4481TIP3    H135002   7.047   0.664   2.220  0.5010  1.2276  0.1924
 4481TIP3    H235003   7.162   0.566   2.211 -0.2804  0.4296 -1.1182
 4482TIP3   OH235004   1.015   3.813   1.332 -0.8297 -0.2329  0.7254
 4482TIP3    H135005   0.986   3.748   1.267 -2.0044  0.8089  0.1751
 4482TIP3    H235006   1.092   3.774   1.372  0.0245 -0.8323 -1.4233
 4483TIP3   OH235007   0.599   0.487   1.281 -0.2315  0.4645 -0.2604
 4483TIP3    H135008   0.647   0.439   1.348 -0.1980 -0.7505 -1.1376
 4483TIP3    H235009   0.561   0.561   1.327 -1.0430 -0.9029  1.3326
 4484TIP3   OH235010   6.216   2.348   1.779 -0.1661 -0.2120 -0.6834
 4484TIP3    H135011   6.133   2.311   1.810  0.0406 -0.4183 -0.3683
 4484TIP3    H235012   6.193   2.398   1.701 -0.8067  0.8569  0.1810
 4485TIP3   OH235013   7.217   0.470   1.224 -0.8110  0.5016  0.1628
 4485TIP3    H135014   7.153   0.459   1.295  1.0608 -0.4085  1.7673
 4485TIP3    H235015   7.278   0.536   1.257  1.0261 -1.1165  0.1531
 4486TIP3   OH235016   6.048   0.184   0.292  0.0487  0.2497 -0.2874
 4486TIP3    H135017   6.051   0.241   0.215  0.1423  0.7175  0.0626
 4486TIP3    H235018   6.052   0.096   0.256 -2.8264  0.3588 -1.0047
 4487TIP3   OH235019   0.442   3.156   0.170  0.0027  0.7960  0.0907
 4487TIP3    H135020   0.468   3.085   0.229 -1.5773  1.3893  1.5463
 4487TIP3    H235021   0.524   3.199   0.147  0.9409 -1.1694 -0.4135
 4488TIP3   OH235022   7.006   7.073   6.630 -0.0466 -0.1085  0.3483
 4488TIP3    H135023   6.916   7.054   6.657 -1.0953  0.6257 -2.4906
 4488TIP3    H235024   7.047   6.986   6.623 -1.2993 -0.6363 -0.8082
 4489TIP3   OH235025   6.099   5.118   0.613  0.1713 -0.3013 -0.2184
 4489TIP3    H135026   6.117   5.044   0.556  0.5735 -1.2065  1.0605
 4489TIP3    H235027   6.168   5.114   0.680 -0.2940  0.7251  0.3353
 4490TIP3   OH235028   5.365   1.047   0.790  0.4347 -0.6785  0.6198
 4490TIP3    H135029   5.451   1.041   0.749  0.7657 -0.4560  1.2741
 4490TIP3    H235030   5.372   0.995   0.870 -0.2674 -1.2776  0.3035
 4491TIP3   OH235031   0.087   1.074   2.005  0.3811  0.1875  0.0218
 4491TIP3    H135032   0.075   1.156   2.051 -0.5335  0.7805 -1.2695
 4491TIP3    H235033   0.005   1.026   2.018  0.6035 -0.1785  0.0887
 4492TIP3   OH235034   6.298   1.901   2.128  0.1641  0.3334 -0.4548
 4492TIP3    H135035   6.367   1.866   2.185  0.8175  1.3429 -0.6201
 4492TIP3    H235036   6.219   1.896   2.181  0.2475 -1.3133 -0.4403
 4493TIP3   OH235037   0.968   1.123   0.873  0.1855 -0.3479  0.3453
 4493TIP3    H135038   0.895   1.183   0.886 -0.6700 -0.7714 -2.1569
 4493TIP3    H235039   1.031   1.172   0.821  0.9094 -0.5620  1.0124
 4494TIP3   OH235040   5.088   0.141   0.193  0.1017  0.6255 -0.2044
 4494TIP3    H135041   5.132   0.128   0.277  0.2201  0.7309 -0.2488
 4494TIP3    H235042   5.142   0.205   0.148  2.1906 -2.1764 -1.8890
 4495TIP3   OH235043   0.174   5.312   0.896 -0.5608  1.1100  0.1940
 4495TIP3    H135044   0.249   5.303   0.954 -1.1475 -1.2863  0.6047
 4495TIP3    H235045   0.101   5.333   0.955 -0.8166  0.3838  0.1368
 4496TIP3   OH235046   5.172   5.945   2.340 -0.7182  0.1745 -0.5866
 4496TIP3    H135047   5.089   5.981   2.370 -0.7549 -0.9966  0.7947
 4496TIP3    H235048   5.191   5.873   2.401  1.8488  1.1104 -0.2073
 4497TIP3   OH235049   6.018   2.153   1.795 -0.2808  0.1195  0.4137
 4497TIP3    H135050   6.035   2.077   1.740  0.4352  0.7589 -0.2596
 4497TIP3    H235051   6.003   2.116   1.882  0.7550 -0.7428  0.2359
 4498TIP3   OH235052   7.114   1.951   1.114 -0.3276 -0.5609 -0.5772
 4498TIP3    H135053   7.204   1.980   1.105 -0.2281 -0.2522  1.2100
 4498TIP3    H235054   7.062   2.031   1.106 -0.3146 -0.4658  0.2379
 4499TIP3   OH235055   5.773   1.792   2.144  0.3406  0.4324  0.3113
 4499TIP3    H135056   5.739   1.879   2.165  0.2233  1.0191 -2.1344
 4499TIP3    H235057   5.803   1.757   2.228 -1.3244  2.0672  1.6299
 4500TIP3   OH235058   5.075   0.733   1.753  0.2937  0.0324 -0.0090
 4500TIP3    H135059   4.993   0.707   1.796  1.1002 -3.1764 -0.3079
 4500TIP3    H235060   5.135   0.751   1.825  0.2126 -0.5767  0.2136
 4501TIP3   OH235061   6.283   2.783   1.736  0.6252  0.1769  0.5577
 4501TIP3    H135062   6.208   2.750   1.687  1.2238  0.0002 -0.2277
 4501TIP3    H235063   6.257   2.772   1.828 -2.4976  4.8574  0.4341
 4502TIP3   OH235064   3.457   1.885   1.239 -0.3136  0.3961  0.2168
 4502TIP3    H135065   3.386   1.920   1.294 -1.2842  0.3451 -0.9821
 4502TIP3    H235066   3.455   1.940   1.161  1.5977  0.9944  0.5688
 4503TIP3   OH235067   0.781   6.644   6.819 -0.0407  0.5536 -0.3078
 4503TIP3    H135068   0.777   6.701   6.896  0.1934  1.2951 -0.8382
 4503TIP3    H235069   0.786   6.704   6.745  0.6394 -0.1578 -0.8520
 4504TIP3   OH235070   6.769   1.836   0.717 -0.1353  0.3784  0.1939
 4504TIP3    H135071   6.849   1.801   0.755  0.9119  1.4934 -0.9480
 4504TIP3    H235072   6.744   1.773   0.650 -0.5200 -0.2343  0.9018
 4505TIP3   OH235073   6.738   6.296   2.040  0.2191  0.3289 -0.4464
 4505TIP3    H135074   6.733   6.264   2.130 -0.6394  0.3578 -0.4782
 4505TIP3    H235075   6.831   6.308   2.023  0.5075 -1.3610 -0.1484
 4506TIP3   OH235076   4.452   4.451   6.908 -0.5902 -0.3671 -0.4517
 4506TIP3    H135077   4.544   4.476   6.921 -0.6068 -0.8745  0.7037
 4506TIP3    H235078   4.424   4.501   6.832  0.3836  0.4785 -0.2597
 4507TIP3   OH235079   6.122   1.096   1.194 -0.1788  0.3983  0.5604
 4507TIP3    H135080   6.080   1.134   1.271  1.2141 -1.0379  2.0567
 4507TIP3    H235081   6.177   1.166   1.159 -0.1715  0.7835  1.3512
 4508TIP3   OH235082   6.854   6.471   1.063 -0.1759 -0.3407  0.4811
 4508TIP3    H135083   6.840   6.382   1.097 -0.8282 -0.0899  0.8861
 4508TIP3    H235084   6.881   6.521   1.140  0.8711 -0.3405  0.1161
 4509TIP3   OH235085   6.268   5.497   7.791 -0.3581  0.6339 -0.2648
 4509TIP3    H135086   6.308   5.546   7.719 -1.9148  0.1386 -1.4963
 4509TIP3    H235087   6.342   5.455   7.835  0.6895  1.6098 -1.0627
 4510TIP3   OH235088   5.769   5.530   7.813 -0.2586 -0.0253 -0.0729
 4510TIP3    H135089   5.784   5.622   7.836 -0.7570 -0.5331  2.4123
 4510TIP3    H235090   5.701   5.533   7.745  0.8156  1.4917 -1.1270
 4511TIP3   OH235091   1.126   1.649   7.863 -0.3087  0.4940  0.0677
 4511TIP3    H135092   1.091   1.593   7.933 -2.7876  1.4767 -0.3586
 4511TIP3    H235093   1.128   1.736   7.901 -0.9813  0.9125 -0.8434
 4512TIP3   OH235094   7.036   2.098   7.358 -0.0103 -0.4991 -0.3367
 4512TIP3    H135095   7.001   2.184   7.333 -0.9405 -0.9790 -0.6849
 4512TIP3    H235096   7.040   2.049   7.276 -1.4832 -1.5132  0.1806
 4513TIP3   OH235097   5.753   7.156   0.493  0.1384 -0.2643 -0.9998
 4513TIP3    H135098   5.696   7.080   0.481 -1.4130  0.5364  0.9522
 4513TIP3    H235099   5.840   7.118   0.510 -0.1244 -1.5307 -2.3818
 4514TIP3   OH235100   4.405   0.317   1.304 -0.7499 -0.1145 -0.3164
 4514TIP3    H135101   4.457   0.242   1.333 -0.4338 -0.3717 -1.5434
 4514TIP3    H235102   4.434   0.389   1.360 -0.9612 -0.8730  0.7750
 4515TIP3   OH235103   3.013   1.721   1.892  0.5889 -0.5262 -0.1611
 4515TIP3    H135104   3.000   1.811   1.861 -1.2111  0.3572  2.8832
 4515TIP3    H235105   3.102   1.699   1.867  0.5710  1.5503 -2.2455
 4516TIP3   OH235106   6.375   0.208   1.000 -0.1453  0.7228  0.0465
 4516TIP3    H135107   6.310   0.186   0.933  0.0661 -3.6053  1.1200
 4516TIP3    H235108   6.324   0.219   1.080  0.0490  1.4204  0.0761
 4517TIP3   OH235109   6.775   0.382   0.761  0.4967 -0.4514 -0.2081
 4517TIP3    H135110   6.819   0.324   0.825 -0.3385  0.2371  1.0123
 4517TIP3    H235111   6.706   0.425   0.812  0.3700  0.7590 -1.3884
 4518TIP3   OH235112   0.311   7.016   1.465 -0.6099 -0.0027  0.3399
 4518TIP3    H135113   0.297   7.000   1.371  0.4605 -0.8276  0.3040
 4518TIP3    H235114   0.358   6.939   1.495  2.3485  1.8611  0.7516
 4519TIP3   OH235115   6.356   1.866   1.878 -0.3342  0.1136  0.3569
 4519TIP3    H135116   6.364   1.771   1.877 -0.6421  0.0764  1.1343
 4519TIP3    H235117   6.334   1.888   1.969 -0.0098  0.9447  0.2458
 4520TIP3   OH235118   2.025   2.288   2.075 -0.8363  0.0855 -0.6147
 4520TIP3    H135119   2.011   2.292   2.170 -1.0027  0.7046 -0.6613
 4520TIP3    H235120   1.988   2.370   2.042  0.4338  0.4904 -1.0596
 4521TIP3   OH235121   1.035   1.286   8.362 -0.0254 -0.5531 -0.3223
 4521TIP3    H135122   1.077   1.340   8.294  1.9204 -1.2426  0.2799
 4521TIP3    H235123   1.062   1.326   8.444  0.1241 -1.5055  0.0955
 4522TIP3   OH235124   0.006   2.891   0.919  0.3627 -0.2167 -0.4036
 4522TIP3    H135125  -0.031   2.971   0.883 -1.0959  0.2742  2.1313
 4522TIP3    H235126   0.094   2.916   0.948 -0.6703  0.9195  1.8688
 4523TIP3   OH235127   0.944   1.121   1.568 -0.0701 -0.1461 -0.3341
 4523TIP3    H135128   0.954   1.185   1.638  0.4991 -0.3102 -0.2612
 4523TIP3    H235129   1.000   1.153   1.498 -0.7135  0.0676 -0.7493
 4524TIP3   OH235130   0.758   4.249   1.969 -0.1899 -0.2512  0.6600
 4524TIP3    H135131   0.713   4.214   1.892  0.1844 -0.9265  0.7483
 4524TIP3    H235132   0.688   4.269   2.030 -0.5314  0.8086 -0.0661
 4525TIP3   OH235133   5.919   0.913   1.739  0.8102  0.5429  0.3722
 4525TIP3    H135134   5.997   0.950   1.780  0.8434  0.2137  0.6036
 4525TIP3    H235135   5.853   0.982   1.748  1.3852  1.2710 -0.8352
 4526TIP3   OH235136   1.850   6.046   0.557  0.7300  0.1752  0.0941
 4526TIP3    H135137   1.936   6.052   0.515  1.5164 -1.2064  1.4556
 4526TIP3    H235138   1.820   5.958   0.538  0.4035  0.0658  1.0779
 4527TIP3   OH235139   7.141   3.070   2.130  0.3065  0.1718 -0.0128
 4527TIP3    H135140   7.059   3.099   2.169  0.9665  1.5144  0.3901
 4527TIP3    H235141   7.208   3.124   2.172  1.2211  0.2644 -1.5571
 4528TIP3   OH235142   1.033   1.799   6.670 -0.5641 -0.5726 -0.6019
 4528TIP3    H135143   1.060   1.805   6.578 -0.1117 -1.7472 -0.5474
 4528TIP3    H235144   0.945   1.762   6.666 -0.5664 -0.5710 -0.5593
 4529TIP3   OH235145   3.651   6.934   8.156 -0.0243  0.2446  0.1092
 4529TIP3    H135146   3.598   6.990   8.213 -1.0968  0.1918 -0.8197
 4529TIP3    H235147   3.674   6.860   8.211 -1.1549  0.1358  0.4619
 4530TIP3   OH235148   1.094   0.372   7.631 -0.2188 -0.0270 -0.5776
 4530TIP3    H135149   1.018   0.327   7.595 -1.1839  0.7725  0.4268
 4530TIP3    H235150   1.087   0.359   7.726  0.0310  1.3722 -0.3574
 4531TIP3   OH235151   4.176   5.155   7.587  0.4212 -0.1266 -0.4194
 4531TIP3    H135152   4.201   5.221   7.522  0.5654 -0.9057 -1.1853
 4531TIP3    H235153   4.256   5.140   7.638  0.1620  0.8654  0.2729
 4532TIP3   OH235154   2.811   0.346   8.207  0.1377 -0.4801 -0.5566
 4532TIP3    H135155   2.842   0.262   8.173 -1.2661 -0.6086 -1.5354
 4532TIP3    H235156   2.870   0.411   8.169  0.3663 -0.8894 -0.8977
 4533TIP3   OH235157   6.993   4.718   0.542 -0.1726 -0.3015  0.4003
 4533TIP3    H135158   7.086   4.717   0.567 -0.6144  0.8901  2.2795
 4533TIP3    H235159   6.972   4.628   0.521  0.7327 -1.1135  2.7832
 4534TIP3   OH235160   6.009   2.303   1.003  0.7870 -0.1665 -0.0007
 4534TIP3    H135161   6.012   2.279   0.911  3.0539 -0.0650  0.0135
 4534TIP3    H235162   5.937   2.366   1.010 -1.4133 -2.5000 -1.0954
 4535TIP3   OH235163   7.235   1.959   0.691  0.1795  0.8236 -0.4520
 4535TIP3    H135164   7.198   2.047   0.697  0.0305  0.8165 -1.2303
 4535TIP3    H235165   7.163   1.901   0.716  0.7353  0.9886  1.6660
 4536TIP3   OH235166   2.500   2.417   0.906  0.1730 -0.3094 -0.0436
 4536TIP3    H135167   2.447   2.493   0.929 -1.3644 -1.3651 -0.0809
 4536TIP3    H235168   2.577   2.424   0.962 -0.1686  1.0212  0.2864
 4537TIP3   OH235169   5.574   7.177   0.729  0.7219 -0.1212  0.2289
 4537TIP3    H135170   5.579   7.094   0.776 -1.9030 -0.7425 -0.4818
 4537TIP3    H235171   5.611   7.157   0.642  0.3703 -0.4887  0.1582
 4538TIP3   OH235172   0.955   0.965   1.110  0.6710  0.9481 -0.5969
 4538TIP3    H135173   1.023   0.908   1.076 -0.8762 -0.1792 -1.8367
 4538TIP3    H235174   0.927   1.017   1.034 -0.8189  0.4176 -0.4217
 4539TIP3   OH235175   6.498   5.373   8.099 -0.0035 -0.2301  0.2520
 4539TIP3    H135176   6.466   5.283   8.110  1.9393 -0.8047  1.3211
 4539TIP3    H235177   6.530   5.376   8.008 -1.6288 -0.0966 -0.3362
 4540TIP3   OH235178   0.227   2.170   0.583 -0.0252 -0.1744 -0.0448
 4540TIP3    H135179   0.289   2.232   0.622 -0.3517 -0.7117  1.3665
 4540TIP3    H235180   0.145   2.187   0.630 -0.0126 -1.9594  0.6284
 4541TIP3   OH235181   6.999   3.302   1.946 -0.0284  0.4227 -0.0084
 4541TIP3    H135182   6.991   3.370   1.879 -1.3717 -1.3356 -1.7115
 4541TIP3    H235183   7.080   3.255   1.924 -0.8745 -0.6492 -0.9225
 4542TIP3   OH235184   2.852   5.539   1.444  0.2997 -0.5007 -0.0755
 4542TIP3    H135185   2.823   5.448   1.453 -0.3083 -0.3163 -0.1351
 4542TIP3    H235186   2.800   5.587   1.508 -0.2329 -0.0161 -0.8621
 4543TIP3   OH235187   1.916   0.052   8.149 -0.1456 -0.0559  0.1989
 4543TIP3    H135188   1.928   0.146   8.134  0.2430 -0.0813  0.3379
 4543TIP3    H235189   1.827   0.034   8.118 -1.3990  0.9756  2.9580
 4544TIP3   OH235190   0.836   2.688   0.219 -1.1395 -0.2662 -0.2302
 4544TIP3    H135191   0.746   2.695   0.251 -1.5627  1.0307 -1.6618
 4544TIP3    H235192   0.828   2.688   0.124  0.3035 -1.4207 -0.3814
 4545TIP3   OH235193   3.240   2.486   7.079  0.1459  0.1363 -0.1674
 4545TIP3    H135194   3.183   2.458   7.007  2.2697 -1.6090 -1.2390
 4545TIP3    H235195   3.216   2.430   7.152 -0.0835 -0.0479 -0.3806
 4546TIP3   OH235196   0.362   4.528   8.339  0.0796  0.3212 -0.0580
 4546TIP3    H135197   0.382   4.434   8.338 -0.8419  0.1010  1.0357
 4546TIP3    H235198   0.318   4.543   8.255  2.4050  0.2928 -1.3249
 4547TIP3   OH235199   6.070   0.185   1.451 -0.3603  0.0612  0.6215
 4547TIP3    H135200   6.136   0.183   1.520  2.2519 -0.0517 -1.8086
 4547TIP3    H235201   6.022   0.102   1.462  0.5601 -0.3291  1.7763
 4548TIP3   OH235202   2.157   3.998   0.181 -0.3925  0.7410  0.1604
 4548TIP3    H135203   2.201   3.936   0.239 -1.3689 -1.3011 -1.1961
 4548TIP3    H235204   2.065   3.992   0.206 -0.5188  1.4920 -0.1281
 4549TIP3   OH235205   1.926   2.049   1.953 -0.5510  0.0113  0.0900
 4549TIP3    H135206   1.906   2.122   2.012  0.3410 -0.5231  1.0715
 4549TIP3    H235207   2.004   2.009   1.991 -0.7466 -1.1511 -0.7203
 4550TIP3   OH235208   6.906   0.664   7.022  0.6025  0.1467 -0.8629
 4550TIP3    H135209   6.900   0.649   6.927  1.5956 -0.1092 -0.8903
 4550TIP3    H235210   6.930   0.579   7.058  0.6864  0.3578 -0.4282
 4551TIP3   OH235211   6.770   1.525   6.761  0.1849  0.2206 -0.1099
 4551TIP3    H135212   6.832   1.541   6.690 -1.4961  0.9954 -1.4423
 4551TIP3    H235213   6.784   1.433   6.785 -0.4176 -0.5722 -2.6500
 4552TIP3   OH235214   0.686   4.548   0.633  0.1270  0.2005 -0.2183
 4552TIP3    H135215   0.709   4.467   0.680 -0.1831 -0.3012 -0.9157
 4552TIP3    H235216   0.768   4.598   0.630  0.8614 -1.0404 -1.6447
 4553TIP3   OH235217   6.838   1.134   8.237 -0.0671  0.2925  0.2102
 4553TIP3    H135218   6.817   1.051   8.195 -1.3401  0.2621  0.8916
 4553TIP3    H235219   6.756   1.161   8.279  0.2177  2.0846 -0.3411
 4554TIP3   OH235220   0.239   6.403   0.858  1.2614  0.3351  0.0898
 4554TIP3    H135221   0.153   6.386   0.896  2.0418 -0.4727  1.5316
 4554TIP3    H235222   0.300   6.396   0.931  2.3175  3.3944 -0.4271
 4555TIP3   OH235223   0.432   5.707   7.568 -0.7062  0.3492  0.5780
 4555TIP3    H135224   0.505   5.750   7.524 -0.9741 -0.7883 -1.0132
 4555TIP3    H235225   0.355   5.758   7.542 -1.2257 -1.9384 -2.5534
 4556TIP3   OH235226   2.351   2.128   0.998 -0.4462  0.3346  0.3767
 4556TIP3    H135227   2.271   2.107   0.949  0.8455  1.1853 -2.2129
 4556TIP3    H235228   2.411   2.163   0.931  1.8108  0.4338  2.3985
 4557TIP3   OH235229   0.356   2.961   1.746  0.2325 -0.0989 -0.5955
 4557TIP3    H135230   0.351   3.038   1.689  0.5377  0.6040  0.2992
 4557TIP3    H235231   0.269   2.923   1.742 -0.0434  0.5287 -0.7401
 4558TIP3   OH235232   2.180   5.441   0.020  0.1235 -0.3570 -0.7702
 4558TIP3    H135233   2.085   5.455   0.021  0.3259  1.1439 -1.2998
 4558TIP3    H235234   2.212   5.498  -0.051  1.5925  0.2985  0.3938
 4559TIP3   OH235235   5.878   7.272   1.510  0.2535  0.5275  0.0786
 4559TIP3    H135236   5.928   7.209   1.459  2.0894  0.5613  1.7688
 4559TIP3    H235237   5.798   7.225   1.535  0.8332 -0.5483 -0.0722
 4560TIP3   OH235238   1.601   5.266   1.089  0.0599 -0.6784  0.0048
 4560TIP3    H135239   1.611   5.308   1.174  0.5094  0.4982 -0.6181
 4560TIP3    H235240   1.679   5.291   1.040 -1.5877  1.2191 -1.7981
 4561TIP3   OH235241   0.147   4.259   1.392 -0.0098  0.3042 -0.3972
 4561TIP3    H135242   0.108   4.337   1.431  1.0949 -0.7006  2.9227
 4561TIP3    H235243   0.211   4.293   1.330 -2.4354  1.9643 -2.0718
 4562TIP3   OH235244   1.058   2.098   7.617 -0.4671 -0.2315 -0.2263
 4562TIP3    H135245   1.123   2.034   7.646 -0.5026 -0.0824  0.1900
 4562TIP3    H235246   1.072   2.105   7.523 -1.1195 -1.5767 -0.4318
 4563TIP3   OH235247   1.257   5.512   0.062  0.0025 -0.1333 -0.1761
 4563TIP3    H135248   1.289   5.602   0.057  2.0935 -0.9246 -1.6381
 4563TIP3    H235249   1.334   5.458   0.048 -1.6103 -2.1443 -1.5587
 4564TIP3   OH235250   2.314   2.439   1.860 -0.8849 -0.1998  0.2646
 4564TIP3    H135251   2.296   2.508   1.923  1.9528 -1.4353  2.5342
 4564TIP3    H235252   2.257   2.366   1.886 -0.1094 -0.5170  1.0940
 4565TIP3   OH235253   6.896   4.794   8.377  0.5745 -0.0664  0.1319
 4565TIP3    H135254   6.906   4.701   8.355 -2.6058 -0.4363 -0.0803
 4565TIP3    H235255   6.924   4.801   8.468 -1.2979 -1.7393  0.8877
 4566TIP3   OH235256   6.479   4.920   0.938  0.3753 -0.3223 -0.4185
 4566TIP3    H135257   6.518   4.898   1.022 -1.2148  2.0558  1.0022
 4566TIP3    H235258   6.426   4.844   0.915  0.8223 -0.9862  0.7465
 4567TIP3   OH235259   0.936   1.731   8.183 -0.0550 -0.2173  0.2368
 4567TIP3    H135260   0.850   1.689   8.177 -0.0155 -0.3715  0.7989
 4567TIP3    H235261   0.998   1.658   8.187 -0.1485 -0.1493  4.0769
 4568TIP3   OH235262   1.363   0.738   0.482  0.5221 -0.6905  0.4884
 4568TIP3    H135263   1.370   0.830   0.457 -2.5030 -0.1298  1.4133
 4568TIP3    H235264   1.310   0.698   0.412  0.2730 -1.2959  1.0175
 4569TIP3   OH235265   2.810   1.360   7.612 -0.1097 -0.0882  0.3223
 4569TIP3    H135266   2.792   1.275   7.652 -0.4871  0.6656  1.8205
 4569TIP3    H235267   2.874   1.401   7.670  0.2111  0.5682 -0.4833
 4570TIP3   OH235268   1.372   5.335   7.153  0.1555 -0.3752  0.1623
 4570TIP3    H135269   1.341   5.407   7.099  1.4731 -0.6205 -0.9536
 4570TIP3    H235270   1.307   5.327   7.223 -0.9154  0.7500 -0.6896
 4571TIP3   OH235271   0.985   2.059   8.311 -0.5180  0.1366 -0.2102
 4571TIP3    H135272   0.916   2.112   8.350 -0.1236  0.8846 -0.5099
 4571TIP3    H235273   0.946   1.973   8.298 -1.4117  0.5789 -0.4545
 4572TIP3   OH235274   6.018   2.909   1.953 -0.1428 -0.2571 -0.5236
 4572TIP3    H135275   6.096   2.881   2.000 -0.7822 -0.4404  0.4527
 4572TIP3    H235276   6.049   2.934   1.866  0.7213 -2.0760 -0.7512
 4573TIP3   OH235277   1.657   0.998   2.295 -0.1556  0.0221  0.0152
 4573TIP3    H135278   1.601   1.058   2.345 -0.0255 -0.5218  0.8182
 4573TIP3    H235279   1.737   0.991   2.346 -0.4006 -1.3070  0.2368
 4574TIP3   OH235280   1.045   4.385   0.775  0.0344  0.3309  0.2489
 4574TIP3    H135281   1.117   4.332   0.810 -1.8468 -2.2798  0.2970
 4574TIP3    H235282   1.068   4.475   0.800  3.3057 -0.4117  0.1748
 4575TIP3   OH235283   0.604   2.080   2.319 -0.2621  0.2569 -0.6936
 4575TIP3    H135284   0.635   2.155   2.369 -1.2815  0.8261 -0.8951
 4575TIP3    H235285   0.580   2.016   2.386 -0.5676  0.5931 -0.4780
 4576TIP3   OH235286   1.628   1.361   1.712 -0.2719  0.5530  0.4602
 4576TIP3    H135287   1.544   1.351   1.667 -0.6999  3.2252  0.5491
 4576TIP3    H235288   1.679   1.417   1.653  2.1236 -2.4239 -0.4117
 4577TIP3   OH235289   1.605   0.899   0.128 -0.0910 -0.2144  0.1917
 4577TIP3    H135290   1.616   0.953   0.050 -0.4748  2.1668  1.7250
 4577TIP3    H235291   1.512   0.907   0.149  0.2842  0.3301  1.6913
 4578TIP3   OH235292   0.078   2.272   0.231  0.1114 -0.0520 -0.2020
 4578TIP3    H135293   0.024   2.221   0.171  0.0517 -0.1640 -0.0536
 4578TIP3    H235294   0.148   2.213   0.257  0.8152  0.3779 -1.0922
 4579TIP3   OH235295   3.523   4.126   8.284 -0.3920 -0.2442  0.2701
 4579TIP3    H135296   3.572   4.090   8.210 -0.4979 -0.3417  0.2466
 4579TIP3    H235297   3.448   4.066   8.295 -1.0164  0.4238 -0.2901
 4580TIP3   OH235298   1.381   6.555   1.290  0.5185 -0.4855 -0.4414
 4580TIP3    H135299   1.440   6.501   1.343  2.7225 -0.7313 -3.0441
 4580TIP3    H235300   1.322   6.493   1.248  0.5649 -0.5196 -0.4552
 4581TIP3   OH235301   6.838   2.708   6.395 -0.2512 -0.2623 -0.4603
 4581TIP3    H135302   6.792   2.653   6.331 -1.7148 -1.6881  1.7687
 4581TIP3    H235303   6.930   2.703   6.368 -0.1893 -4.5144  0.0636
 4582TIP3   OH235304   1.876   1.696   7.819 -0.5842 -0.0888  0.2559
 4582TIP3    H135305   1.815   1.649   7.876  1.5422  0.2792  2.9201
 4582TIP3    H235306   1.917   1.761   7.876  0.7673  1.0881 -1.9841
 4583TIP3   OH235307   2.374   1.056   0.560  0.3400 -0.1998  0.2619
 4583TIP3    H135308   2.441   0.992   0.536  0.6601  0.0404  0.5084
 4583TIP3    H235309   2.410   1.140   0.528 -0.4273 -0.2488 -0.7608
 4584TIP3   OH235310   0.041   4.994   1.294 -0.5896  0.0026 -0.5201
 4584TIP3    H135311  -0.023   5.061   1.319 -1.1242 -0.2601 -1.1491
 4584TIP3    H235312  -0.011   4.927   1.248 -0.3996 -1.7933  1.7808
 4585TIP3   OH235313   1.256   4.571   0.445 -0.6791  0.2890  0.0498
 4585TIP3    H135314   1.331   4.609   0.490  0.1711  0.2061 -1.2592
 4585TIP3    H235315   1.209   4.646   0.409 -0.4561  0.2685 -0.2915
 4586TIP3   OH235316   1.592   0.053   6.290 -0.1194  0.1591  0.2652
 4586TIP3    H135317   1.567   0.070   6.381  0.6695 -0.0418  0.5267
 4586TIP3    H235318   1.537  -0.020   6.263 -1.1523  0.9574  0.2200
 4587TIP3   OH235319   2.209   2.184   1.899  0.0572  0.1405 -0.3498
 4587TIP3    H135320   2.127   2.206   1.943  0.0249 -0.5937 -0.0294
 4587TIP3    H235321   2.232   2.097   1.933  1.3273  0.6317  0.0867
 4588TIP3   OH235322   2.897   4.594   1.682  0.1212  0.1762 -0.3202
 4588TIP3    H135323   2.953   4.533   1.730 -0.3639 -0.1751 -0.1959
 4588TIP3    H235324   2.958   4.650   1.635  0.5956  0.1349  0.2282
 4589TIP3   OH235325   3.084   0.132   0.889  0.0217  0.1203  0.1236
 4589TIP3    H135326   3.114   0.076   0.961 -0.4671  0.7049  0.8019
 4589TIP3    H235327   3.121   0.218   0.910 -0.0836  0.2824 -0.3554
 4590TIP3   OH235328   1.075   2.022   7.319 -0.1740 -0.3088  0.0193
 4590TIP3    H135329   1.036   2.026   7.232 -1.9087  2.3488  0.8472
 4590TIP3    H235330   1.045   1.938   7.355 -2.7946  0.3814 -0.4529
 4591TIP3   OH235331   0.472   3.280   7.887  0.6764  0.0297  0.0542
 4591TIP3    H135332   0.462   3.189   7.916  0.4195  0.3164  0.8632
 4591TIP3    H235333   0.407   3.290   7.817 -0.1953 -0.0164  0.8598
 4592TIP3   OH235334   2.168   0.295   0.295 -0.0831 -0.2606  0.5723
 4592TIP3    H135335   2.243   0.327   0.246 -0.5581  0.2829  0.1996
 4592TIP3    H235336   2.115   0.372   0.312 -0.2736 -0.5517  1.3348
 4593TIP3   OH235337   6.275   2.830   2.070  0.7989 -0.0721  0.4621
 4593TIP3    H135338   6.232   2.782   2.140  0.0165  0.4255  0.3306
 4593TIP3    H235339   6.354   2.866   2.110  0.0114  0.7752  1.2762
 4594TIP3   OH235340   2.037   3.538   1.547 -0.4957  0.3555  0.0901
 4594TIP3    H135341   2.067   3.601   1.481  2.7179  0.9404  2.0026
 4594TIP3    H235342   2.058   3.453   1.510  1.4441  0.6833  0.3880
 4595TIP3   OH235343   1.992   1.803   8.495 -0.0988  0.3556  0.8406
 4595TIP3    H135344   2.047   1.727   8.514 -0.4111  0.1967  1.1111
 4595TIP3    H235345   1.945   1.778   8.415  0.4378  0.6089  0.4413
 4596TIP3   OH235346   1.875   1.819   2.527  0.0384 -0.0917 -0.0585
 4596TIP3    H135347   1.870   1.881   2.454  1.1870 -0.1437 -0.1996
 4596TIP3    H235348   1.957   1.772   2.511  0.7309  0.4843  1.7368
 4597TIP3   OH235349   0.175   4.729   0.732 -0.0211  0.7824 -0.0383
 4597TIP3    H135350   0.178   4.811   0.683 -0.5044  0.9182  0.1604
 4597TIP3    H235351   0.263   4.692   0.723 -0.7794 -0.3954 -3.0275
 4598TIP3   OH235352   7.020   1.380   0.583 -0.0198  0.1340  0.4575
 4598TIP3    H135353   7.049   1.306   0.529 -1.3829 -0.6262  0.7218
 4598TIP3    H235354   7.100   1.418   0.618  0.7650 -0.5758 -0.5228
 4599TIP3   OH235355   2.205   2.775   7.957 -0.3073  0.4180 -0.1175
 4599TIP3    H135356   2.201   2.868   7.937 -2.2054  0.2244 -0.7842
 4599TIP3    H235357   2.288   2.746   7.920  0.4509  1.8925  0.3837
 4600TIP3   OH235358   6.354   2.390   1.244 -0.2857 -0.2613  0.4359
 4600TIP3    H135359   6.320   2.479   1.251  0.3720 -0.1492  2.3274
 4600TIP3    H235360   6.400   2.375   1.327  1.6160 -1.5102 -0.7916
 4601TIP3   OH235361   2.856   6.588   8.442 -0.0184  0.4327 -0.0670
 4601TIP3    H135362   2.951   6.586   8.438 -0.0001 -0.0680  0.6132
 4601TIP3    H235363   2.835   6.658   8.504 -0.1045  0.7227 -0.4172
 4602TIP3   OH235364   0.554   6.791   0.934 -0.2887 -0.2081 -0.0827
 4602TIP3    H135365   0.602   6.870   0.909 -0.7810  0.0864 -0.0980
 4602TIP3    H235366   0.592   6.722   0.880 -0.0945  0.0798 -0.3182
 4603TIP3   OH235367   3.436   3.217   0.312 -0.2101  0.5075  0.4707
 4603TIP3    H135368   3.401   3.303   0.287 -1.5248  0.6075  2.5962
 4603TIP3    H235369   3.528   3.235   0.334  0.0790  0.9821 -1.0096
 4604TIP3   OH235370   2.159   1.944   0.541 -0.8277  0.3861 -0.2507
 4604TIP3    H135371   2.167   1.995   0.460  2.0600  0.1640 -0.1576
 4604TIP3    H235372   2.222   1.872   0.530  0.5506  1.0818  2.7284
 4605TIP3   OH235373   1.324   5.160   0.689 -0.4646  0.1035 -0.2650
 4605TIP3    H135374   1.232   5.169   0.666 -0.6729 -2.3317 -0.4885
 4605TIP3    H235375   1.365   5.124   0.611  0.7823  1.6301 -0.3311
 4606TIP3   OH235376   6.377   0.957   7.927 -0.1701 -0.5025  0.3364
 4606TIP3    H135377   6.437   0.919   7.864 -0.0990  1.1177 -0.6020
 4606TIP3    H235378   6.434   0.994   7.995 -0.1043  0.5589 -0.2811
 4607TIP3   OH235379   5.405   1.856   2.315  0.0202  0.3805 -0.0676
 4607TIP3    H135380   5.325   1.814   2.347  0.4183  0.3567  0.9003
 4607TIP3    H235381   5.396   1.856   2.220 -2.3747  2.8327  0.1058
 4608TIP3   OH235382   5.342   5.553   0.650 -0.7771  0.1102  0.2409
 4608TIP3    H135383   5.306   5.469   0.678 -0.3515  0.2202  1.1305
 4608TIP3    H235384   5.429   5.556   0.690 -0.6466  0.8106 -0.0951
 4609TIP3   OH235385   0.207   0.771   0.825  0.1707 -0.3702  0.1134
 4609TIP3    H135386   0.248   0.688   0.851  0.7688  0.4740  1.9881
 4609TIP3    H235387   0.118   0.765   0.859 -0.0728 -0.6330 -0.5762
 4610TIP3   OH235388   4.675   4.637   2.247 -0.2456 -0.2437 -0.5029
 4610TIP3    H135389   4.619   4.684   2.185  1.1376 -1.0840 -2.4263
 4610TIP3    H235390   4.666   4.545   2.223  0.5029 -0.5598  0.3935
 4611TIP3   OH235391   1.838   1.557   1.566  0.0895 -0.1354  0.0174
 4611TIP3    H135392   1.924   1.596   1.584  0.1779 -0.0618 -0.5480
 4611TIP3    H235393   1.781   1.632   1.549 -0.4404 -0.1124  1.8778
 4612TIP3   OH235394   3.106   2.631   1.374 -0.3748  0.1289 -0.5438
 4612TIP3    H135395   3.093   2.726   1.382 -0.7632  0.1255 -1.1498
 4612TIP3    H235396   3.106   2.600   1.465 -0.6312  0.6581 -0.3560
 4613TIP3   OH235397   0.059   6.206   1.630 -0.0408  0.0672  0.2527
 4613TIP3    H135398   0.080   6.255   1.709 -0.8189  0.3668  0.2760
 4613TIP3    H235399   0.116   6.243   1.563 -1.0574  1.4347  0.1221
 4614TIP3   OH235400   3.020   2.371   0.032  0.0583  0.2081  0.6806
 4614TIP3    H135401   3.012   2.461   0.064 -1.2462 -0.0641  1.1760
 4614TIP3    H235402   3.106   2.342   0.062  0.4848  1.2842  0.5232
 4615TIP3   OH235403   7.114   5.053   1.075 -0.5401 -0.8560 -0.1431
 4615TIP3    H135404   7.093   5.090   1.161 -1.7007 -0.6658 -0.4927
 4615TIP3    H235405   7.171   5.117   1.034 -1.3714 -0.1284 -0.1742
 4616TIP3   OH235406   2.567   0.597   0.133 -0.8165  0.1887 -0.1065
 4616TIP3    H135407   2.516   0.518   0.115  1.3912 -0.7715 -2.3494
 4616TIP3    H235408   2.578   0.597   0.228 -3.2681 -0.6423  0.2100
 4617TIP3   OH235409   5.103   4.490   1.241  0.0182  0.2217  0.3686
 4617TIP3    H135410   5.138   4.550   1.175 -0.0355 -0.3617 -0.1988
 4617TIP3    H235411   5.171   4.422   1.250 -0.5638 -0.4156 -0.0562
 4618TIP3   OH235412   6.468   1.963   0.638 -0.5379 -0.7477 -0.6567
 4618TIP3    H135413   6.498   1.886   0.687 -1.6332 -1.3562 -0.9257
 4618TIP3    H235414   6.415   2.012   0.700  0.1124 -0.2281 -0.5040
 4619TIP3   OH235415   1.601   4.258   7.631 -0.5111 -0.4907 -0.0680
 4619TIP3    H135416   1.647   4.307   7.563 -1.8822  2.1957  0.8951
 4619TIP3    H235417   1.514   4.241   7.595 -0.8490 -0.0958  0.5559
 4620TIP3   OH235418   0.484   5.594   7.825 -0.9294  0.3486 -0.2723
 4620TIP3    H135419   0.504   5.652   7.752  2.1770  1.0513  1.0756
 4620TIP3    H235420   0.460   5.653   7.896 -0.9133 -0.1756  0.1721
 4621TIP3   OH235421   1.222   4.876   0.536 -0.2559  0.2842  0.4718
 4621TIP3    H135422   1.140   4.926   0.532 -0.1791  0.7313  3.6189
 4621TIP3    H235423   1.259   4.885   0.448 -2.2545  2.3192 -0.2261
 4622TIP3   OH235424   6.805   1.237   0.349 -0.0213  0.4629  0.2032
 4622TIP3    H135425   6.893   1.205   0.372 -0.6326 -0.6106  1.1025
 4622TIP3    H235426   6.792   1.312   0.408 -0.3753 -0.4309  1.2895
 4623TIP3   OH235427   2.867   4.188   7.360 -0.3973 -0.3868  0.6854
 4623TIP3    H135428   2.814   4.137   7.422  0.0011 -0.1480  1.2190
 4623TIP3    H235429   2.930   4.234   7.414  0.2824 -0.5683  0.0578
 4624TIP3   OH235430   0.422   3.982   1.259 -0.1125  0.1021  0.1194
 4624TIP3    H135431   0.444   4.014   1.172  1.0801 -0.9612  0.0044
 4624TIP3    H235432   0.453   4.050   1.318 -1.7743  1.2605 -0.3160
 4625TIP3   OH235433   0.459   4.274   8.288 -0.0683  0.3415  0.3158
 4625TIP3    H135434   0.414   4.190   8.287 -0.1663  0.3947  0.1190
 4625TIP3    H235435   0.542   4.258   8.243 -0.4999  0.5736 -0.5840
 4626TIP3   OH235436   2.171   4.232   1.319  0.1818 -0.3468  0.7564
 4626TIP3    H135437   2.107   4.267   1.382  0.7516  1.7076  0.2538
 4626TIP3    H235438   2.254   4.270   1.347  0.6219 -0.3473 -0.5384
 4627TIP3   OH235439   1.700   2.808   1.183  0.0874  0.0109 -0.0697
 4627TIP3    H135440   1.772   2.746   1.178 -0.3123 -0.4518 -0.1265
 4627TIP3    H235441   1.641   2.781   1.112 -0.9647 -0.6535  1.0518
 4628TIP3   OH235442   2.421   3.431   7.850 -0.0559 -0.3254  0.5502
 4628TIP3    H135443   2.474   3.463   7.777 -0.9224 -0.6909 -0.2443
 4628TIP3    H235444   2.438   3.337   7.853 -1.1080 -0.5438 -0.0845
 4629TIP3   OH235445   1.147   3.849   0.648 -0.2943 -0.4816  0.5059
 4629TIP3    H135446   1.149   3.936   0.608  0.4229 -0.1309  1.2865
 4629TIP3    H235447   1.073   3.805   0.607  1.2234 -0.6297 -2.2427
 4630TIP3   OH235448   3.336   3.554   1.394 -0.2844 -0.0032 -0.1253
 4630TIP3    H135449   3.349   3.649   1.390 -1.1475  0.1813  1.2519
 4630TIP3    H235450   3.293   3.539   1.479  0.1245 -1.6527 -0.1966
 4631TIP3   OH235451   1.498   1.697   0.702  0.1343 -0.1121  0.0880
 4631TIP3    H135452   1.468   1.616   0.743 -2.1884  1.3841  1.3975
 4631TIP3    H235453   1.542   1.745   0.772  0.1587  0.4393 -0.2998
 4632TIP3   OH235454   5.570   1.439   1.596 -0.1340  0.4464 -0.3728
 4632TIP3    H135455   5.661   1.410   1.585  0.4252  2.6197 -1.7714
 4632TIP3    H235456   5.577   1.523   1.642 -1.5779 -0.3562  1.3791
 4633TIP3   OH235457   0.036   6.295   7.937  0.2694 -0.6221  0.0476
 4633TIP3    H135458  -0.012   6.263   7.861  3.1021 -1.1419 -1.5866
 4633TIP3    H235459   0.066   6.216   7.981  0.9181 -0.2978  0.1915
 4634TIP3   OH235460   3.809   5.979   0.739  0.2268 -0.1663  0.2862
 4634TIP3    H135461   3.877   5.914   0.760 -0.3876 -0.5585  1.0832
 4634TIP3    H235462   3.729   5.928   0.731  0.0125  0.3089 -0.6053
 4635TIP3   OH235463   1.518   2.100   8.352  0.1398  0.3780  0.1790
 4635TIP3    H135464   1.508   2.185   8.309  0.1099  0.3556  0.1409
 4635TIP3    H235465   1.475   2.110   8.437  0.3875  0.4909  0.2923
 4636TIP3   OH235466   1.515   4.434   1.346  0.5340  0.3476 -0.3931
 4636TIP3    H135467   1.571   4.357   1.359  0.0513 -0.5990 -3.6069
 4636TIP3    H235468   1.557   4.483   1.276 -1.3205  0.9257 -1.1185
 4637TIP3   OH235469   6.079   5.018   0.318 -0.0668  0.3043 -0.1386
 4637TIP3    H135470   5.998   5.046   0.362 -0.8025  0.3216 -1.4822
 4637TIP3    H235471   6.146   5.079   0.351 -0.4144 -0.2552  1.6370
 4638TIP3   OH235472   5.721   4.053   1.556 -0.0190 -0.2340  0.8117
 4638TIP3    H135473   5.775   4.107   1.498  1.0775 -0.9297  1.1660
 4638TIP3    H235474   5.631   4.075   1.532  0.4200  0.3961 -0.3107
 4639TIP3   OH235475   1.353   3.643   0.556  0.3512 -0.2435 -0.2798
 4639TIP3    H135476   1.302   3.570   0.518  0.4426 -1.0038  1.0405
 4639TIP3    H235477   1.296   3.719   0.546  0.2316 -0.5002 -1.6299
 4640TIP3   OH235478   0.716   3.680   0.364 -0.0216  0.2152 -0.0734
 4640TIP3    H135479   0.692   3.644   0.279 -1.5143 -2.2249  1.3367
 4640TIP3    H235480   0.639   3.730   0.392  0.4792  1.0452 -0.1276
 4641TIP3   OH235481   2.598   6.684   8.489  0.8852 -0.1839  0.1748
 4641TIP3    H135482   2.622   6.777   8.485  0.2388  0.1801  3.2326
 4641TIP3    H235483   2.677   6.637   8.465  0.8106  1.1330 -2.8915
 4642TIP3   OH235484   6.562   2.369   2.246  0.0534 -0.6292 -0.0321
 4642TIP3    H135485   6.569   2.298   2.310 -0.6759 -0.3365  0.3789
 4642TIP3    H235486   6.504   2.433   2.287 -0.1243 -0.2669 -0.8339
 4643TIP3   OH235487   3.154   2.247   0.669 -0.5064  0.2343 -0.2815
 4643TIP3    H135488   3.130   2.301   0.743 -1.7797 -0.6968 -0.0011
 4643TIP3    H235489   3.102   2.168   0.678 -0.6603  0.0820 -2.1391
 4644TIP3   OH235490   1.395   3.543   8.238 -0.2085  0.0063 -0.2442
 4644TIP3    H135491   1.430   3.473   8.293 -0.4714  0.8492  1.0153
 4644TIP3    H235492   1.387   3.618   8.297 -1.2767  0.6928 -1.2448
 4645TIP3   OH235493   6.517   5.968   8.274  0.3786  0.2893  0.7019
 4645TIP3    H135494   6.501   5.877   8.297  0.6902  0.1226  0.2826
 4645TIP3    H235495   6.602   5.967   8.229  0.6647  0.8709  1.2118
 4646TIP3   OH235496   5.618   2.351   7.220  0.2686 -0.7547 -0.2322
 4646TIP3    H135497   5.625   2.352   7.315 -1.6611 -0.4809 -0.0604
 4646TIP3    H235498   5.618   2.258   7.197 -1.1496 -0.8750  0.2151
 4647TIP3   OH235499   1.775   2.338   2.597 -0.2405  0.6808 -0.0218
 4647TIP3    H135500   1.764   2.433   2.604 -1.1110  0.5116  1.2276
 4647TIP3    H235501   1.686   2.303   2.604 -0.1108 -0.1635 -2.0841
 4648TIP3   OH235502   1.137   2.956   2.748 -0.3001 -0.2724 -0.0073
 4648TIP3    H135503   1.073   2.948   2.678 -0.2796 -2.1912  0.1692
 4648TIP3    H235504   1.215   2.992   2.706  0.1510 -2.6217 -1.2706
 4649TIP3   OH235505   6.605   0.418   0.973  0.4472 -0.0032 -0.3361
 4649TIP3    H135506   6.659   0.428   1.052  0.8556 -0.6971 -0.5250
 4649TIP3    H235507   6.527   0.372   1.003  0.1068  0.6897 -0.1318
 4650TIP3   OH235508   6.500   1.972   1.398  0.4742 -0.5145  0.3050
 4650TIP3    H135509   6.407   1.992   1.399  0.5706  0.2103 -2.0100
 4650TIP3    H235510   6.519   1.943   1.487 -1.8422 -0.1933  0.9475
 4651TIP3   OH235511   5.538   4.544   1.727  0.3755  0.1979  0.0399
 4651TIP3    H135512   5.619   4.523   1.773  1.7714  4.1639 -0.3747
 4651TIP3    H235513   5.487   4.593   1.791 -0.8646 -0.5858 -0.3390
 4652TIP3   OH235514   1.923   2.240   0.737  0.2733  0.6693  0.4142
 4652TIP3    H135515   1.940   2.289   0.657 -3.0735  2.6379  0.8094
 4652TIP3    H235516   1.829   2.224   0.736  0.7466 -2.5511  2.1636
 4653TIP3   OH235517   0.753   2.508   7.327 -0.0077 -0.2558  0.0731
 4653TIP3    H135518   0.778   2.487   7.417 -1.9632 -1.2073  0.4294
 4653TIP3    H235519   0.835   2.532   7.284  1.1663 -1.2321  1.7070
 4654TIP3   OH235520   1.232   2.296   1.452  0.3284  0.2927  0.4645
 4654TIP3    H135521   1.243   2.253   1.367  0.6043 -4.7147  2.8461
 4654TIP3    H235522   1.319   2.331   1.472  0.9701 -0.8767 -0.1681
 4655TIP3   OH235523   4.059   6.169   0.602 -0.1031  0.1548 -0.0910
 4655TIP3    H135524   4.121   6.118   0.653  1.5517  2.9850  0.8573
 4655TIP3    H235525   4.058   6.128   0.515  0.8994 -1.6302  0.7295
 4656TIP3   OH235526   2.562   2.880   8.133  0.0942  0.4243 -0.2715
 4656TIP3    H135527   2.491   2.943   8.146  0.6704  1.1135 -0.4484
 4656TIP3    H235528   2.531   2.800   8.175 -0.1790  1.1516  0.9186
 4657TIP3   OH235529   2.568   0.866   0.530  0.4532 -0.2118 -0.3009
 4657TIP3    H135530   2.654   0.907   0.520 -0.1622  1.1337 -0.2063
 4657TIP3    H235531   2.575   0.784   0.482  2.0433 -0.4906  0.3739
 4658TIP3   OH235532   0.218   3.698   0.186 -0.0288  0.0397 -0.3395
 4658TIP3    H135533   0.253   3.784   0.207  1.0132 -0.4727  0.0577
 4658TIP3    H235534   0.266   3.672   0.107 -0.7234  0.0485 -0.7677
 4659TIP3   OH235535   1.542   2.692   0.946  0.3123  0.3669  0.5292
 4659TIP3    H135536   1.523   2.628   0.877  1.1482 -0.6253  1.1968
 4659TIP3    H235537   1.475   2.759   0.936  0.0026 -0.1206 -0.8051
 4660TIP3   OH235538   2.442   0.558   8.274 -0.5765  0.1572 -0.4375
 4660TIP3    H135539   2.455   0.473   8.316 -1.3823 -0.1582 -0.8065
 4660TIP3    H235540   2.397   0.538   8.192 -1.3574  0.9849 -0.2323
 4661TIP3   OH235541   1.330   4.568   7.666  0.0007  0.1107 -0.5540
 4661TIP3    H135542   1.305   4.573   7.758 -0.3009  0.8513 -0.6670
 4661TIP3    H235543   1.422   4.594   7.664  0.2526 -0.7518 -0.3627
 4662TIP3   OH235544   0.709   1.099   0.621  0.0016  0.0748  0.3174
 4662TIP3    H135545   0.688   1.038   0.692  0.8216 -1.3093 -0.6086
 4662TIP3    H235546   0.702   1.047   0.541  1.7257  0.9160 -0.4145
 4663TIP3   OH235547   0.096   4.872   8.470  0.0278  0.0447 -0.0872
 4663TIP3    H135548   0.033   4.800   8.478  0.2102  0.0441  1.5040
 4663TIP3    H235549   0.098   4.892   8.376  0.5987 -2.5921 -0.6773
 4664TIP3   OH235550   6.047   5.892   7.652 -0.3001  0.3676  0.0023
 4664TIP3    H135551   6.075   5.827   7.716 -0.1514  0.2659 -0.1672
 4664TIP3    H235552   5.974   5.850   7.605 -0.1548  0.2952 -0.1586
 4665TIP3   OH235553   1.229   4.941   1.284 -0.1016 -0.2349  0.1615
 4665TIP3    H135554   1.291   4.978   1.346  0.5147 -1.1518  0.1109
 4665TIP3    H235555   1.158   4.906   1.339  1.0200 -2.1334  0.4692
 4666TIP3   OH235556   1.902   2.864   0.466 -0.3145  0.0675 -0.5433
 4666TIP3    H135557   1.962   2.938   0.476  0.5439 -0.5023 -1.4527
 4666TIP3    H235558   1.856   2.859   0.550  1.4520  0.0405  0.4502
 4667TIP3   OH235559   0.443   0.826   1.042 -0.6285 -0.1997 -0.1091
 4667TIP3    H135560   0.519   0.862   1.087 -1.1237  0.1302  0.4765
 4667TIP3    H235561   0.416   0.752   1.096 -2.1339  1.1013  1.0079
 4668TIP3   OH235562   2.614   1.268   1.482  0.2990 -0.3913  0.4461
 4668TIP3    H135563   2.549   1.224   1.427  0.2856  0.0460  0.1084
 4668TIP3    H235564   2.675   1.198   1.508  1.7066 -0.2062 -2.1300
 4669TIP3   OH235565   1.265   0.394   0.876  0.0168  0.3583 -0.1787
 4669TIP3    H135566   1.341   0.352   0.833 -1.1860 -2.9414  0.7355
 4669TIP3    H235567   1.231   0.454   0.810  2.6355  0.9408 -1.0773
 4670TIP3   OH235568   1.505   3.528   2.666 -0.2047 -0.0802 -0.7652
 4670TIP3    H135569   1.531   3.529   2.574  0.1391  2.4485 -0.6837
 4670TIP3    H235570   1.412   3.552   2.665 -0.2846 -0.3683 -0.4634
 4671TIP3   OH235571   2.715   0.322   6.558 -0.4043  0.4884 -0.4588
 4671TIP3    H135572   2.767   0.281   6.489 -0.2745  0.1868 -0.1834
 4671TIP3    H235573   2.655   0.253   6.587 -0.9167  0.8118 -0.7293
 4672TIP3   OH235574   2.416   1.497   1.510 -0.1279  0.1586 -0.4524
 4672TIP3    H135575   2.370   1.415   1.527 -0.2038  0.0919 -0.9574
 4672TIP3    H235576   2.359   1.565   1.546  0.7196 -0.1225  1.4679
 4673TIP3   OH235577   2.551   1.744   2.415 -0.3583  0.7789  0.1755
 4673TIP3    H135578   2.580   1.745   2.324 -0.2292  0.7526  0.2163
 4673TIP3    H235579   2.455   1.744   2.410 -0.3520  1.0543  0.0433
 4674TIP3   OH235580   0.785   3.124   8.313  0.2674 -0.8496 -0.0769
 4674TIP3    H135581   0.855   3.060   8.326  0.4469 -0.1216  3.0629
 4674TIP3    H235582   0.824   3.193   8.260  0.5236 -2.5783 -2.2117
 4675TIP3   OH235583   7.235   5.449   1.610  0.0612  0.4621 -0.2942
 4675TIP3    H135584   7.233   5.522   1.672  1.0081  1.3440 -1.2908
 4675TIP3    H235585   7.272   5.486   1.530  2.3766 -1.5767 -0.2098
 4676TIP3   OH235586   2.412   5.322   0.985  0.1596  0.2801 -0.2640
 4676TIP3    H135587   2.497   5.347   0.948 -0.0113 -0.9650 -1.5470
 4676TIP3    H235588   2.428   5.234   1.020 -0.4731  0.2527 -0.0498
 4677TIP3   OH235589   1.975   1.838   1.409 -0.4465  0.4515 -0.4264
 4677TIP3    H135590   2.015   1.810   1.491 -1.2303 -0.4609 -0.3447
 4677TIP3    H235591   2.036   1.808   1.341  0.8991  2.4243 -0.1367
 4678TIP3   OH235592   7.079   2.367   1.718 -0.1897 -0.1389  0.3498
 4678TIP3    H135593   7.070   2.407   1.805  0.4742 -2.1113  1.3562
 4678TIP3    H235594   7.006   2.305   1.713 -1.9317  1.9770 -1.6782
 4679TIP3   OH235595   0.389   1.206   0.820 -0.2362  0.4096 -0.0655
 4679TIP3    H135596   0.447   1.147   0.771 -0.8826 -1.1426  1.0032
 4679TIP3    H235597   0.393   1.288   0.771 -0.2334 -0.8451 -2.2763
 4680TIP3   OH235598   1.318   2.439   1.970 -0.2811  0.2484 -0.4062
 4680TIP3    H135599   1.234   2.434   2.014  0.4513  0.1367  0.9953
 4680TIP3    H235600   1.324   2.531   1.941 -0.2549  0.6215  0.7622
 4681TIP3   OH235601   7.277   1.234   7.138 -0.5406 -0.0231 -0.2483
 4681TIP3    H135602   7.324   1.188   7.207 -0.4735  0.3846 -0.0207
 4681TIP3    H235603   7.217   1.169   7.102  1.1733 -0.9612 -1.4771
 4682TIP3   OH235604   6.951   2.172   1.062 -0.1441 -0.6265  0.2532
 4682TIP3    H135605   6.912   2.233   1.000 -0.5648  0.0045  1.1422
 4682TIP3    H235606   6.879   2.148   1.120  0.7718  0.5257  1.8879
 4683TIP3   OH235607   1.358   1.849   0.289 -0.0520  0.1338  0.1898
 4683TIP3    H135608   1.333   1.933   0.328  0.9885  0.2947  0.5222
 4683TIP3    H235609   1.427   1.815   0.347 -1.4467 -1.6285  0.8683
 4684TIP3   OH235610   7.099   0.226   0.437  0.1950  0.2109  0.4597
 4684TIP3    H135611   7.077   0.218   0.344 -0.4711 -1.7321  0.7788
 4684TIP3    H235612   7.193   0.210   0.441  0.3360  0.9026  0.0623
 4685TIP3   OH235613   3.620   0.605   1.841  0.0017 -0.1201 -0.4807
 4685TIP3    H135614   3.701   0.557   1.860  0.8472  0.8062 -1.6550
 4685TIP3    H235615   3.585   0.562   1.762  0.2897  0.5968 -1.0072
 4686TIP3   OH235616   0.547   2.676   0.479 -0.1739 -0.0939  0.1237
 4686TIP3    H135617   0.566   2.585   0.455  1.7686  0.0022  1.1986
 4686TIP3    H235618   0.586   2.686   0.566 -0.3053  1.7918 -0.0208
 4687TIP3   OH235619   1.447   1.475   2.289  0.5488 -0.2459  0.4167
 4687TIP3    H135620   1.507   1.437   2.353  1.5171 -0.9421 -0.8691
 4687TIP3    H235621   1.381   1.408   2.276  1.1077 -0.6696 -0.3059
 4688TIP3   OH235622   4.168   0.717   7.593  0.2877 -0.0756 -0.8131
 4688TIP3    H135623   4.074   0.731   7.587  0.1957 -0.7347 -0.9439
 4688TIP3    H235624   4.193   0.682   7.507  0.4349 -1.0853 -0.3688
 4689TIP3   OH235625   7.006   1.721   0.809  0.1925 -0.3088  0.0676
 4689TIP3    H135626   7.028   1.698   0.900 -1.1403  0.8621  0.7024
 4689TIP3    H235627   7.073   1.678   0.757  0.1349 -2.1910  1.5068
 4690TIP3   OH235628   2.698   3.442   1.692  0.6917 -0.0827  0.6019
 4690TIP3    H135629   2.778   3.492   1.706  0.4525  0.2096  0.9261
 4690TIP3    H235630   2.728   3.352   1.681  1.1054  0.1078  0.1794
 4691TIP3   OH235631   7.213   1.419   1.621 -0.4158  0.2870 -0.3967
 4691TIP3    H135632   7.227   1.386   1.710 -0.1892  0.7322 -0.2646
 4691TIP3    H235633   7.295   1.402   1.576 -0.7936 -0.6339 -0.7441
 4692TIP3   OH235634   6.518   4.476   1.123 -0.1617 -0.8981 -0.1074
 4692TIP3    H135635   6.475   4.439   1.200 -0.5777  2.7710  1.5222
 4692TIP3    H235636   6.450   4.475   1.055 -0.9964 -0.6322  0.7130
 4693TIP3   OH235637   2.989   1.849   1.420  0.4684  0.1214  1.3774
 4693TIP3    H135638   3.039   1.928   1.403  0.5709  0.1173  1.6646
 4693TIP3    H235639   2.924   1.875   1.485 -0.2446  0.2614  0.6284
 4694TIP3   OH235640   1.118   2.337   0.517 -0.0271  0.1623 -0.2268
 4694TIP3    H135641   1.051   2.401   0.543 -0.9759 -1.2704  0.9414
 4694TIP3    H235642   1.100   2.320   0.425 -1.5802 -0.5288  0.1769
 4695TIP3   OH235643   0.272   5.756   0.547 -0.0929 -0.0193 -0.0047
 4695TIP3    H135644   0.305   5.825   0.604 -0.6548  0.1113  0.1733
 4695TIP3    H235645   0.331   5.756   0.471  1.6973 -1.3513  1.3579
 4696TIP3   OH235646   2.866   7.193   2.407  0.2386  0.1556 -0.0735
 4696TIP3    H135647   2.912   7.142   2.340 -0.4606  1.5116 -1.6322
 4696TIP3    H235648   2.857   7.280   2.368 -1.8852  0.4573  1.0068
 4697TIP3   OH235649   6.846   5.375   7.619  0.4646 -0.4322  0.6621
 4697TIP3    H135650   6.817   5.309   7.682 -0.0046 -1.6244 -0.7783
 4697TIP3    H235651   6.894   5.326   7.552 -0.2231  0.6266 -0.6356
 4698TIP3   OH235652   5.615   3.668   1.544  0.2579  0.2050  0.0020
 4698TIP3    H135653   5.583   3.701   1.460  1.8427 -0.7449 -1.0062
 4698TIP3    H235654   5.544   3.687   1.606 -0.3761  2.1330 -1.2650
 4699TIP3   OH235655   1.461   6.386   8.231  0.4990  0.5149  0.2058
 4699TIP3    H135656   1.534   6.325   8.233  1.0006  1.1457  1.9485
 4699TIP3    H235657   1.416   6.374   8.315 -0.8686  0.7746 -0.4635
 4700TIP3   OH235658   5.584   6.623   1.827 -0.3433 -0.4041 -0.1948
 4700TIP3    H135659   5.642   6.688   1.867 -0.1505  0.7239 -2.2598
 4700TIP3    H235660   5.566   6.561   1.898  0.0842  1.4536  1.6001
 4701TIP3   OH235661   2.559   6.160   8.104  0.5470  0.6460 -0.0203
 4701TIP3    H135662   2.580   6.067   8.107  1.7338  0.8635 -1.0951
 4701TIP3    H235663   2.469   6.165   8.136  1.9055 -0.3436  4.2709
 4702TIP3   OH235664   1.614   1.724   1.803 -0.2441  0.5598 -0.7945
 4702TIP3    H135665   1.601   1.634   1.771  1.0991  0.7441 -1.9316
 4702TIP3    H235666   1.594   1.720   1.896  1.5601 -1.3420 -0.4443
 4703TIP3   OH235667   0.134   0.617   1.342 -0.6237  0.4276 -0.4923
 4703TIP3    H135668   0.075   0.623   1.417  0.5769 -0.1653  0.5260
 4703TIP3    H235669   0.157   0.707   1.321  0.6045  0.5064  1.1374
 4704TIP3   OH235670   6.900   5.337   0.300 -0.5052  0.3892 -0.1749
 4704TIP3    H135671   6.866   5.378   0.221  1.6815  0.3753 -1.1816
 4704TIP3    H235672   6.949   5.406   0.344  1.1299 -0.4376 -0.6218
 4705TIP3   OH235673   7.129   4.846   7.983 -0.1074  0.7507  0.5041
 4705TIP3    H135674   7.137   4.758   8.018 -1.5921 -0.3105 -1.7340
 4705TIP3    H235675   7.060   4.887   8.037 -0.0097  0.2685  0.9970
 4706TIP3   OH235676   1.818   1.528   0.696 -0.7346  0.6270  0.6230
 4706TIP3    H135677   1.761   1.548   0.770  0.7676  1.0469  1.6997
 4706TIP3    H235678   1.859   1.612   0.675  1.1153 -0.0768  1.2969
 4707TIP3   OH235679   1.096   0.913   8.031  0.9286 -0.0407  0.2782
 4707TIP3    H135680   1.170   0.856   8.053  2.2857  1.0734 -1.2784
 4707TIP3    H235681   1.130   1.002   8.041 -0.7348  0.5069  1.2478
 4708TIP3   OH235682   1.098   3.084   0.295 -1.0498  0.2979 -0.3817
 4708TIP3    H135683   1.069   2.994   0.285  1.6335 -0.7662  0.8283
 4708TIP3    H235684   1.163   3.081   0.365  0.4747  2.8353 -1.5954
 4709TIP3   OH235685   7.134   1.314   7.814  0.4004  0.3008 -0.1484
 4709TIP3    H135686   7.087   1.390   7.779 -1.0296 -1.0564 -1.2894
 4709TIP3    H235687   7.104   1.307   7.904 -1.0666 -0.1344 -0.6603
 4710TIP3   OH235688   2.347   1.310   2.208  0.3767  0.3874  0.5477
 4710TIP3    H135689   2.269   1.283   2.257  1.0516 -2.4941  0.0875
 4710TIP3    H235690   2.416   1.318   2.274 -0.1775  2.6861  0.9161
 4711TIP3   OH235691   1.784   2.699   1.529  0.2088 -0.3745 -1.2101
 4711TIP3    H135692   1.793   2.704   1.624  0.9812  0.4728 -1.3118
 4711TIP3    H235693   1.870   2.669   1.499  0.9853  2.3662 -1.8489
 4712TIP3   OH235694   1.359   0.447   7.057 -0.1921 -0.1057 -0.1590
 4712TIP3    H135695   1.419   0.484   6.992  1.2024 -0.5000  0.8908
 4712TIP3    H235696   1.363   0.353   7.042 -1.3307 -0.0775 -0.7368
 4713TIP3   OH235697   0.903   5.746   7.712  0.2926 -0.0830 -0.0115
 4713TIP3    H135698   0.881   5.827   7.758 -1.0833 -0.6853  0.4284
 4713TIP3    H235699   0.854   5.752   7.629  2.0761  0.6065 -1.0489
 4714TIP3   OH235700   2.712   6.833   0.605 -0.1732  0.1919  0.2025
 4714TIP3    H135701   2.773   6.789   0.664  0.3243  0.5682 -0.0307
 4714TIP3    H235702   2.626   6.818   0.644  0.0998 -0.0480  0.7133
 4715TIP3   OH235703   1.361   2.470   7.958  0.3390  0.2761 -0.2830
 4715TIP3    H135704   1.330   2.399   7.901 -0.9507  1.5163 -1.1507
 4715TIP3    H235705   1.353   2.549   7.905 -0.7842  1.4478  1.5510
 4716TIP3   OH235706   6.435   1.528   1.263 -0.0736  0.3008 -0.1900
 4716TIP3    H135707   6.447   1.473   1.340  1.1746  1.9828  0.8546
 4716TIP3    H235708   6.521   1.529   1.221  0.0201  1.7275  0.0104
 4717TIP3   OH235709   4.640   1.499   7.121 -0.0075 -0.6039  0.1295
 4717TIP3    H135710   4.650   1.500   7.026 -0.2861 -0.4968  0.1016
 4717TIP3    H235711   4.615   1.408   7.141  0.6217 -0.7717  0.1586
 4718TIP3   OH235712   0.401   1.814   0.812 -0.5087  0.0003  0.0915
 4718TIP3    H135713   0.480   1.859   0.784 -0.1233 -0.8005 -0.1149
 4718TIP3    H235714   0.431   1.744   0.869 -1.0971 -0.0704  0.3243
 4719TIP3   OH235715   7.235   4.470   2.017 -0.0394 -0.5695 -0.9583
 4719TIP3    H135716   7.260   4.500   2.105  0.6962 -0.8343 -1.0766
 4719TIP3    H235717   7.140   4.458   2.022 -0.3594  1.6586 -0.8634
 4720TIP3   OH235718   2.493   3.719   7.087  0.2352 -0.2637  0.0811
 4720TIP3    H135719   2.458   3.805   7.110 -1.7111 -0.7797 -0.8422
 4720TIP3    H235720   2.547   3.735   7.010 -0.4380  0.0824 -0.3242
 4721TIP3   OH235721   0.666   2.118   2.027 -0.2018  0.2758 -0.0477
 4721TIP3    H135722   0.644   2.090   2.115  1.4965 -0.9129  0.0253
 4721TIP3    H235723   0.603   2.188   2.007 -1.2631 -0.1683  1.6818
 4722TIP3   OH235724   2.485   3.513   6.711  0.1520 -0.7825 -0.4281
 4722TIP3    H135725   2.567   3.488   6.754 -0.0353 -1.0470 -0.2198
 4722TIP3    H235726   2.417   3.491   6.775  0.0772  1.9256  0.4935
 4723TIP3   OH235727   3.556   2.687   1.920  0.1013 -0.6648 -0.1193
 4723TIP3    H135728   3.552   2.646   2.006 -0.2458 -0.0464  0.1601
 4723TIP3    H235729   3.541   2.615   1.859 -1.1820 -0.8445  0.3902
 4724TIP3   OH235730   0.792   6.941   1.823 -0.2192 -0.6155 -0.0081
 4724TIP3    H135731   0.809   6.878   1.893  3.4167 -0.7153 -0.8767
 4724TIP3    H235732   0.807   6.893   1.742 -2.7916 -0.0575 -0.8625
 4725TIP3   OH235733   2.063   4.233   7.756  0.0894 -0.5673 -0.3302
 4725TIP3    H135734   2.153   4.204   7.737  1.0476  1.1830  1.2877
 4725TIP3    H235735   2.020   4.236   7.671  1.5771 -1.3810 -1.1413
 4726TIP3   OH235736   0.683   2.827   7.009 -0.5847 -0.4194 -0.0373
 4726TIP3    H135737   0.740   2.752   6.988  0.6247  0.6380 -0.6270
 4726TIP3    H235738   0.626   2.836   6.933  1.0345  0.8623 -1.1320
 4727TIP3   OH235739   3.806   4.635   1.896 -0.4092  0.0139 -0.2523
 4727TIP3    H135740   3.831   4.608   1.984 -1.6209 -1.3465 -0.3070
 4727TIP3    H235741   3.882   4.682   1.863 -0.2391  1.2473  1.8136
 4728TIP3   OH235742   1.936   1.075   0.557  0.0368  0.5205  0.1287
 4728TIP3    H135743   1.988   1.031   0.625 -2.3922  0.6665  2.1620
 4728TIP3    H235744   1.925   1.009   0.489 -0.5151 -0.8612  1.5091
 4729TIP3   OH235745   1.375   3.977   1.320  0.2978  0.4599 -0.4030
 4729TIP3    H135746   1.379   3.885   1.293 -0.4280  0.1544  0.5076
 4729TIP3    H235747   1.316   4.018   1.257  0.2331  0.1908 -0.5184
 4730TIP3   OH235748   1.483   5.591   8.341  0.2212 -0.0268  0.2105
 4730TIP3    H135749   1.455   5.681   8.357 -0.3800 -0.3755  1.1099
 4730TIP3    H235750   1.577   5.599   8.322  0.2059  0.7692  0.4371
 4731TIP3   OH235751   5.087   0.957   1.231 -0.3304 -0.4941 -0.1413
 4731TIP3    H135752   5.030   0.921   1.300 -0.2327 -0.5657 -0.0982
 4731TIP3    H235753   5.150   1.011   1.279  1.1093 -2.2825  0.0486
 4732TIP3   OH235754   0.922   3.927   0.901 -0.0465  0.4978 -0.4830
 4732TIP3    H135755   0.981   3.937   0.975 -0.3766  1.9435 -0.3917
 4732TIP3    H235756   0.949   3.995   0.839 -1.8832  1.4954 -0.2387
 4733TIP3   OH235757   5.078   0.792   8.398 -0.0681  0.3876  0.6270
 4733TIP3    H135758   5.039   0.802   8.311  0.1803  1.6811  0.6495
 4733TIP3    H235759   5.134   0.869   8.408  0.5950 -0.2017  1.5794
 4734TIP3   OH235760   6.860   6.603   0.108  0.3798 -0.0666  0.8388
 4734TIP3    H135761   6.919   6.528   0.101 -0.4617 -0.5868 -0.7968
 4734TIP3    H235762   6.919   6.679   0.104  1.0162 -0.5893 -0.0566
 4735TIP3   OH235763   0.733   0.578   7.784 -0.0431  0.3221  0.5106
 4735TIP3    H135764   0.802   0.602   7.846 -0.2781  2.6847 -0.0823
 4735TIP3    H235765   0.693   0.499   7.822  1.6515  0.0894  1.8860
 4736TIP3   OH235766   0.920   6.077   1.042  0.0023  0.1708 -0.4763
 4736TIP3    H135767   0.900   5.984   1.027  0.4764  0.2406 -1.5977
 4736TIP3    H235768   0.862   6.103   1.113  0.0881 -1.0724  0.0595
 4737TIP3   OH235769   3.950   0.143   1.685  0.1995 -0.0742 -0.1148
 4737TIP3    H135770   4.034   0.180   1.656  0.0062  0.1500 -0.3868
 4737TIP3    H235771   3.973   0.089   1.760  0.3943  1.1427  0.7143
 4738TIP3   OH235772   1.732   2.592   0.609 -0.1758 -0.3081 -0.2604
 4738TIP3    H135773   1.752   2.679   0.643 -0.6884 -0.5811  0.7760
 4738TIP3    H235774   1.815   2.559   0.575 -0.1318  0.8677 -1.3376
 4739TIP3   OH235775   3.820   3.454   2.395 -0.4780 -0.1161 -0.0288
 4739TIP3    H135776   3.907   3.437   2.360 -0.1781 -1.2806  1.2430
 4739TIP3    H235777   3.760   3.412   2.333  0.0279 -1.8843  0.6625
 4740TIP3   OH235778   1.413   2.806   0.235  0.6465  0.4375 -0.2822
 4740TIP3    H135779   1.395   2.784   0.144  4.5374 -1.1051 -0.7639
 4740TIP3    H235780   1.361   2.744   0.286 -1.8262  1.5370 -1.3522
 4741TIP3   OH235781   2.466   2.447   2.113  0.6964  0.0010 -0.1563
 4741TIP3    H135782   2.513   2.472   2.192 -0.1748  2.2214 -0.3013
 4741TIP3    H235783   2.392   2.507   2.109 -0.5518 -1.5626 -1.4613
 4742TIP3   OH235784   0.047   3.355   7.603 -0.2168  0.4801  0.0489
 4742TIP3    H135785   0.039   3.278   7.547 -0.4913  0.2734  0.3716
 4742TIP3    H235786   0.140   3.379   7.597 -0.3730  0.8186 -0.9580
 4743TIP3   OH235787   0.428   1.803   7.445 -0.2860  0.7372 -0.0005
 4743TIP3    H135788   0.402   1.817   7.536 -1.3911  1.3783 -0.4016
 4743TIP3    H235789   0.513   1.758   7.450 -1.0408 -0.5437  1.3298
 4744TIP3   OH235790   3.566   1.446   8.296 -0.0671 -0.0293  0.2023
 4744TIP3    H135791   3.515   1.374   8.332  0.3457 -0.4457 -0.0392
 4744TIP3    H235792   3.515   1.476   8.220 -0.0038 -0.3799  0.0201
 4745TIP3   OH235793   2.939   2.891   7.380 -0.4738  0.3658 -0.5038
 4745TIP3    H135794   2.887   2.909   7.458 -0.3282 -0.8983 -0.0942
 4745TIP3    H235795   2.916   2.960   7.318 -0.7050  1.2954  0.6005
 4746TIP3   OH235796   3.236   1.925   0.875  0.1079  0.1402 -0.4257
 4746TIP3    H135797   3.293   1.848   0.883 -2.1631 -1.4915  0.7086
 4746TIP3    H235798   3.251   1.975   0.955 -0.2789 -0.4953  0.0596
 4747TIP3   OH235799   1.901   2.512   7.643  0.4363  0.2601 -0.2042
 4747TIP3    H135800   1.943   2.503   7.557 -1.8012  0.8420 -1.4233
 4747TIP3    H235801   1.961   2.470   7.704  2.6394  0.8559 -1.8754
 4748TIP3   OH235802   1.560   3.052   1.059 -0.5444  0.4949 -0.0042
 4748TIP3    H135803   1.646   3.023   1.088  0.2840  0.7679 -2.1105
 4748TIP3    H235804   1.545   3.134   1.105  1.1454  1.3923 -0.9821
 4749TIP3   OH235805   3.406   4.345   8.072  0.1414 -0.0706  0.7044
 4749TIP3    H135806   3.451   4.428   8.090  0.2978 -0.0621  0.2633
 4749TIP3    H235807   3.476   4.281   8.061  0.2067  0.4991 -2.9152
 4750TIP3   OH235808   4.640   3.142   2.148 -0.4479  0.4080  0.1025
 4750TIP3    H135809   4.592   3.222   2.171 -0.3525  0.0781  1.4875
 4750TIP3    H235810   4.732   3.164   2.161 -0.1809  1.0492 -2.5846
 4751TIP3   OH235811   1.802   2.118   1.360  0.0254 -0.0701 -0.0134
 4751TIP3    H135812   1.880   2.096   1.308  0.5339  1.3874  0.1283
 4751TIP3    H235813   1.815   2.072   1.443  0.7639  0.2079  0.0295
 4752TIP3   OH235814   2.182   1.158   7.773 -0.6277  0.0287 -0.4339
 4752TIP3    H135815   2.201   1.239   7.820  1.7349 -0.3077 -0.7858
 4752TIP3    H235816   2.170   1.186   7.682  3.6236 -0.3575 -1.2154
 4753TIP3   OH235817   4.781   4.358   6.664  0.3214 -0.2364  1.0405
 4753TIP3    H135818   4.800   4.396   6.578 -1.1916 -1.1239  0.2907
 4753TIP3    H235819   4.757   4.434   6.719 -2.3241  0.0112 -0.3476
 4754TIP3   OH235820   1.182   0.254   7.344 -0.1642  0.2775  0.2436
 4754TIP3    H135821   1.174   0.349   7.346 -1.2236  0.2070 -0.2148
 4754TIP3    H235822   1.125   0.223   7.414  1.1462  0.0286  1.2163
 4755TIP3   OH235823   1.812   3.753   0.981  0.3118 -0.1224  1.2178
 4755TIP3    H135824   1.773   3.670   0.955  2.5589 -1.2549  1.3380
 4755TIP3    H235825   1.744   3.798   1.030 -1.9277 -0.6043 -1.3304
 4756TIP3   OH235826   1.287   2.404   6.861  1.4389 -0.0113 -0.1646
 4756TIP3    H135827   1.193   2.393   6.845  1.1305 -0.3843  1.6978
 4756TIP3    H235828   1.306   2.493   6.835  0.6719 -0.1021 -1.0613
 4757TIP3   OH235829   0.423   3.538   0.400 -0.3036 -0.3334 -0.4134
 4757TIP3    H135830   0.473   3.484   0.461  1.0933  1.8304  0.4080
 4757TIP3    H235831   0.466   3.525   0.315  1.6035  1.3623  0.2487
 4758TIP3   OH235832   4.114   2.608   7.204  0.0805 -0.4535 -0.0835
 4758TIP3    H135833   4.067   2.638   7.126  1.0211 -0.8077 -0.7907
 4758TIP3    H235834   4.107   2.513   7.201  0.6631 -0.4986 -0.0855
 4759TIP3   OH235835   0.551   6.062   1.790 -0.1064  0.3436  0.4702
 4759TIP3    H135836   0.622   6.011   1.830 -0.7155  1.1384  2.6403
 4759TIP3    H235837   0.473   6.006   1.800 -0.2841  0.5913  0.4715
 4760TIP3   OH235838   1.123   3.169   1.502  0.6012 -0.7737  0.0119
 4760TIP3    H135839   1.162   3.201   1.420 -0.5647  0.3692 -0.0984
 4760TIP3    H235840   1.029   3.177   1.489  0.3540 -2.2032  0.8305
 4761TIP3   OH235841   4.967   2.265   7.165 -0.2257  0.1383 -0.6397
 4761TIP3    H135842   4.919   2.219   7.234  0.2613 -1.2609 -1.2120
 4761TIP3    H235843   4.941   2.221   7.084  1.4279 -0.1481 -1.0387
 4762TIP3   OH235844   1.623   2.318   1.806 -0.1056 -0.5386  0.5928
 4762TIP3    H135845   1.711   2.344   1.780 -0.2062  1.4551  2.1284
 4762TIP3    H235846   1.630   2.299   1.900 -1.7717  1.9090  1.2681
 4763TIP3   OH235847   2.089   5.301   0.286 -0.1890 -0.0886 -0.1119
 4763TIP3    H135848   2.037   5.342   0.217 -0.4465 -0.4015 -0.1003
 4763TIP3    H235849   2.127   5.223   0.245  0.0258 -0.0265 -0.0328
 4764TIP3   OH235850   4.891   3.469   7.160  0.5680 -0.9024 -1.3497
 4764TIP3    H135851   4.836   3.548   7.160  0.1168 -1.1725  1.3953
 4764TIP3    H235852   4.829   3.397   7.149  0.1006 -1.2941  2.9211
 4765TIP3   OH235853   2.137   0.387   1.798  0.2273  0.3906  0.4502
 4765TIP3    H135854   2.192   0.327   1.748 -0.4170  2.0587 -2.4350
 4765TIP3    H235855   2.086   0.331   1.856  1.4981 -1.6078 -0.3045
 4766TIP3   OH235856   2.596   0.619   0.422  0.4513 -0.1488 -0.7679
 4766TIP3    H135857   2.509   0.596   0.454  0.3930 -1.5752 -1.8750
 4766TIP3    H235858   2.656   0.577   0.483  0.3735  0.5698 -0.1871
 4767TIP3   OH235859   4.507   0.373   0.018  0.2365  0.0228  0.5519
 4767TIP3    H135860   4.500   0.293  -0.035  2.3549  0.2028 -0.0196
 4767TIP3    H235861   4.601   0.388   0.028 -0.0904  3.2890 -0.6128
 4768TIP3   OH235862   0.340   1.580   1.136  0.1244 -0.0633  0.4811
 4768TIP3    H135863   0.331   1.663   1.184 -1.6073  0.2933 -0.4183
 4768TIP3    H235864   0.386   1.605   1.056 -2.8477  0.5932 -1.0945
 4769TIP3   OH235865   1.512   3.475   2.395  0.1953 -0.8435  0.4439
 4769TIP3    H135866   1.601   3.450   2.372 -0.1333 -0.9466 -0.7561
 4769TIP3    H235867   1.456   3.415   2.345 -0.5592  0.8283 -0.8052
 4770TIP3   OH235868   3.431   4.310   1.287 -0.2195  0.8587  0.3669
 4770TIP3    H135869   3.496   4.371   1.321 -0.9693  1.7131  0.3103
 4770TIP3    H235870   3.400   4.262   1.364  0.6186  0.3000  0.3624
 4771TIP3   OH235871   1.960   5.239   0.665  0.0834  0.0903  0.0164
 4771TIP3    H135872   1.921   5.306   0.608 -0.7953 -1.8682 -1.7555
 4771TIP3    H235873   1.891   5.174   0.676  1.2243 -0.9859  0.9521
 4772TIP3   OH235874   4.782   5.220   0.185 -0.2904 -0.7583  0.3993
 4772TIP3    H135875   4.874   5.242   0.200  0.6802 -2.8284 -2.1608
 4772TIP3    H235876   4.739   5.238   0.269  2.1673  1.5141  1.2309
 4773TIP3   OH235877   2.951   2.711   6.822  0.5698  0.6158 -0.0856
 4773TIP3    H135878   2.879   2.707   6.884  0.4884 -1.1430 -0.2912
 4773TIP3    H235879   3.005   2.635   6.843  0.5543  0.0226 -2.1622
 4774TIP3   OH235880   5.205   3.638   2.168  0.1024  0.2245  0.5190
 4774TIP3    H135881   5.298   3.657   2.168 -0.1621  1.5785 -0.5387
 4774TIP3    H235882   5.174   3.667   2.082 -1.1302 -1.0133  0.5266
 4775TIP3   OH235883   2.743   5.449   0.438  0.0605 -0.1539 -0.2283
 4775TIP3    H135884   2.710   5.369   0.399 -0.8475  0.1679 -0.1327
 4775TIP3    H235885   2.750   5.511   0.365  0.1786 -0.1332 -0.2001
 4776TIP3   OH235886   3.781   3.437   1.065 -0.4624 -0.5828  0.2048
 4776TIP3    H135887   3.692   3.412   1.091  0.1138 -0.5240  2.2801
 4776TIP3    H235888   3.772   3.527   1.033 -0.9230 -0.0827  1.7157
 4777TIP3   OH235889   2.790   2.756   2.201 -0.2877  0.0347  0.1889
 4777TIP3    H135890   2.711   2.735   2.151 -0.8845  1.0798  0.6619
 4777TIP3    H235891   2.758   2.774   2.289  0.7003 -1.2652  0.8239
 4778TIP3   OH235892   1.860   1.331   2.140 -0.0190 -0.1427 -0.2765
 4778TIP3    H135893   1.794   1.329   2.070  0.1700 -0.2062 -0.4528
 4778TIP3    H235894   1.866   1.424   2.164 -1.2677 -0.3180  0.7824
 4779TIP3   OH235895   0.646   0.058   7.507  0.2602  0.6967  0.3756
 4779TIP3    H135896   0.611   0.089   7.423  1.5513  0.1158 -0.3834
 4779TIP3    H235897   0.631  -0.037   7.506 -0.0770  0.7408  0.9726
 4780TIP3   OH235898   3.504   0.582   0.856 -0.1204  0.3058 -0.3813
 4780TIP3    H135899   3.434   0.587   0.791  0.6819 -0.1774 -1.3022
 4780TIP3    H235900   3.584   0.595   0.805  0.5312 -0.4339  0.4531
 4781TIP3   OH235901   1.381   4.572   0.965  0.6658  0.3692 -0.2721
 4781TIP3    H135902   1.395   4.658   1.004 -0.8800  0.1892  0.7132
 4781TIP3    H235903   1.305   4.584   0.907  0.9326 -0.1474 -0.7355
 4782TIP3   OH235904   2.308   0.113   7.135  0.3141 -0.4609  0.1817
 4782TIP3    H135905   2.402   0.124   7.126 -0.0332  2.9907  0.1808
 4782TIP3    H235906   2.297   0.057   7.212  2.3305 -0.7322  0.2924
 4783TIP3   OH235907   0.419   3.342   2.039 -0.3139  0.3244  0.2767
 4783TIP3    H135908   0.507   3.304   2.033 -0.1036  0.8036  0.3118
 4783TIP3    H235909   0.415   3.380   2.127 -0.4457  0.5716  0.1659
 4784TIP3   OH235910   2.127   3.930   1.658  0.5560  0.3650  0.0325
 4784TIP3    H135911   2.197   3.940   1.594  0.6752 -1.2920 -0.1056
 4784TIP3    H235912   2.143   3.845   1.699 -0.3831  0.7365  1.2045
 4785TIP3   OH235913   2.587   3.653   0.666  0.0827  0.3104 -0.4008
 4785TIP3    H135914   2.631   3.570   0.647 -0.5824 -0.1853  0.2168
 4785TIP3    H235915   2.619   3.677   0.753  0.4602  0.8257 -0.6813
 4786TIP3   OH235916   2.703   2.036   2.820 -0.2039 -0.3559  0.3226
 4786TIP3    H135917   2.743   1.959   2.780  0.8003 -0.7053  1.9516
 4786TIP3    H235918   2.756   2.109   2.790  0.4052 -0.5916  0.8157
 4787TIP3   OH235919   0.873   1.827   7.892  0.2635  0.5765 -0.8282
 4787TIP3    H135920   0.916   1.825   7.977  0.4591 -1.3691 -0.9553
 4787TIP3    H235921   0.871   1.920   7.869 -0.5825  1.2183  1.6759
 4788TIP3   OH235922   1.702   3.365   0.034 -0.5159  0.2170 -0.7938
 4788TIP3    H135923   1.783   3.368   0.084  0.1895 -1.7203 -1.7712
 4788TIP3    H235924   1.633   3.360   0.100  0.2935 -0.1330  0.0291
 4789TIP3   OH235925   2.074   2.363   1.004 -0.0633  0.3584 -0.3592
 4789TIP3    H135926   2.094   2.306   0.930  0.9689  0.7191 -0.3745
 4789TIP3    H235927   1.988   2.335   1.034 -1.1736  1.1690 -2.6260
 4790TIP3   OH235928   2.124   0.840   1.633 -0.2268  0.0517  0.3576
 4790TIP3    H135929   2.090   0.929   1.642 -3.4547 -0.6712 -3.0709
 4790TIP3    H235930   2.141   0.831   1.539 -0.9439 -3.2477  0.4979
 4791TIP3   OH235931   0.958   3.404   8.002 -0.8101 -0.4326  0.3506
 4791TIP3    H135932   1.028   3.412   8.066 -0.2347  0.2898 -0.3605
 4791TIP3    H235933   0.951   3.491   7.963 -0.3615 -1.1537 -1.3882
 4792TIP3   OH235934   2.173   3.338   1.297 -0.3299  0.0025 -0.1261
 4792TIP3    H135935   2.256   3.382   1.317 -2.0503  2.0783  2.8307
 4792TIP3    H235936   2.180   3.253   1.341 -0.2741  0.6964  1.2262
 4793TIP3   OH235937   2.040   0.543   0.813  0.0226 -0.0559  0.6253
 4793TIP3    H135938   1.974   0.598   0.854 -0.3740  0.7826 -1.0652
 4793TIP3    H235939   2.045   0.576   0.723  2.3484 -0.4519  0.5778
 4794TIP3   OH235940   1.481   0.824   1.323 -0.3168  0.7008 -0.4151
 4794TIP3    H135941   1.507   0.816   1.415  3.0333  3.1767 -1.0393
 4794TIP3    H235942   1.489   0.735   1.287  0.3279  0.1029  1.1863
 4795TIP3   OH235943   2.860   1.715   0.631  0.2754  0.2498  0.2454
 4795TIP3    H135944   2.793   1.712   0.699  0.9509  0.3474  0.9323
 4795TIP3    H235945   2.818   1.757   0.557 -0.4870  0.1052  0.5922
 4796TIP3   OH235946   3.867   4.186   7.445 -0.4140  0.1034  0.0237
 4796TIP3    H135947   3.825   4.106   7.414 -0.8765  1.5625 -3.3503
 4796TIP3    H235948   3.797   4.237   7.485 -0.5029 -0.3564  0.4491
 4797TIP3   OH235949   0.201   1.752   8.343  0.3255  0.3224 -0.0580
 4797TIP3    H135950   0.285   1.793   8.363 -0.2159  0.8289  1.2399
 4797TIP3    H235951   0.213   1.714   8.256  2.3049 -0.6863  0.6142
 4798TIP3   OH235952   3.798   3.764   2.383 -0.2364 -0.2740  0.4730
 4798TIP3    H135953   3.818   3.683   2.337 -1.0480 -0.1414 -0.1264
 4798TIP3    H235954   3.748   3.737   2.460 -1.1962 -0.2866 -0.1466
 4799TIP3   OH235955   2.033   3.510   2.077  0.3742 -0.0852  0.9016
 4799TIP3    H135956   2.122   3.545   2.088  0.4942  0.1161 -0.5842
 4799TIP3    H235957   2.030   3.484   1.985 -1.2135  0.1874  0.8750
 4800TIP3   OH235958   1.733   1.818   2.097  0.4998 -0.1029 -0.3820
 4800TIP3    H135959   1.803   1.874   2.129  1.5410 -1.6030 -0.0094
 4800TIP3    H235960   1.704   1.860   2.016  2.0468  0.3581 -0.7068
 4801TIP3   OH235961   2.086   3.109   0.849 -0.2205  0.1642  0.3987
 4801TIP3    H135962   2.050   3.050   0.914 -0.7815 -0.5927 -0.5838
 4801TIP3    H235963   2.068   3.197   0.883 -0.5314 -0.2244  1.2366
 4802TIP3   OH235964   3.809   7.070   2.009 -0.0298 -0.5166  0.4396
 4802TIP3    H135965   3.741   7.066   2.076 -0.6120 -1.6697 -0.2008
 4802TIP3    H235966   3.836   6.979   1.996 -0.2732 -0.3776 -1.2319
 4803TIP3   OH235967   3.426   2.652   7.608  0.6410  0.4736 -0.9494
 4803TIP3    H135968   3.404   2.608   7.690  2.6414 -0.2961 -0.7914
 4803TIP3    H235969   3.380   2.602   7.541 -0.8516  0.9903 -0.3386
 4804TIP3   OH235970   6.715   3.033   1.894  0.3386  0.3199  0.1222
 4804TIP3    H135971   6.627   3.027   1.857  0.0563  0.3198  0.7727
 4804TIP3    H235972   6.700   3.053   1.987  1.0282  0.4859  0.2025
 4805TIP3   OH235973   4.719   4.398   1.639  0.2216  0.0979  0.1880
 4805TIP3    H135974   4.807   4.433   1.628  2.0573 -4.9273 -3.0387
 4805TIP3    H235975   4.722   4.349   1.722  1.2144 -1.9013 -0.9996
 4806TIP3   OH235976   3.629   4.121   6.973 -0.3653  0.1387 -0.1218
 4806TIP3    H135977   3.671   4.202   7.004  0.2598  0.6632 -2.2143
 4806TIP3    H235978   3.690   4.086   6.908 -1.8496 -0.6260 -1.1359
 4807TIP3   OH235979   2.812   3.876   7.059  0.5685  0.2384 -0.6539
 4807TIP3    H135980   2.744   3.884   6.992 -0.2750 -0.4721  0.0963
 4807TIP3    H235981   2.766   3.892   7.142  1.1951 -0.8096 -0.0894
 4808TIP3   OH235982   3.047   3.545   7.603 -0.4075 -0.2543  0.0233
 4808TIP3    H135983   2.962   3.508   7.628 -0.6382 -0.0842 -0.4893
 4808TIP3    H235984   3.100   3.540   7.682 -1.2666  0.7167  0.6635
 4809TIP3   OH235985   5.969   1.182   1.466 -0.7290  0.1556  0.0596
 4809TIP3    H135986   5.946   1.224   1.549  0.0568 -0.7972  0.7675
 4809TIP3    H235987   5.885   1.171   1.421 -1.2373  0.1179  0.9906
 4810TIP3   OH235988   1.579   3.487   2.944 -0.4550  0.5526 -0.3487
 4810TIP3    H135989   1.526   3.487   2.864 -3.2830  1.1720  1.4568
 4810TIP3    H235990   1.519   3.517   3.013  0.8037 -3.5544  2.7405
 4811TIP3   OH235991   0.692   3.237   2.033 -0.4677  0.4190 -0.0303
 4811TIP3    H135992   0.702   3.270   2.122 -0.3420 -0.3642  0.2507
 4811TIP3    H235993   0.681   3.315   1.979  1.8321  1.0300  0.3521
 4812TIP3   OH235994   3.933   3.430   6.822  0.6045  0.4817 -0.1185
 4812TIP3    H135995   3.994   3.358   6.805 -0.3634 -0.1781 -0.8283
 4812TIP3    H235996   3.904   3.458   6.735  1.1441  1.8859  0.1388
 4813TIP3   OH235997   4.145   0.832   0.607  0.2669 -0.0549 -0.2061
 4813TIP3    H135998   4.137   0.857   0.700  0.6941 -1.6927  0.2829
 4813TIP3    H235999   4.124   0.913   0.559 -1.6220  0.3879  1.2856
 4814TIP3   OH236000   2.649   3.866   2.247 -0.3928 -0.4654 -0.3116
 4814TIP3    H136001   2.592   3.813   2.192 -1.3342  0.9008 -0.6905
 4814TIP3    H236002   2.612   3.859   2.335 -1.6892  1.1121 -0.7091
 4815TIP3   OH236003   1.900   5.341   0.051 -0.0469  0.0146 -0.4751
 4815TIP3    H136004   1.928   5.250   0.062 -0.9207 -0.2727 -0.5870
 4815TIP3    H236005   1.884   5.350  -0.044 -0.8284  0.0237 -0.3475
 4816TIP3   OH236006   2.706   2.394   1.109  0.1787 -0.2508  0.0785
 4816TIP3    H136007   2.783   2.395   1.166 -0.3084 -1.6688  0.7829
 4816TIP3    H236008   2.652   2.323   1.143 -0.6412 -0.3813 -1.4718
 4817TIP3   OH236009   3.245   0.569   6.431 -0.3807  0.2928  0.6967
 4817TIP3    H136010   3.200   0.486   6.412 -0.5788  0.0718  2.0960
 4817TIP3    H236011   3.302   0.549   6.505  0.9285  0.9538 -0.1210
 4818TIP3   OH236012   2.842   2.481   8.199 -0.0096 -0.5232  0.6301
 4818TIP3    H136013   2.927   2.453   8.232  0.1331 -0.7968  0.0337
 4818TIP3    H236014   2.843   2.577   8.208  0.4704 -0.5033  0.3627
 4819TIP3   OH236015   2.065   2.649   1.464 -0.5348 -0.2924 -0.0889
 4819TIP3    H136016   2.155   2.668   1.490 -0.5335 -0.0500 -0.2725
 4819TIP3    H236017   2.072   2.618   1.373 -0.8427  1.5958 -0.7707
 4820TIP3   OH236018   2.699   5.400   0.921 -0.1206 -0.2751  0.7505
 4820TIP3    H136019   2.714   5.335   0.989 -2.4230  0.4124  1.9789
 4820TIP3    H236020   2.762   5.470   0.939  0.4626 -0.9029  1.1242
 4821TIP3   OH236021   1.742   0.658   0.661 -0.1453 -0.1112 -0.4104
 4821TIP3    H136022   1.832   0.688   0.676 -0.0770  0.0530 -1.1318
 4821TIP3    H236023   1.696   0.681   0.742 -0.0138  1.6571 -0.8066
 4822TIP3   OH236024   2.525   2.945   0.180  0.2814  0.4167 -0.4933
 4822TIP3    H136025   2.586   3.011   0.147  0.0171 -0.6033 -3.1965
 4822TIP3    H236026   2.580   2.871   0.206  0.4040  0.7256  0.1333
 4823TIP3   OH236027   3.811   3.531   2.667 -0.6089  0.4049 -0.3459
 4823TIP3    H136028   3.727   3.499   2.702 -1.0539  0.8848 -0.9634
 4823TIP3    H236029   3.814   3.497   2.578  0.0893 -0.0201 -0.1667
 4824TIP3   OH236030   5.170   1.714   2.332 -0.0475 -0.0495  0.0789
 4824TIP3    H136031   5.143   1.723   2.240  1.1748 -0.2126 -0.3023
 4824TIP3    H236032   5.089   1.727   2.381 -0.3959  1.9435 -0.9339
 4825TIP3   OH236033   1.982   3.874   1.422  0.0644  0.2209 -0.0533
 4825TIP3    H136034   2.007   3.878   1.514  2.6351  1.0061 -0.7509
 4825TIP3    H236035   2.031   3.800   1.387 -0.9802 -0.1359 -0.7996
 4826TIP3   OH236036   6.010   1.555   1.680 -0.8186 -0.2920 -0.5334
 4826TIP3    H136037   6.058   1.583   1.758 -0.6371 -1.4516 -0.2049
 4826TIP3    H236038   6.070   1.571   1.607 -0.5351 -0.2718 -0.2960
 4827TIP3   OH236039   6.036   1.349   0.983  0.0669 -0.1561 -0.1228
 4827TIP3    H136040   6.081   1.365   1.066  2.1000  1.7231 -1.5208
 4827TIP3    H236041   6.104   1.312   0.926 -1.0999 -0.6476 -1.2117
 4828TIP3   OH236042   1.579   3.279   0.681 -0.1611 -0.6531 -0.5132
 4828TIP3    H136043   1.551   3.332   0.755 -0.1585 -1.1440 -0.1579
 4828TIP3    H236044   1.568   3.336   0.605 -1.4316 -0.5911 -0.2934
 4829TIP3   OH236045   1.402   3.112   7.325 -0.2464  0.0479  0.0724
 4829TIP3    H136046   1.368   3.106   7.236 -1.3545  0.1800  0.4810
 4829TIP3    H236047   1.478   3.054   7.326 -1.3446 -1.4075 -0.4251
 4830TIP3   OH236048   3.057   1.923   7.908 -0.3409 -0.1260  0.1838
 4830TIP3    H136049   2.984   1.954   7.854 -2.1326 -0.3900  2.3561
 4830TIP3    H236050   3.100   1.857   7.855  0.0732  2.0566 -2.2719
 4831TIP3   OH236051   4.832   0.475   1.041  0.0070 -0.0531  0.3375
 4831TIP3    H136052   4.868   0.499   1.126 -0.5949 -1.0286  0.8795
 4831TIP3    H236053   4.884   0.400   1.013  0.9707  0.9673 -0.7122
 4832TIP3   OH236054   3.338   6.450   0.502  0.7943 -0.3629 -0.1996
 4832TIP3    H136055   3.411   6.404   0.544  0.3295 -0.0789  0.9356
 4832TIP3    H236056   3.315   6.395   0.427  1.0198 -1.3646  0.4575
 4833TIP3   OH236057   2.086   2.214   1.646 -0.6977  0.3023  0.4154
 4833TIP3    H136058   2.140   2.277   1.598 -1.2342 -0.0349 -0.6497
 4833TIP3    H236059   2.140   2.188   1.720 -0.3801  1.8458  0.7424
 4834TIP3   OH236060   1.054   5.785   2.311 -0.4670 -0.2802 -0.4725
 4834TIP3    H136061   1.103   5.868   2.303  0.1271 -0.5563  0.2421
 4834TIP3    H236062   0.978   5.807   2.364  2.4083 -1.2850  4.3755
 4835TIP3   OH236063   3.906   2.668   1.486 -0.0596 -0.2463  0.1464
 4835TIP3    H136064   3.810   2.669   1.493  0.1237 -0.5860  3.5926
 4835TIP3    H236065   3.925   2.590   1.434 -1.6077 -1.8129  1.8330
 4836TIP3   OH236066   7.216   3.480   1.755 -0.8670  0.1906 -0.0508
 4836TIP3    H136067   7.137   3.515   1.795  0.0259  2.5895 -0.3198
 4836TIP3    H236068   7.232   3.536   1.679  0.9794 -0.3912 -0.1236
 4837TIP3   OH236069   2.128   3.664   1.329 -0.4360  0.2395 -0.1683
 4837TIP3    H136070   2.133   3.585   1.276  0.4509 -0.7636  1.3662
 4837TIP3    H236071   2.213   3.707   1.315 -1.0084  1.0680 -1.1919
 4838TIP3   OH236072   1.448   1.099   2.440  0.4126 -0.2448  0.0571
 4838TIP3    H136073   1.385   1.026   2.438 -0.1787  0.2647 -0.0257
 4838TIP3    H236074   1.404   1.169   2.392  1.4043 -0.1736 -0.7438
 4839TIP3   OH236075   3.780   1.511   7.744 -0.0954 -0.7204  0.0426
 4839TIP3    H136076   3.831   1.452   7.799  0.0542 -1.6575 -1.0648
 4839TIP3    H236077   3.829   1.514   7.661 -1.0598 -0.4691 -0.5259
 4840TIP3   OH236078   6.987   0.374   0.163  0.0968 -0.6252 -0.0814
 4840TIP3    H136079   7.040   0.435   0.215  2.4949  0.3342 -3.5297
 4840TIP3    H236080   6.899   0.411   0.166  1.0173  1.6447 -0.0752
 4841TIP3   OH236081   2.727   1.413   0.552  0.4390  0.5045 -0.0193
 4841TIP3    H136082   2.634   1.402   0.567  0.4637 -1.4621 -1.1718
 4841TIP3    H236083   2.769   1.358   0.619  0.7862  1.5000  0.5943
 4842TIP3   OH236084   1.851   1.373   6.863 -0.2730  0.0334 -0.2333
 4842TIP3    H136085   1.806   1.334   6.937 -1.7699  0.6653 -0.8012
 4842TIP3    H236086   1.899   1.447   6.901 -0.6666  0.0799  0.1752
 4843TIP3   OH236087   2.466   4.273   7.626  0.5526  0.4682 -0.1307
 4843TIP3    H136088   2.381   4.229   7.618  0.6989  0.2935 -0.7500
 4843TIP3    H236089   2.484   4.271   7.720 -0.4929  1.2132  0.1030
 4844TIP3   OH236090   3.261   1.664   1.710  0.3804 -0.2896  0.4805
 4844TIP3    H136091   3.348   1.685   1.746  0.4137  0.5910 -0.1123
 4844TIP3    H236092   3.276   1.648   1.617 -0.0230 -0.5480  0.4599
 4845TIP3   OH236093   2.595   2.238   8.042 -0.2508 -0.0608  0.1287
 4845TIP3    H136094   2.562   2.158   8.001  1.9048 -0.9380  0.0573
 4845TIP3    H236095   2.680   2.213   8.077 -0.0897  1.9003  1.1542
 4846TIP3   OH236096   2.698   3.930   2.535 -0.1350  0.6901 -0.4441
 4846TIP3    H136097   2.633   3.984   2.580  1.4831  2.1119  0.2360
 4846TIP3    H236098   2.775   3.986   2.526  1.3947 -1.2903 -0.2395
 4847TIP3   OH236099   1.414   4.069   1.573  0.0988  0.4559  0.0181
 4847TIP3    H136100   1.395   4.030   1.488 -1.6845  0.2791  0.4951
 4847TIP3    H236101   1.501   4.108   1.562  0.2062 -0.2165 -1.6490
 4848TIP3   OH236102   3.819   4.752   7.452 -0.3586 -0.0450  0.1295
 4848TIP3    H136103   3.884   4.817   7.479 -0.8771  1.5470 -2.2767
 4848TIP3    H236104   3.851   4.720   7.368 -1.7294 -0.5959 -0.1955
 4849TIP3   OH236105   3.290   1.400   7.420 -0.2206  0.0732  0.9837
 4849TIP3    H136106   3.284   1.344   7.343 -1.5390  2.3965 -0.6774
 4849TIP3    H236107   3.383   1.420   7.429  0.0329 -0.9236  0.5326
 4850TIP3   OH236108   3.573   1.629   1.262 -0.2317  0.1446  0.0422
 4850TIP3    H136109   3.579   1.714   1.219 -2.5863  0.4660  0.3128
 4850TIP3    H236110   3.566   1.565   1.191 -3.0654  0.5857 -0.1163
 4851TIP3   OH236111   2.377   3.335   2.394 -0.2617  0.0502  0.4029
 4851TIP3    H136112   2.339   3.397   2.333 -1.7361 -1.4589 -0.2588
 4851TIP3    H236113   2.415   3.266   2.339 -0.7456 -0.8338  1.1473
 4852TIP3   OH236114   5.626   0.191   6.705  0.1116 -0.4297 -0.2447
 4852TIP3    H136115   5.566   0.226   6.640  0.5683  1.5022  0.3317
 4852TIP3    H236116   5.707   0.175   6.657  0.1097 -0.0386 -0.3772
 4853TIP3   OH236117   0.996   6.962   0.625  0.2862  0.5458  0.0518
 4853TIP3    H136118   0.952   7.047   0.625  0.8341  0.8376 -0.6058
 4853TIP3    H236119   1.084   6.981   0.659  0.3641  0.2180  0.0319
 4854TIP3   OH236120   4.599   4.481   1.301 -0.1628  0.3578  0.1762
 4854TIP3    H136121   4.585   4.500   1.393 -0.7634  0.6451  0.0288
 4854TIP3    H236122   4.534   4.535   1.255 -0.2213 -0.1762 -0.3840
 4855TIP3   OH236123   1.014   1.582   1.590  0.2794  0.2063  0.0081
 4855TIP3    H136124   1.042   1.620   1.673  0.4718  2.6922 -1.1475
 4855TIP3    H236125   0.922   1.606   1.582 -0.4424 -2.2140  0.6666
 4856TIP3   OH236126   5.758   5.959   0.810  0.8242  0.5020 -0.0106
 4856TIP3    H136127   5.782   5.877   0.852 -0.4095  0.1651  0.0332
 4856TIP3    H236128   5.760   5.939   0.716  0.5392  0.4327 -0.0006
 4857TIP3   OH236129   3.297   1.928   2.060 -0.4261 -0.0980  0.4075
 4857TIP3    H136130   3.358   1.854   2.052 -1.7132 -0.9504 -1.8928
 4857TIP3    H236131   3.338   1.998   2.010 -0.2538  0.0748  0.7837
 4858TIP3   OH236132   1.050   2.093   0.645  0.0895 -0.0310 -0.0342
 4858TIP3    H136133   1.109   2.142   0.703 -0.3073 -0.4577  0.7438
 4858TIP3    H236134   1.028   2.155   0.576 -0.7517  1.0571  1.1764
 4859TIP3   OH236135   2.583   2.487   0.653 -0.3215 -0.0587  0.4704
 4859TIP3    H136136   2.671   2.523   0.639  0.2540 -2.4094 -2.3716
 4859TIP3    H236137   2.589   2.438   0.734  0.3489  1.6535  1.4793
 4860TIP3   OH236138   2.598   2.654   7.568  0.7541  0.2610 -0.1989
 4860TIP3    H136139   2.552   2.571   7.552 -1.3750  1.4816 -0.6066
 4860TIP3    H236140   2.664   2.658   7.499  1.4072 -1.4608  0.2950
 4861TIP3   OH236141   2.771   1.518   1.394 -0.3040 -0.4424  0.2841
 4861TIP3    H136142   2.837   1.452   1.415  0.3128  0.3785  1.0153
 4861TIP3    H236143   2.764   1.515   1.299  1.2314 -0.1555  0.1418
 4862TIP3   OH236144   3.176   0.964   7.633 -0.0908  0.4584 -0.6406
 4862TIP3    H136145   3.173   1.032   7.566 -1.2822  1.6901  0.6077
 4862TIP3    H236146   3.095   0.978   7.684  1.5128  0.5832  1.9797
 4863TIP3   OH236147   0.328   2.269   8.303  0.1967  0.3380 -0.0481
 4863TIP3    H136148   0.255   2.318   8.265  0.5483 -0.2868 -1.6040
 4863TIP3    H236149   0.288   2.189   8.336  0.0108  0.4903  0.0968
 4864TIP3   OH236150   2.703   1.338   0.833  0.0079  0.2355 -0.2027
 4864TIP3    H136151   2.769   1.344   0.902 -0.1965  0.3583 -0.0160
 4864TIP3    H236152   2.663   1.425   0.831  1.6666  1.0076 -2.1351
 4865TIP3   OH236153   2.037   0.669   0.558  0.0077 -0.1484 -0.3668
 4865TIP3    H136154   2.127   0.699   0.542  0.0185 -0.7411 -1.5053
 4865TIP3    H236155   1.997   0.666   0.471 -1.3086  0.6929  0.1978
 4866TIP3   OH236156   3.048   1.035   7.944  0.0429  0.0345  0.6917
 4866TIP3    H136157   3.032   1.048   8.038  0.5088 -0.0546  0.7817
 4866TIP3    H236158   3.062   1.123   7.910 -1.2768  0.1829  0.4928
 4867TIP3   OH236159   3.151   2.894   0.419 -0.1139  0.4610  0.1836
 4867TIP3    H136160   3.061   2.875   0.447 -0.0126  0.2335  0.3556
 4867TIP3    H236161   3.187   2.947   0.490  0.2382 -0.3627  0.6242
 4868TIP3   OH236162   0.889   1.886   1.756 -0.1731  0.2382  0.2058
 4868TIP3    H136163   0.894   1.982   1.756  1.4960  0.1661  1.2378
 4868TIP3    H236164   0.807   1.867   1.800 -2.2757  1.2308 -3.0916
 4869TIP3   OH236165   2.068   1.684   1.651  0.3024  0.2702 -0.4613
 4869TIP3    H136166   2.070   1.642   1.737 -1.3137 -1.3367 -1.1795
 4869TIP3    H236167   2.134   1.753   1.656 -0.7319  1.0878  2.5040
 4870TIP3   OH236168   3.189   1.056   1.638 -0.4435  0.4461  0.8922
 4870TIP3    H136169   3.154   1.132   1.684 -0.6937  0.3794  0.8119
 4870TIP3    H236170   3.141   0.981   1.673  1.3541  0.0507  2.5864
 4871TIP3   OH236171   0.693   0.904   0.373  0.1952  0.2764 -0.6633
 4871TIP3    H136172   0.720   0.925   0.283  2.0472  0.6966 -0.0172
 4871TIP3    H236173   0.753   0.836   0.401 -2.4192 -2.1804 -0.8354
 4872TIP3   OH236174   3.567   0.889   0.534 -0.7647  0.1986  0.7401
 4872TIP3    H136175   3.576   0.873   0.440  0.4642 -1.2148  1.0913
 4872TIP3    H236176   3.472   0.892   0.548 -0.9657 -0.6098 -0.3699
 4873TIP3   OH236177   2.522   2.777   1.969 -0.2542 -0.0177 -0.1474
 4873TIP3    H136178   2.494   2.831   2.043  0.4725 -1.2165  1.0247
 4873TIP3    H236179   2.467   2.699   1.974  1.0465 -0.9267  0.2471
 4874TIP3   OH236180   2.480   3.218   0.784 -0.1472 -0.1746 -0.5376
 4874TIP3    H136181   2.464   3.209   0.690 -1.3737 -2.4601 -0.1457
 4874TIP3    H236182   2.414   3.162   0.825 -1.3370  2.8426  1.8247
 4875TIP3   OH236183   7.094   5.973   1.772 -0.4800  0.1212 -0.0412
 4875TIP3    H136184   7.085   6.067   1.756  0.8025  0.4424  0.9843
 4875TIP3    H236185   7.165   5.967   1.836 -1.6537 -1.4472  1.1442
 4876TIP3   OH236186   0.262   6.525   1.384 -0.1426 -0.5932 -0.1480
 4876TIP3    H136187   0.233   6.612   1.357  0.7606 -0.0665  0.5187
 4876TIP3    H236188   0.324   6.498   1.316  1.7568  0.5251  1.0655
 4877TIP3   OH236189   1.655   3.297   7.853  0.0950 -0.3854  0.7342
 4877TIP3    H136190   1.636   3.323   7.943 -0.5740 -1.8078  1.0141
 4877TIP3    H236191   1.742   3.257   7.857 -0.1524 -0.9126  0.8400
 4878TIP3   OH236192   3.148   0.344   8.256  0.6561  0.0449 -0.0790
 4878TIP3    H136193   3.223   0.289   8.279  0.0370 -2.0374 -2.8380
 4878TIP3    H236194   3.108   0.301   8.180 -1.3472  2.9460 -0.7668
 4879TIP3   OH236195   4.499   3.634   1.227 -0.5567  0.2182 -0.7260
 4879TIP3    H136196   4.459   3.574   1.165  1.4455 -0.4854 -1.3893
 4879TIP3    H236197   4.533   3.706   1.174 -2.3403  1.6275 -0.0053
 4880TIP3   OH236198   3.658   4.057   2.115  0.4373 -0.0304  0.4305
 4880TIP3    H136199   3.747   4.070   2.082  0.1982  0.6410  0.0501
 4880TIP3    H236200   3.609   4.026   2.038  0.5506 -1.3187  0.8575
 4881TIP3   OH236201   2.821   3.613   0.869  0.5456 -0.4181  0.0271
 4881TIP3    H136202   2.796   3.526   0.901  2.0605 -0.2771  1.6721
 4881TIP3    H236203   2.844   3.662   0.949  0.5347  1.2226 -0.9559
 4882TIP3   OH236204   2.374   1.406   0.854  0.7079  0.0009 -0.0480
 4882TIP3    H136205   2.405   1.327   0.898  2.3318 -0.6914 -2.3517
 4882TIP3    H236206   2.278   1.399   0.857  0.8328 -1.3918  0.8886
 4883TIP3   OH236207   3.259   0.427   7.523  0.6890  0.3437  0.2527
 4883TIP3    H136208   3.304   0.347   7.495 -2.1615 -0.5074 -2.1673
 4883TIP3    H236209   3.221   0.405   7.608 -0.4846 -1.0864 -0.6150
 4884TIP3   OH236210   2.406   2.557   0.170  0.1572 -0.2564 -0.0693
 4884TIP3    H136211   2.442   2.576   0.084  0.2176 -1.9915 -0.4477
 4884TIP3    H236212   2.469   2.496   0.209  0.1061  0.4887  1.1833
 4885TIP3   OH236213   3.893   1.027   1.363 -0.1835 -0.0489  0.3950
 4885TIP3    H136214   3.960   1.017   1.430  1.0034 -0.9312 -0.8838
 4885TIP3    H236215   3.871   1.120   1.364  1.4213  0.3447  0.5026
 4886TIP3   OH236216   2.798   3.966   1.126  0.5875 -0.6724 -0.1104
 4886TIP3    H136217   2.731   4.009   1.073 -0.2529  0.5946  1.9085
 4886TIP3    H236218   2.877   3.970   1.073 -0.4592 -0.3511 -1.6779
 4887TIP3   OH236219   2.930   3.669   0.604  0.2182 -0.0059  0.0843
 4887TIP3    H136220   2.907   3.628   0.687  0.4047  0.3404  0.3081
 4887TIP3    H236221   2.892   3.756   0.609  0.7261  0.2195  0.0478
 4888TIP3   OH236222   7.276   5.465   0.195  0.3419 -0.1693 -0.2134
 4888TIP3    H136223   7.211   5.520   0.152 -0.5153 -0.9126  0.1179
 4888TIP3    H236224   7.314   5.413   0.125  0.1320 -0.1819 -0.3180
 4889TIP3   OH236225   2.963   2.430   1.243 -0.2249 -0.2762  0.4401
 4889TIP3    H136226   2.984   2.512   1.289 -0.9565 -0.4703  1.1371
 4889TIP3    H236227   3.046   2.401   1.207 -0.0261  0.9876 -0.1601
 4890TIP3   OH236228   1.200   1.918   1.314 -0.3913 -0.5693 -0.1928
 4890TIP3    H136229   1.247   1.999   1.296 -0.0831 -0.7661 -0.2852
 4890TIP3    H236230   1.120   1.924   1.260  0.2328 -0.8817 -1.1687
 4891TIP3   OH236231   3.876   2.183   7.354  0.4892 -0.0979 -0.0841
 4891TIP3    H136232   3.816   2.181   7.429 -0.3354  2.2503 -0.6603
 4891TIP3    H236233   3.892   2.091   7.334 -2.8727 -0.7758  0.1068
 4892TIP3   OH236234   7.263   1.247   1.820  0.5095 -0.4334 -0.0268
 4892TIP3    H136235   7.303   1.178   1.767  1.7442  0.7985 -0.7391
 4892TIP3    H236236   7.180   1.210   1.850  0.9992 -2.0875 -0.6911
 4893TIP3   OH236237   3.678   3.098   1.299 -0.0481  0.0270  0.3621
 4893TIP3    H136238   3.658   3.007   1.281 -0.2830 -0.1398  1.4269
 4893TIP3    H236239   3.598   3.133   1.337 -0.6041  1.1843 -1.7706
 4894TIP3   OH236240   0.151   2.218   1.760  0.7513 -0.2491  0.1079
 4894TIP3    H136241   0.225   2.276   1.776  1.3371 -0.5992 -1.3376
 4894TIP3    H236242   0.095   2.267   1.700  0.8800 -0.8824 -0.5268
 4895TIP3   OH236243   3.413   0.247   0.419  0.5948 -0.4581  0.6396
 4895TIP3    H136244   3.495   0.230   0.373  0.8247 -2.0321  1.6048
 4895TIP3    H236245   3.434   0.235   0.511 -0.2382  1.1362  1.0513
 4896TIP3   OH236246   4.126   1.286   0.195  0.0109  0.7290 -0.5715
 4896TIP3    H136247   4.127   1.284   0.291 -0.7616 -0.3449 -0.5832
 4896TIP3    H236248   4.189   1.355   0.173  1.5048 -0.1958  0.6640
 4897TIP3   OH236249   7.199   2.135   1.462  0.7072  0.3583  0.4805
 4897TIP3    H136250   7.200   2.163   1.553  0.0146 -1.1237  0.9509
 4897TIP3    H236251   7.113   2.162   1.429 -0.5038 -2.3947  1.3219
 4898TIP3   OH236252   1.272   1.390   7.486  0.1474  0.8494 -0.1473
 4898TIP3    H136253   1.285   1.471   7.436 -2.3880  1.6981  0.4777
 4898TIP3    H236254   1.236   1.419   7.569  0.0682 -0.8771  0.4402
 4899TIP3   OH236255   0.399   4.523   0.216 -1.1268  0.6900 -0.2656
 4899TIP3    H136256   0.376   4.432   0.237 -1.8795  1.3645  1.9622
 4899TIP3    H236257   0.494   4.526   0.222 -1.0940  0.0477 -0.3752
 4900TIP3   OH236258   6.198   1.322   7.736 -0.8432  0.1245 -0.3600
 4900TIP3    H136259   6.155   1.380   7.673 -2.6256 -0.5610  0.2118
 4900TIP3    H236260   6.188   1.367   7.820  1.4060  0.9639 -0.5079
 4901TIP3   OH236261   5.769   0.743   2.014  0.3375  0.2144  0.2144
 4901TIP3    H136262   5.790   0.833   1.990  3.8793 -0.4972  0.3598
 4901TIP3    H236263   5.713   0.711   1.943  2.0027  1.4235 -1.6792
 4902TIP3   OH236264   2.529   2.418   1.681 -0.3485 -0.9150  0.0608
 4902TIP3    H136265   2.465   2.409   1.752 -1.0231  1.7882 -0.1340
 4902TIP3    H236266   2.538   2.513   1.669  2.8465 -1.2525 -0.7133
 4903TIP3   OH236267   0.035   1.397   0.421 -0.0920  0.3751  0.4154
 4903TIP3    H136268   0.026   1.470   0.482 -0.9934  0.5303  0.0963
 4903TIP3    H236269   0.005   1.320   0.469 -1.0497  0.5384  0.0918
 4904TIP3   OH236270   1.582   2.632   8.086  0.4228 -0.4906  0.3548
 4904TIP3    H136271   1.499   2.585   8.083  0.3192 -0.3216  0.5812
 4904TIP3    H236272   1.601   2.642   8.179 -0.0357  0.7626  0.3199
 4905TIP3   OH236273   3.495   3.292   1.900  0.1773 -0.1594 -0.3104
 4905TIP3    H136274   3.542   3.372   1.877  1.8541 -1.7287 -2.5453
 4905TIP3    H236275   3.430   3.321   1.964  1.1835  2.8600 -0.5387
 4906TIP3   OH236276   2.274   0.762   0.473 -0.4121  0.6955 -0.3540
 4906TIP3    H136277   2.308   0.841   0.517 -0.4118  0.7242 -0.4053
 4906TIP3    H236278   2.302   0.772   0.382  0.6735  0.0130 -0.0950
 4907TIP3   OH236279   3.911   4.875   1.757  0.2152 -0.8715  0.7452
 4907TIP3    H136280   3.861   4.833   1.686  0.9445 -0.5461  0.0290
 4907TIP3    H236281   3.845   4.924   1.806  0.0166  0.6709 -1.0155
 4908TIP3   OH236282   2.073   1.797   1.144  0.6304 -0.0803 -0.1963
 4908TIP3    H136283   2.162   1.825   1.124 -0.4245  2.3492 -1.6723
 4908TIP3    H236284   2.026   1.808   1.061 -1.5837  0.8382  1.1644
 4909TIP3   OH236285   1.697   4.111   0.180  0.1627  0.8062  0.3057
 4909TIP3    H136286   1.667   4.139   0.266 -0.6371 -2.0684  1.0194
 4909TIP3    H236287   1.763   4.044   0.197 -0.8648 -0.6788 -1.2529
 4910TIP3   OH236288   4.057   2.926   1.479 -0.2962  0.3938 -0.2844
 4910TIP3    H136289   4.141   2.913   1.524 -0.3477 -0.2751 -0.3755
 4910TIP3    H236290   4.022   2.838   1.468 -1.4067  0.7265  0.5017
 4911TIP3   OH236291   1.966   4.694   2.391 -0.3697 -0.2761  0.8049
 4911TIP3    H136292   1.947   4.776   2.345 -0.4023 -0.2024  0.9517
 4911TIP3    H236293   1.980   4.631   2.320 -2.9090 -0.7488  0.7058
 4912TIP3   OH236294   3.305   2.531   7.402  0.0285 -0.1647 -0.0684
 4912TIP3    H136295   3.210   2.529   7.396 -0.0264 -2.3892  1.0770
 4912TIP3    H236296   3.334   2.445   7.374  1.5887 -0.0818  1.1529
 4913TIP3   OH236297   1.398   3.730   1.237 -0.0511  0.1628 -0.0451
 4913TIP3    H136298   1.379   3.654   1.182 -0.5815  0.4096 -0.2093
 4913TIP3    H236299   1.410   3.695   1.324 -0.4551 -0.0941 -0.0925
 4914TIP3   OH236300   4.027   2.703   7.543  0.1684 -0.5185 -0.0936
 4914TIP3    H136301   4.018   2.710   7.638  0.5093  0.4367 -0.1238
 4914TIP3    H236302   3.958   2.760   7.508 -0.7261 -1.7947 -0.4336
 4915TIP3   OH236303   7.002   3.088   1.489  0.1059  0.4913 -0.0578
 4915TIP3    H136304   6.940   3.119   1.555  0.6785  0.0137  0.7088
 4915TIP3    H236305   7.028   3.168   1.443  0.5322  0.9865  1.0156
 4916TIP3   OH236306   2.802   5.681   0.935  0.4186 -0.7025  0.2073
 4916TIP3    H136307   2.765   5.748   0.992  0.1662 -0.8518  0.2234
 4916TIP3    H236308   2.738   5.673   0.864  0.4509 -0.9193  0.2021
 4917TIP3   OH236309   2.254   4.091   1.927 -0.4288  0.4386 -0.2923
 4917TIP3    H136310   2.310   4.107   1.851 -0.7092  1.1406 -0.3502
 4917TIP3    H236311   2.166   4.078   1.890 -0.4232 -0.0313 -0.1498
 4918TIP3   OH236312   1.386   1.621   7.357 -0.3317 -0.1527 -0.0317
 4918TIP3    H136313   1.389   1.704   7.406 -3.2433  0.6244 -1.1108
 4918TIP3    H236314   1.454   1.630   7.291  0.7719  0.5066  1.1598
 4919TIP3   OH236315   4.977   7.037   0.255 -0.1368  0.0708 -0.0352
 4919TIP3    H136316   4.970   7.115   0.200 -0.3288  0.6593  0.8223
 4919TIP3    H236317   5.068   7.007   0.242 -0.1507  0.2553 -0.5927
 4920TIP3   OH236318   1.415   0.374   1.766 -0.7718 -0.2018 -0.2089
 4920TIP3    H136319   1.450   0.285   1.768  0.4342  0.2611 -0.1654
 4920TIP3    H236320   1.418   0.398   1.673  2.7844  1.2603  0.2030
 4921TIP3   OH236321   1.846   2.375   1.670  0.1389 -0.3733  0.1803
 4921TIP3    H136322   1.925   2.331   1.641 -0.2991 -1.1761  0.1813
 4921TIP3    H236323   1.876   2.456   1.712  0.7543  1.1783 -3.1126
 4922TIP3   OH236324   3.284   6.844   7.682 -0.0252  0.2430  0.4890
 4922TIP3    H136325   3.359   6.787   7.670 -0.5098 -0.2575 -0.1829
 4922TIP3    H236326   3.260   6.834   7.774  1.5512  1.4362  1.0648
 4923TIP3   OH236327   5.379   2.590   6.861  0.1660  0.1551 -0.2815
 4923TIP3    H136328   5.285   2.604   6.861  0.0643 -0.5014  1.1831
 4923TIP3    H236329   5.416   2.676   6.842 -0.6757  0.8544  1.1952
 4924TIP3   OH236330   3.608   2.189   1.734  0.5584 -0.2028 -0.1869
 4924TIP3    H136331   3.585   2.108   1.688  2.2928 -1.5537  1.2470
 4924TIP3    H236332   3.703   2.188   1.738  0.5074  0.8329  1.7595
 4925TIP3   OH236333   2.595   5.004   8.490 -0.0447  0.6665 -0.1027
 4925TIP3    H136334   2.618   5.085   8.445 -1.2712  1.8386  1.3281
 4925TIP3    H236335   2.672   4.948   8.480 -0.1711  0.9996 -3.3538
 4926TIP3   OH236336   1.935   2.765   6.671 -0.1134  0.1845 -0.2828
 4926TIP3    H136337   1.920   2.768   6.766  1.3504 -2.2745  0.0720
 4926TIP3    H236338   1.851   2.787   6.633 -0.8600  0.7128  1.6045
 4927TIP3   OH236339   2.890   2.939   7.833  0.3246 -0.2387 -0.3437
 4927TIP3    H136340   2.853   2.852   7.840  0.2635 -0.3534 -1.9617
 4927TIP3    H236341   2.972   2.934   7.882 -0.9469 -0.4466  1.8138
 4928TIP3   OH236342   1.679   2.332   1.456 -0.4052 -0.0509  0.0838
 4928TIP3    H136343   1.726   2.350   1.537  0.6610 -1.3394 -0.2275
 4928TIP3    H236344   1.727   2.259   1.416 -0.6959  0.7858 -1.8642
 4929TIP3   OH236345   0.922   2.856   1.697 -0.2592  0.9504  0.2195
 4929TIP3    H136346   0.873   2.774   1.695 -0.1189  0.8445  0.8141
 4929TIP3    H236347   0.999   2.836   1.750  0.3176  1.1731 -0.5428
 4930TIP3   OH236348   3.036   1.825   2.683  0.0292 -0.0694 -0.4735
 4930TIP3    H136349   2.941   1.835   2.670  0.5748  1.6046 -3.6302
 4930TIP3    H236350   3.074   1.902   2.640  2.8772 -1.0555  0.1728
 4931TIP3   OH236351   0.230   2.073   6.967 -0.0256  0.2033 -0.5068
 4931TIP3    H136352   0.228   2.161   6.929  0.7255  0.0600 -0.8933
 4931TIP3    H236353   0.322   2.047   6.961 -0.0818 -0.2315  0.4751
 4932TIP3   OH236354   2.711   4.963   8.181 -0.4625 -0.4095  0.5059
 4932TIP3    H136355   2.747   4.989   8.096 -0.4435  0.4571  0.7706
 4932TIP3    H236356   2.684   4.872   8.169  1.0870 -0.8182  0.0736
 4933TIP3   OH236357   6.680   3.084   1.232  0.0765 -0.3182 -0.1675
 4933TIP3    H136358   6.620   3.009   1.228 -0.5517  0.2038 -0.5741
 4933TIP3    H236359   6.763   3.046   1.261 -0.6615 -0.9246  1.2435
 4934TIP3   OH236360   5.779   0.452   8.271 -0.1925  0.1280  0.2962
 4934TIP3    H136361   5.835   0.378   8.295 -2.6463 -2.8982 -2.7917
 4934TIP3    H236362   5.691   0.415   8.270 -1.7463  3.6494  0.6120
 4935TIP3   OH236363   1.921   4.137   1.257 -0.4336  0.2772  0.3086
 4935TIP3    H136364   2.012   4.166   1.266 -0.9141  1.3642  1.6644
 4935TIP3    H236365   1.928   4.056   1.205  1.3638 -0.0367  0.9933
 4936TIP3   OH236366   3.189   2.558   0.328  0.4142 -0.2916 -0.0991
 4936TIP3    H136367   3.220   2.621   0.393  1.9139  1.1075 -2.1020
 4936TIP3    H236368   3.254   2.488   0.330  0.2297 -0.4584  0.1821
 4937TIP3   OH236369   3.670   0.277   0.290  0.1164 -0.6484  0.5037
 4937TIP3    H136370   3.722   0.209   0.248 -0.2233 -0.6611  0.1003
 4937TIP3    H236371   3.730   0.317   0.354  1.0325  0.2041 -0.8691
 4938TIP3   OH236372   3.991   3.613   6.398 -0.6182  0.1462  0.5444
 4938TIP3    H136373   4.083   3.640   6.394 -0.6501  0.0294 -3.1063
 4938TIP3    H236374   3.943   3.684   6.356 -1.8790 -0.9176  0.1491
 4939TIP3   OH236375   2.555   5.180   8.238  0.1541  0.0985 -0.0958
 4939TIP3    H136376   2.464   5.158   8.217  0.1672  1.6517 -1.9251
 4939TIP3    H236377   2.605   5.103   8.207 -0.4121 -0.1743 -0.3484
 4940TIP3   OH236378   4.774   1.906   2.368 -0.2909  0.0373 -0.5437
 4940TIP3    H136379   4.817   1.851   2.433 -1.5464 -0.5474 -0.2069
 4940TIP3    H236380   4.729   1.845   2.310  0.5469  0.5677 -1.7797
 4941TIP3   OH236381   3.223   1.344   0.454  0.3974 -0.1031 -0.3798
 4941TIP3    H136382   3.286   1.281   0.419  2.6126  0.6127  2.1411
 4941TIP3    H236383   3.171   1.370   0.378  0.0525 -4.1683 -1.6886
 4942TIP3   OH236384   2.837   5.986   2.234 -0.3441 -0.7425 -0.1821
 4942TIP3    H136385   2.825   5.896   2.265 -0.1419 -1.1190 -1.1905
 4942TIP3    H236386   2.861   6.035   2.312 -0.1455 -1.6276  0.3161
 4943TIP3   OH236387   6.240   2.185   1.109 -0.0721 -0.0225 -0.2928
 4943TIP3    H136388   6.170   2.236   1.067  1.7154  1.5333 -1.4859
 4943TIP3    H236389   6.267   2.239   1.184 -1.4379 -1.5409  1.3366
 4944TIP3   OH236390   6.713   2.132   2.075  0.3578  0.0625 -0.0170
 4944TIP3    H136391   6.710   2.038   2.056  1.3269  0.2676 -1.2416
 4944TIP3    H236392   6.765   2.139   2.155  1.2066 -0.3617 -0.5312
 4945TIP3   OH236393   3.262   0.361   2.036  0.4445  0.0110 -0.3436
 4945TIP3    H136394   3.320   0.316   1.975  0.6719  1.1074 -0.9511
 4945TIP3    H236395   3.174   0.344   2.002  0.6272  1.7722 -1.8360
 4946TIP3   OH236396   4.747   2.443   1.586  0.3474  0.1540  0.4140
 4946TIP3    H136397   4.838   2.450   1.557 -0.1543  1.7809 -0.8022
 4946TIP3    H236398   4.718   2.533   1.597 -1.1464 -0.3518  0.7271
 4947TIP3   OH236399   2.891   0.534   0.110  0.1838 -0.9131  0.0904
 4947TIP3    H136400   2.832   0.603   0.139 -0.1061 -2.0429  2.2818
 4947TIP3    H236401   2.835   0.473   0.063 -0.3170 -1.6938  1.6720
 4948TIP3   OH236402   5.646   6.966   7.778  0.3068  0.2703 -0.7610
 4948TIP3    H136403   5.570   6.935   7.828 -0.0350  0.4969 -1.1361
 4948TIP3    H236404   5.620   7.052   7.745  0.0265 -0.4336 -2.4180
 4949TIP3   OH236405   7.273   1.115   1.111  0.4183  0.5688  0.2321
 4949TIP3    H136406   7.268   1.145   1.020  0.1606 -0.0873  0.0300
 4949TIP3    H236407   7.356   1.068   1.116 -0.0785 -0.3501  0.0416
 4950TIP3   OH236408   0.260   2.015   1.551  0.6050  0.4875  0.3423
 4950TIP3    H136409   0.222   2.060   1.475 -1.5178 -0.9461  0.5083
 4950TIP3    H236410   0.223   2.060   1.627 -1.3155 -1.3082  0.5065
 4951TIP3   OH236411   4.377   1.048   1.278 -0.1632 -0.5357  0.4442
 4951TIP3    H136412   4.329   1.089   1.351  0.1730  0.7470 -0.0307
 4951TIP3    H236413   4.453   1.105   1.264 -0.0899 -0.8999 -0.7489
 4952TIP3   OH236414   2.346   2.301   0.724  0.3057 -0.1548 -0.0676
 4952TIP3    H136415   2.415   2.351   0.767 -0.6951  1.3134 -0.1527
 4952TIP3    H236416   2.318   2.356   0.651  0.0445 -1.3902 -0.9173
 4953TIP3   OH236417   4.258   1.560   1.511 -0.4620 -0.2519  0.5331
 4953TIP3    H136418   4.274   1.528   1.422 -1.3329  0.1163  0.2358
 4953TIP3    H236419   4.345   1.575   1.547 -0.0962 -0.6431 -0.1727
 4954TIP3   OH236420   5.945   4.288   1.877 -0.0493  0.3790 -0.3649
 4954TIP3    H136421   6.018   4.240   1.917  0.1494  1.1286  0.1957
 4954TIP3    H236422   5.875   4.224   1.870  0.5089 -0.2239 -0.4549
 4955TIP3   OH236423   1.066   2.777   6.813 -0.3340  0.1440 -0.0198
 4955TIP3    H136424   1.076   2.827   6.732  0.2065  0.0433 -0.0156
 4955TIP3    H236425   1.056   2.844   6.881  1.4630  0.2676  0.1273
 4956TIP3   OH236426   6.132   5.388   0.466 -0.3181  0.4096  0.1947
 4956TIP3    H136427   6.099   5.311   0.513 -1.2572  0.4795 -0.3532
 4956TIP3    H236428   6.084   5.389   0.384 -0.2835  1.5695  0.1805
 4957TIP3   OH236429   0.502   1.047   1.608 -0.0437  0.6809 -0.1546
 4957TIP3    H136430   0.551   1.057   1.526  0.3602  0.1045  0.0177
 4957TIP3    H236431   0.445   0.971   1.593  0.0264  0.5784  0.0970
 4958TIP3   OH236432   4.859   2.272   1.931  0.2391 -0.0080 -0.3143
 4958TIP3    H136433   4.908   2.316   1.862  1.3188  1.0739  1.1119
 4958TIP3    H236434   4.773   2.255   1.892 -0.0921  3.0470 -1.0283
 4959TIP3   OH236435   0.390   3.401   8.285 -0.5625  0.2348  0.3396
 4959TIP3    H136436   0.444   3.416   8.208  1.4468 -0.3563  1.6161
 4959TIP3    H236437   0.300   3.419   8.255 -0.1558 -2.5100 -2.8625
 4960TIP3   OH236438   0.738   0.359   0.982  0.3653 -0.4256 -0.0636
 4960TIP3    H136439   0.769   0.402   1.061  1.6763 -1.6796  0.1068
 4960TIP3    H236440   0.681   0.424   0.941  1.6785  1.1787  0.5994
 4961TIP3   OH236441   2.884   1.602   0.968  0.2606 -0.1558 -0.0419
 4961TIP3    H136442   2.864   1.668   1.034 -0.3768 -1.2877  0.9260
 4961TIP3    H236443   2.808   1.601   0.910  0.0922 -0.3174  0.1809
 4962TIP3   OH236444   3.726   1.962   1.612 -0.2584  0.4086 -0.0565
 4962TIP3    H136445   3.753   1.941   1.702 -2.1245  0.6621  0.5763
 4962TIP3    H236446   3.808   1.961   1.562  0.9832  1.3767  1.8657
 4963TIP3   OH236447   3.403   4.713   2.329 -0.1782  0.0833  0.2436
 4963TIP3    H136448   3.458   4.675   2.261  0.3190  1.4769 -0.1548
 4963TIP3    H236449   3.395   4.644   2.395 -1.2242 -1.5304 -1.5106
 4964TIP3   OH236450   4.510   2.802   1.997 -0.1421 -0.4719  0.1764
 4964TIP3    H136451   4.548   2.849   2.072  1.1119  0.2634 -0.8860
 4964TIP3    H236452   4.529   2.710   2.015  0.4374 -0.2762  0.6185
 4965TIP3   OH236453   3.965   4.620   7.260  0.8413 -0.2531  0.5977
 4965TIP3    H136454   4.037   4.629   7.198  1.5404 -0.1453  1.4193
 4965TIP3    H236455   3.896   4.575   7.211  0.4791  1.9466 -0.9962
 4966TIP3   OH236456   5.929   3.440   1.734 -0.2501  0.4354 -0.2079
 4966TIP3    H136457   5.901   3.389   1.811 -0.9899 -0.6940 -1.2088
 4966TIP3    H236458   5.888   3.525   1.746 -0.6363  0.1574  0.4847
 4967TIP3   OH236459   6.180   4.494   1.839 -0.3786 -0.1595 -0.1361
 4967TIP3    H136460   6.170   4.537   1.924  0.1454 -2.1783  0.9946
 4967TIP3    H236461   6.107   4.526   1.787 -1.3914  0.2188  1.4735
 4968TIP3   OH236462   5.771   2.441   1.053  0.0726  0.0497 -0.4255
 4968TIP3    H136463   5.710   2.414   1.122 -0.0758  2.2353  0.3285
 4968TIP3    H236464   5.715   2.464   0.979  0.1727 -1.1581 -0.8868
 4969TIP3   OH236465   4.945   5.595   7.606 -0.4314 -0.2462  0.6780
 4969TIP3    H136466   4.861   5.551   7.594 -1.2031  1.0948  1.0440
 4969TIP3    H236467   4.965   5.584   7.699  0.0916 -1.0561  0.4768
 4970TIP3   OH236468   5.692   1.426   1.887  0.1138 -0.2764  0.5420
 4970TIP3    H136469   5.732   1.359   1.942  1.1953  0.3835  0.5741
 4970TIP3    H236470   5.656   1.490   1.949 -0.9828 -0.8386  0.5127
 4971TIP3   OH236471   5.115   1.180   8.062  0.0922 -0.2103 -0.5144
 4971TIP3    H136472   5.107   1.095   8.017 -0.6674 -0.3296 -0.1568
 4971TIP3    H236473   5.173   1.162   8.136 -1.2535 -0.7677  0.4192
 4972TIP3   OH236474   2.937   4.589   2.258  0.1480 -0.5640  0.1935
 4972TIP3    H136475   2.937   4.671   2.307 -1.4172 -1.2099  1.2876
 4972TIP3    H236476   3.008   4.538   2.296  0.1557 -0.3070  0.5223
 4973TIP3   OH236477   6.975   5.890   8.450  0.1895 -0.1900  0.1210
 4973TIP3    H136478   6.925   5.960   8.493  0.2422  1.5015 -2.4819
 4973TIP3    H236479   6.908   5.828   8.421  0.0231 -0.4513  1.0206
 4974TIP3   OH236480   6.372   2.079   0.900 -0.1569 -0.2976 -0.6361
 4974TIP3    H136481   6.418   2.005   0.938  0.0889  0.2080  0.0568
 4974TIP3    H236482   6.299   2.096   0.960  0.1412  0.4035 -0.4638
 4975TIP3   OH236483   2.572   1.989   7.944 -0.2808  0.3038 -0.1413
 4975TIP3    H136484   2.643   1.946   7.992  0.8791 -2.2836 -3.8512
 4975TIP3    H236485   2.493   1.942   7.972  0.5007 -1.8446 -1.3618
 4976TIP3   OH236486   5.856   2.170   2.260  0.3483  0.1293  0.3098
 4976TIP3    H136487   5.844   2.170   2.354  0.2562  1.0854  0.2976
 4976TIP3    H236488   5.917   2.241   2.243 -1.2469  1.3244 -0.5570
 4977TIP3   OH236489   3.131   3.729   0.999  0.3173  0.2917 -0.0180
 4977TIP3    H136490   3.087   3.647   1.022 -1.2257  1.5308  1.6145
 4977TIP3    H236491   3.066   3.777   0.948  0.7915  0.9867  0.0288
 4978TIP3   OH236492   5.028   0.571   0.058  0.1418  0.2868  0.3502
 4978TIP3    H136493   5.055   0.628  -0.014  0.2035 -1.8206 -1.3432
 4978TIP3    H236494   4.939   0.598   0.078  1.1617  2.9489  1.6161
 4979TIP3   OH236495   3.979   2.881   6.703 -0.4766  0.2878  0.2511
 4979TIP3    H136496   3.965   2.822   6.630 -1.1017 -0.5154  1.0122
 4979TIP3    H236497   4.071   2.907   6.696 -0.4485 -0.0421 -0.6194
 4980TIP3   OH236498   4.135   4.080   1.818 -0.4622 -0.5341  0.2963
 4980TIP3    H136499   4.220   4.087   1.862 -0.4205  1.1675 -0.0465
 4980TIP3    H236500   4.146   4.006   1.758  0.8662 -0.1779  0.0698
 4981TIP3   OH236501   5.546   5.733   1.280  0.0297 -0.3117  0.0203
 4981TIP3    H136502   5.468   5.680   1.297  0.2393 -0.3920  0.7449
 4981TIP3    H236503   5.613   5.670   1.255  0.5544 -0.4934  1.8576
 4982TIP3   OH236504   0.400   4.405   1.938  0.0204  0.0730 -0.6007
 4982TIP3    H136505   0.454   4.386   2.015  0.3395  0.5490 -0.7061
 4982TIP3    H236506   0.353   4.323   1.921  0.5865 -0.2991 -0.4054
 4983TIP3   OH236507   6.469   2.997   1.780  0.2896 -0.4844  0.0255
 4983TIP3    H136508   6.488   3.016   1.688  1.4017 -0.1023  0.3218
 4983TIP3    H236509   6.390   2.943   1.778  0.6232 -0.9428 -1.1798
 4984TIP3   OH236510   4.946   6.426   7.253  0.3506  0.0088  0.1039
 4984TIP3    H136511   5.027   6.375   7.249 -0.0509 -0.5087 -1.7835
 4984TIP3    H236512   4.954   6.489   7.181 -0.5527  0.5386  0.4582
 4985TIP3   OH236513   5.797   0.190   1.679 -0.4275 -0.4264  0.1872
 4985TIP3    H136514   5.855   0.127   1.635 -3.2568 -0.6172 -3.4715
 4985TIP3    H236515   5.722   0.138   1.706 -1.1118  0.7099  0.4649
 4986TIP3   OH236516   4.606   5.417   7.311 -0.2607 -0.0745 -0.4851
 4986TIP3    H136517   4.514   5.446   7.309 -0.0686  0.5097 -0.9722
 4986TIP3    H236518   4.655   5.495   7.338  0.1893 -0.1300 -1.1329
 4987TIP3   OH236519   5.384   5.281   2.036  0.2376 -0.3796 -0.1490
 4987TIP3    H136520   5.303   5.332   2.041  0.5629  0.1054  0.2715
 4987TIP3    H236521   5.405   5.261   2.127  0.4668 -0.7008 -0.2737
 4988TIP3   OH236522   4.072   2.023   0.884 -0.6594  0.5172 -0.1224
 4988TIP3    H136523   4.159   2.058   0.905 -0.4175  0.4073 -0.8948
 4988TIP3    H236524   4.085   1.928   0.879 -0.3380  0.6334 -2.2867
 4989TIP3   OH236525   2.342   1.943   1.231 -1.0962 -0.2749  0.2192
 4989TIP3    H136526   2.329   2.011   1.164  1.6702  0.3398  0.2447
 4989TIP3    H236527   2.294   1.975   1.307 -1.0838  0.9219 -0.2670
 4990TIP3   OH236528   4.097   0.583   0.945  0.0894 -0.2580 -0.0964
 4990TIP3    H136529   4.162   0.607   0.879  0.3945 -0.6485  0.0615
 4990TIP3    H236530   4.145   0.527   1.006 -0.1235  0.3052  0.5959
 4991TIP3   OH236531   6.689   4.661   0.358  0.6677 -0.1598  0.3293
 4991TIP3    H136532   6.648   4.656   0.444 -1.4118  1.4475 -0.5255
 4991TIP3    H236533   6.665   4.747   0.324  0.4749 -1.1836 -2.3079
 4992TIP3   OH236534   3.546   2.209   1.430 -0.0458 -0.0216 -0.0873
 4992TIP3    H136535   3.599   2.270   1.482 -1.4054  0.8612  0.2740
 4992TIP3    H236536   3.601   2.190   1.354  0.6372  1.2206  0.0762
 4993TIP3   OH236537   3.648   4.330   7.545 -0.2281  0.5903  0.2429
 4993TIP3    H136538   3.569   4.359   7.591  0.9868  2.6689  1.0856
 4993TIP3    H236539   3.640   4.368   7.457 -0.6314 -0.0415  0.0026
 4994TIP3   OH236540   2.900   0.974   0.237  0.0682 -0.2712  0.0227
 4994TIP3    H136541   2.877   0.894   0.283  0.0127 -0.9631 -1.1821
 4994TIP3    H236542   2.824   0.994   0.182 -0.3816  1.2434  1.1486
 4995TIP3   OH236543   1.869   2.952   0.101  0.3345 -0.0475  0.1297
 4995TIP3    H136544   1.830   2.876   0.144 -1.6482  1.1316  0.4757
 4995TIP3    H236545   1.814   2.968   0.024  0.8014  0.9656 -0.0066
 4996TIP3   OH236546   4.170   5.538   7.289 -0.1388 -0.0699  0.2862
 4996TIP3    H136547   4.256   5.572   7.313 -0.3183  0.4877  0.1406
 4996TIP3    H236548   4.131   5.511   7.372  0.8221 -1.8705  0.1848
 4997TIP3   OH236549   1.820   3.782   7.500 -0.1692  0.2805 -0.2443
 4997TIP3    H136550   1.810   3.876   7.489  1.3653  0.3578 -1.0777
 4997TIP3    H236551   1.910   3.770   7.530 -0.9513 -0.7878  1.7840
 4998TIP3   OH236552   3.723   5.501   1.778  0.5398 -0.1816 -0.4759
 4998TIP3    H136553   3.799   5.448   1.802  1.5664  1.2774 -0.4768
 4998TIP3    H236554   3.666   5.497   1.854  0.0654 -2.2036 -0.8872
 4999TIP3   OH236555   6.900   0.597   1.193  0.7240  0.0660  0.1270
 4999TIP3    H136556   6.812   0.561   1.199 -0.0763  1.6314 -1.5108
 4999TIP3    H236557   6.955   0.536   1.241 -1.2675 -0.8863  1.2653
 5000TIP3   OH236558   3.173   4.100   1.570 -0.3205 -0.5458 -0.1949
 5000TIP3    H136559   3.165   4.085   1.664 -0.8430  3.3397  0.4593
 5000TIP3    H236560   3.267   4.110   1.556 -0.0660 -2.9884 -0.4589
 5001TIP3   OH236561   3.818   0.429   1.835 -0.1862 -0.7367  0.2540
 5001TIP3    H136562   3.809   0.338   1.863  1.5251 -1.0223 -0.0853
 5001TIP3    H236563   3.866   0.424   1.752 -0.2241  0.4635  0.1532
 5002TIP3   OH236564   5.209   0.930   7.388 -0.0014  0.0094  0.1326
 5002TIP3    H136565   5.247   1.001   7.440 -0.6056  0.1980  0.3163
 5002TIP3    H236566   5.282   0.899   7.333  0.2115  0.9158 -0.1116
 5003TIP3   OH236567   6.793   2.060   7.168 -0.3678  0.8267  0.7154
 5003TIP3    H136568   6.869   2.060   7.110  0.3668 -0.2175  1.6433
 5003TIP3    H236569   6.753   2.146   7.156  0.5727  1.1280 -0.2935
 5004TIP3   OH236570   3.977   1.916   1.471 -0.3153 -0.0454 -0.4596
 5004TIP3    H136571   3.983   1.912   1.375  2.4646  2.6480 -0.4793
 5004TIP3    H236572   4.028   1.840   1.500  0.9695  0.5530 -1.1136
 5005TIP3   OH236573   6.170   4.588   1.212  0.1202 -0.1076 -0.7718
 5005TIP3    H136574   6.097   4.644   1.238  1.0580  0.7417  0.0225
 5005TIP3    H236575   6.167   4.588   1.116 -0.0503  1.0744 -0.7663
 5006TIP3   OH236576   3.468   3.176   0.699 -0.0566 -0.0525 -0.0918
 5006TIP3    H136577   3.419   3.256   0.720 -0.1861 -0.2383  0.3151
 5006TIP3    H236578   3.546   3.181   0.754  0.5627  0.4142 -0.9916
 5007TIP3   OH236579   3.538   2.070   7.437  0.3874 -0.8765 -0.2233
 5007TIP3    H136580   3.560   2.126   7.511 -0.8538 -0.4614 -0.1661
 5007TIP3    H236581   3.579   1.985   7.458  1.5594 -0.2518  0.0709
 5008TIP3   OH236582   4.857   3.502   1.290  0.3755 -0.2713  0.0670
 5008TIP3    H136583   4.939   3.550   1.272  0.3903 -0.5322 -0.5951
 5008TIP3    H236584   4.815   3.496   1.204  1.1748 -2.9266 -0.1746
 5009TIP3   OH236585   6.291   2.079   1.675 -0.5074  0.1835  0.1292
 5009TIP3    H136586   6.276   2.151   1.736 -0.3408 -0.1145  0.5233
 5009TIP3    H236587   6.278   2.000   1.728 -2.9432 -0.1072 -0.8211
 5010TIP3   OH236588   5.793   4.739   1.419 -0.0917  0.0492 -0.0158
 5010TIP3    H136589   5.784   4.830   1.448  0.4840 -0.6147  2.3369
 5010TIP3    H236590   5.705   4.703   1.425 -0.4483  0.6194 -1.6010
 5011TIP3   OH236591   4.761   3.176   2.499 -0.6631 -0.3867  0.1286
 5011TIP3    H136592   4.816   3.140   2.429  0.4141 -0.3470  0.9294
 5011TIP3    H236593   4.743   3.266   2.471  0.8633  0.0590  0.5013
 5012TIP3   OH236594   1.147   2.495   0.866 -0.0452  0.6302  0.0640
 5012TIP3    H136595   1.075   2.531   0.815  0.0755 -0.4054 -0.8456
 5012TIP3    H236596   1.167   2.564   0.930 -2.0067  0.8273  0.5090
 5013TIP3   OH236597   4.012   0.855   2.022 -0.6109  0.1558  0.0522
 5013TIP3    H136598   4.106   0.839   2.015 -0.7216 -0.1517 -0.7715
 5013TIP3    H236599   3.979   0.848   1.933 -1.0179  2.8444 -0.0545
 5014TIP3   OH236600   5.065   1.065   2.138  0.2446 -0.2585  0.4308
 5014TIP3    H136601   5.016   1.113   2.071 -3.4593 -0.6612  2.6540
 5014TIP3    H236602   5.097   0.987   2.093  0.7557  1.0963 -1.6504
 5015TIP3   OH236603   5.012   7.270   1.165  0.0828 -0.1364 -0.0204
 5015TIP3    H136604   5.053   7.191   1.128 -0.2627 -0.1550 -0.3682
 5015TIP3    H236605   4.956   7.237   1.235  0.5371 -0.1262  0.3492
 5016TIP3   OH236606   5.166   7.101   1.016  0.1010 -0.4348  0.3278
 5016TIP3    H136607   5.200   7.012   1.018  1.5113 -0.0317 -2.9506
 5016TIP3    H236608   5.214   7.144   0.946 -1.8771  2.3842  0.5909
 5017TIP3   OH236609   3.022   3.292   7.325  0.0829 -0.1403  0.2308
 5017TIP3    H136610   3.113   3.277   7.351 -0.5128 -0.5217  2.2450
 5017TIP3    H236611   2.971   3.264   7.402 -1.7073  0.3443 -0.7598
 5018TIP3   OH236612   2.636   1.603   0.814 -0.2634 -0.1026  0.2440
 5018TIP3    H136613   2.549   1.580   0.781  0.0527 -1.4801  0.3384
 5018TIP3    H236614   2.623   1.686   0.861 -1.1621  0.6790 -1.3346
 5019TIP3   OH236615   2.862   4.669   8.483  0.6981  0.3237  0.9046
 5019TIP3    H136616   2.944   4.632   8.451  1.5834  1.5778  1.6904
 5019TIP3    H236617   2.882   4.761   8.501 -1.1844  0.9481 -0.0257
 5020TIP3   OH236618   7.096   0.958   2.311  0.1421 -0.4644  0.4677
 5020TIP3    H136619   7.157   1.031   2.320  0.3835 -0.5840 -0.2379
 5020TIP3    H236620   7.118   0.900   2.384  0.1694  0.0035  0.8352
 5021TIP3   OH236621   3.889   3.419   1.456  0.1458  0.4384  0.0195
 5021TIP3    H136622   3.917   3.433   1.546  0.2355 -0.1992  0.0927
 5021TIP3    H236623   3.947   3.350   1.423  1.4235  2.0599 -1.1595
 5022TIP3   OH236624   3.326   3.453   1.662  0.5077  0.2958  0.1629
 5022TIP3    H136625   3.414   3.420   1.644  0.4095 -0.6123  1.2896
 5022TIP3    H236626   3.275   3.374   1.682  0.1730  1.0862  2.5255
 5023TIP3   OH236627   5.356   2.848   1.829  0.0151 -0.1627  0.4444
 5023TIP3    H136628   5.411   2.888   1.897 -0.6955  0.0694  0.8902
 5023TIP3    H236629   5.276   2.901   1.828 -0.0106 -0.2075 -0.5323
 5024TIP3   OH236630   3.108   2.554   8.288 -0.1556 -0.1066 -0.2683
 5024TIP3    H136631   3.101   2.482   8.350  0.9578  2.3139  2.7928
 5024TIP3    H236632   3.135   2.629   8.341 -0.2553  2.3344 -3.5114
 5025TIP3   OH236633   4.876   0.577   7.026  0.0022  0.3257 -0.1038
 5025TIP3    H136634   4.832   0.615   7.102 -1.4418  1.0303 -1.2666
 5025TIP3    H236635   4.899   0.652   6.972 -0.6642 -0.2839 -1.2448
 5026TIP3   OH236636   4.648   6.069   1.852 -0.0671  0.0134  0.5259
 5026TIP3    H136637   4.675   6.067   1.760  1.2227  0.6778  0.8767
 5026TIP3    H236638   4.695   5.997   1.893  1.6367  1.5020  1.2520
 5027TIP3   OH236639   5.119   3.396   1.447  0.3473  0.3746 -0.0432
 5027TIP3    H136640   5.175   3.324   1.475  2.2896  2.3187  1.2225
 5027TIP3    H236641   5.072   3.422   1.526  0.2257  0.9892 -0.3149
 5028TIP3   OH236642   3.903   2.648   1.981 -0.3253 -0.1001 -0.2736
 5028TIP3    H136643   3.850   2.670   2.057 -0.3143  0.3920 -0.4061
 5028TIP3    H236644   3.886   2.718   1.918  0.0836 -0.2095 -0.5123
 5029TIP3   OH236645   5.701   6.065   1.062  0.2319  0.3442  0.3915
 5029TIP3    H136646   5.795   6.059   1.079  0.1298 -0.8798  0.5593
 5029TIP3    H236647   5.693   6.058   0.967  0.0366 -3.8241  0.6384
 5030TIP3   OH236648   1.798   3.408   2.159 -0.1672 -0.6620  0.1517
 5030TIP3    H136649   1.880   3.449   2.130 -0.0425 -0.6614  0.5044
 5030TIP3    H236650   1.787   3.436   2.249  0.0090 -1.5312  0.4542
 5031TIP3   OH236651   5.919   5.536   8.441  0.3719 -0.5961  0.1227
 5031TIP3    H136652   5.830   5.526   8.474  1.0101 -0.7477  1.8146
 5031TIP3    H236653   5.921   5.625   8.405 -0.3222 -0.4358  0.4742
 5032TIP3   OH236654   5.191   6.727   0.039 -0.6577  0.2679 -0.0968
 5032TIP3    H136655   5.165   6.728  -0.053  1.4915 -0.8669 -0.7501
 5032TIP3    H236656   5.278   6.687   0.039 -0.6604  0.1782  2.4406
 5033TIP3   OH236657   5.676   5.506   1.212 -0.1238  0.6872  0.4619
 5033TIP3    H136658   5.771   5.515   1.207  0.0607 -1.3089 -0.0248
 5033TIP3    H236659   5.661   5.458   1.294 -0.8055  2.0409  1.1476
 5034TIP3   OH236660   5.362   2.346   1.795 -0.5897 -0.0320 -0.1093
 5034TIP3    H136661   5.366   2.439   1.772  1.4472 -0.4490 -1.5834
 5034TIP3    H236662   5.365   2.300   1.711  0.6931 -1.4562  0.6871
 5035TIP3   OH236663   1.908   3.873   6.888 -0.8283  0.8694 -0.0444
 5035TIP3    H136664   1.979   3.811   6.906 -0.8105  0.6802 -0.7431
 5035TIP3    H236665   1.890   3.913   6.973 -0.6665  0.0949  0.3693
 5036TIP3   OH236666   4.902   0.508   8.046 -0.0981  0.2158  0.2290
 5036TIP3    H136667   4.821   0.539   8.007  0.4447  0.9411 -0.3262
 5036TIP3    H236668   4.942   0.453   7.979 -0.4058 -0.6082  0.7154
 5037TIP3   OH236669   2.934   4.387   0.929  0.1007  0.4012  0.0749
 5037TIP3    H136670   2.968   4.459   0.874  1.0664  0.3949  0.6514
 5037TIP3    H236671   2.958   4.412   1.018  1.8845 -1.4130  0.1352
 5038TIP3   OH236672   2.850   1.300   8.370  0.2514  0.4721 -0.0135
 5038TIP3    H136673   2.939   1.325   8.396  0.7491  1.7241 -2.7694
 5038TIP3    H236674   2.794   1.361   8.417  1.0374  1.6664 -0.5944
 5039TIP3   OH236675   4.587   4.787   1.059  0.3444 -0.0266 -0.3004
 5039TIP3    H136676   4.588   4.841   1.138 -0.4538 -0.9013  0.3102
 5039TIP3    H236677   4.665   4.815   1.010  1.3091 -0.0540  1.1874
 5040TIP3   OH236678   2.193   2.240   6.497 -0.0988  0.0109  0.3718
 5040TIP3    H136679   2.269   2.261   6.551  0.4785  1.2224 -0.8908
 5040TIP3    H236680   2.143   2.322   6.493 -1.4210 -0.7343  1.0882
 5041TIP3   OH236681   6.282   2.964   1.459  0.0242 -0.4720 -0.0275
 5041TIP3    H136682   6.245   3.052   1.460 -0.3969 -0.6277 -1.3374
 5041TIP3    H236683   6.374   2.976   1.482  0.0064  0.3219 -0.3749
 5042TIP3   OH236684   5.373   1.206   2.164 -0.4901 -0.4718  0.1821
 5042TIP3    H136685   5.373   1.202   2.069  1.2856 -0.6756  0.1684
 5042TIP3    H236686   5.300   1.264   2.186 -1.2288 -0.8340 -1.2730
 5043TIP3   OH236687   4.574   7.230   1.018 -0.3550  0.1296 -0.0345
 5043TIP3    H136688   4.590   7.145   1.062 -0.2666  0.3815  0.4275
 5043TIP3    H236689   4.489   7.258   1.051 -0.5091  0.0857 -0.4034
 5044TIP3   OH236690   0.656   4.417   1.530  0.3451 -0.4391 -0.4072
 5044TIP3    H136691   0.591   4.471   1.575  1.2854 -0.1813  0.6854
 5044TIP3    H236692   0.729   4.411   1.592  0.6725 -2.1273 -0.9250
 5045TIP3   OH236693   3.101   0.124   1.839 -0.1174 -0.0417 -0.0194
 5045TIP3    H136694   3.046   0.194   1.874 -1.1678 -1.0034  0.2924
 5045TIP3    H236695   3.045   0.047   1.839  0.8307 -0.7515 -0.9507
 5046TIP3   OH236696   3.163   3.694   2.252  0.8364  0.3189 -0.1911
 5046TIP3    H136697   3.241   3.742   2.222  1.9099  0.3813  2.5951
 5046TIP3    H236698   3.101   3.763   2.277  0.8290  0.2585 -0.0441
 5047TIP3   OH236699   2.641   4.349   0.871 -0.8374  0.0530 -0.1271
 5047TIP3    H136700   2.728   4.369   0.837 -0.1810 -0.8344  0.9806
 5047TIP3    H236701   2.631   4.405   0.948 -0.3370 -1.4183  1.0324
 5048TIP3   OH236702   4.404   3.920   6.870 -0.2536  0.9506 -0.4023
 5048TIP3    H136703   4.332   3.934   6.809 -1.4469  0.6393  0.9218
 5048TIP3    H236704   4.418   4.006   6.909  0.2557  1.0616 -0.8223
 5049TIP3   OH236705   3.487   7.293   1.761  0.0633  0.1515  0.3904
 5049TIP3    H136706   3.415   7.231   1.751 -0.8890  1.4087 -0.6067
 5049TIP3    H236707   3.566   7.238   1.763 -0.7698 -1.0882 -0.4694
 5050TIP3   OH236708   6.758   0.395   2.042  0.2602 -0.2979 -0.2879
 5050TIP3    H136709   6.767   0.344   2.122  2.7459 -1.0180 -0.9843
 5050TIP3    H236710   6.739   0.330   1.974  1.6458 -0.1116 -0.8678
 5051TIP3   OH236711   5.571   1.608   2.098  0.5520 -0.2485  0.0760
 5051TIP3    H136712   5.625   1.682   2.069  0.5027 -0.9643 -1.9164
 5051TIP3    H236713   5.570   1.616   2.194 -0.5938  3.1023 -0.1439
 5052TIP3   OH236714   6.108   4.958   1.663 -0.2292 -0.4138 -0.5175
 5052TIP3    H136715   6.077   5.023   1.726 -2.5857 -2.1840  0.2133
 5052TIP3    H236716   6.188   4.923   1.703 -0.7469 -0.2779  0.6641
 5053TIP3   OH236717   4.964   3.722   1.618 -0.0781 -0.2791  0.3285
 5053TIP3    H136718   4.969   3.738   1.712  2.0654  2.2000 -0.1485
 5053TIP3    H236719   4.930   3.804   1.582  1.5547 -0.2812 -1.2823
 5054TIP3   OH236720   5.130   5.922   7.259  0.3227  0.7933 -0.0094
 5054TIP3    H136721   5.114   5.836   7.300  2.2663  0.6808  0.5457
 5054TIP3    H236722   5.217   5.915   7.222  0.7703  2.7587  0.6319
 5055TIP3   OH236723   5.006   1.060   0.988 -0.1873  0.3057 -0.0789
 5055TIP3    H136724   5.021   1.002   1.063  4.8528  1.9512  0.4332
 5055TIP3    H236725   5.014   1.148   1.025 -0.9130  1.1975 -1.9956
 5056TIP3   OH236726   3.445   3.775   0.657 -0.0862 -0.1932 -0.1071
 5056TIP3    H136727   3.490   3.771   0.742  1.2006  1.9805 -0.6476
 5056TIP3    H236728   3.353   3.787   0.679  0.2937  0.7918  1.0011
 5057TIP3   OH236729   4.095   3.430   2.248 -0.0031  0.1703  0.0508
 5057TIP3    H136730   4.168   3.400   2.194 -0.4197  0.6083 -0.7668
 5057TIP3    H236731   4.136   3.486   2.314  0.5020 -0.3151  0.1478
 5058TIP3   OH236732   4.507   3.879   2.355  0.0003  0.0818 -0.0562
 5058TIP3    H136733   4.581   3.930   2.387 -1.3741  1.2752  1.3154
 5058TIP3    H236734   4.546   3.800   2.318  1.9905  1.0032  0.0181
 5059TIP3   OH236735   5.762   5.060   1.034  0.0854  0.0086  0.8238
 5059TIP3    H136736   5.813   5.083   1.112 -0.4984 -1.4551  1.6675
 5059TIP3    H236737   5.680   5.024   1.068 -0.2217 -0.5536 -0.4625
 5060TIP3   OH236738   4.971   6.042   1.021 -0.6533  0.1089 -0.2092
 5060TIP3    H136739   4.981   5.957   1.064 -1.6985 -0.2466 -0.6498
 5060TIP3    H236740   5.031   6.037   0.946 -1.4474 -0.6238 -0.7993
 5061TIP3   OH236741   3.683   3.615   1.444 -0.5453  0.1291  0.6595
 5061TIP3    H136742   3.616   3.570   1.495 -1.3274 -0.6240 -0.9954
 5061TIP3    H236743   3.763   3.565   1.461 -1.2650 -1.4890 -0.6108
 5062TIP3   OH236744   2.295   2.416   7.565 -0.3617  0.0913 -0.1802
 5062TIP3    H136745   2.288   2.402   7.471  0.2675 -0.2933 -0.1698
 5062TIP3    H236746   2.382   2.385   7.588 -0.9888 -1.0352  0.7381
 5063TIP3   OH236747   2.534   2.730   8.435  0.1812 -0.2107  0.1760
 5063TIP3    H136748   2.621   2.733   8.475  0.0384 -1.1329  0.5739
 5063TIP3    H236749   2.482   2.793   8.484  0.6229  0.3194 -0.0398
 5064TIP3   OH236750   6.400   2.453   1.926  0.2936  0.1503 -0.4181
 5064TIP3    H136751   6.360   2.407   1.853  0.4404  2.1193 -1.7722
 5064TIP3    H236752   6.328   2.501   1.967  0.6892  1.1805 -0.9210
 5065TIP3   OH236753   4.301   3.884   1.632  0.3494 -0.1386 -0.6159
 5065TIP3    H136754   4.342   3.883   1.719  0.9452  0.7282 -0.8826
 5065TIP3    H236755   4.344   3.813   1.585 -0.6720 -1.2544  0.1084
 5066TIP3   OH236756   1.583   1.566   7.178  0.1608 -0.2047 -0.1546
 5066TIP3    H136757   1.607   1.659   7.187  1.0851 -0.4839  0.2754
 5066TIP3    H236758   1.666   1.521   7.164 -0.4406 -0.7992 -1.8653
 5067TIP3   OH236759   2.558   3.077   1.140 -0.2751 -0.3267  0.3664
 5067TIP3    H136760   2.484   3.136   1.129 -0.2237 -0.3341  0.0006
 5067TIP3    H236761   2.580   3.047   1.052  1.9369  1.8426  0.1200
 5068TIP3   OH236762   4.141   4.444   0.713 -0.5175  0.7037  0.0916
 5068TIP3    H136763   4.155   4.533   0.681 -1.0348  0.5384 -0.6154
 5068TIP3    H236764   4.203   4.391   0.663  0.0536  0.7106  0.7793
 5069TIP3   OH236765   3.978   4.748   0.528 -0.1664  0.5184  0.2651
 5069TIP3    H136766   3.928   4.689   0.583 -1.5213 -0.1907 -1.6644
 5069TIP3    H236767   4.070   4.721   0.539 -0.7349 -1.7269 -0.3378
 5070TIP3   OH236768   3.812   4.547   2.160 -0.2214  0.2836 -0.3329
 5070TIP3    H136769   3.769   4.465   2.181 -0.0550  0.0758 -0.7895
 5070TIP3    H236770   3.778   4.610   2.224 -0.1423 -0.2017  0.1842
 5071TIP3   OH236771   4.273   3.422   1.807  0.1073 -0.0859 -0.3991
 5071TIP3    H136772   4.286   3.517   1.804  0.0187 -0.0849 -0.8318
 5071TIP3    H236773   4.286   3.399   1.898  0.1420  0.3438 -0.2929
 5072TIP3   OH236774   3.009   4.273   8.298  0.5652 -0.0241 -0.4375
 5072TIP3    H136775   2.915   4.289   8.296  0.2758 -1.5397  0.3550
 5072TIP3    H236776   3.024   4.225   8.380  1.6189 -2.2134 -1.8745
 5073TIP3   OH236777   3.403   5.081   8.169 -0.2016 -0.2190 -0.3873
 5073TIP3    H136778   3.374   5.171   8.184 -0.1664 -0.2954  0.1250
 5073TIP3    H236779   3.323   5.030   8.164 -0.2281 -0.1392 -0.8247
 5074TIP3   OH236780   3.629   1.573   1.521 -0.2152 -0.0406  0.2448
 5074TIP3    H136781   3.593   1.577   1.432 -0.9778 -0.1459  0.5509
 5074TIP3    H236782   3.703   1.512   1.514  1.2774  1.8327 -0.8585
 5075TIP3   OH236783   1.290   0.703   7.126 -0.0535 -0.1508 -0.5473
 5075TIP3    H136784   1.306   0.614   7.096  0.2866 -1.1421  2.3896
 5075TIP3    H236785   1.199   0.702   7.155  0.4381 -0.0299  1.0330
 5076TIP3   OH236786   3.641   6.822   1.419 -0.0674 -0.2278  0.3429
 5076TIP3    H136787   3.722   6.851   1.378  0.5695 -0.4172  1.4524
 5076TIP3    H236788   3.582   6.805   1.345  0.3614  1.4481 -0.4067
 5077TIP3   OH236789   5.124   2.105   1.817  0.4851  0.4161  0.2646
 5077TIP3    H136790   5.119   2.194   1.781 -1.2038  0.6863  1.0830
 5077TIP3    H236791   5.106   2.116   1.910  0.4757 -0.7574  0.4125
 5078TIP3   OH236792   3.971   0.815   1.182  0.5413  0.3564 -0.2356
 5078TIP3    H136793   3.890   0.840   1.138  1.6031  0.9117 -1.8921
 5078TIP3    H236794   3.979   0.879   1.254 -1.4356 -0.8577  1.1228
 5079TIP3   OH236795   3.447   2.312   0.952  0.1761 -1.0512  0.4189
 5079TIP3    H136796   3.449   2.385   1.014 -0.1489  1.5548 -2.5279
 5079TIP3    H236797   3.530   2.318   0.905 -1.2540 -0.4592 -2.1336
 5080TIP3   OH236798   2.872   0.053   0.671 -0.2097 -0.3459 -0.5737
 5080TIP3    H136799   2.826  -0.020   0.630 -1.1141  0.0750 -0.3240
 5080TIP3    H236800   2.879   0.027   0.763 -3.6301  1.3734  0.2417
 5081TIP3   OH236801   5.850   6.801   0.336  0.8649 -0.2361 -0.1428
 5081TIP3    H136802   5.789   6.754   0.394  0.6004  1.7471  1.2048
 5081TIP3    H236803   5.794   6.841   0.270  0.5635  2.4302  1.6782
 5082TIP3   OH236804   2.365   0.979   7.885 -0.2561 -0.5519 -0.7939
 5082TIP3    H136805   2.394   0.933   7.806  2.5123  1.0597 -0.7755
 5082TIP3    H236806   2.309   1.050   7.852 -1.1859 -1.4082 -1.0974
 5083TIP3   OH236807   2.866   4.253   6.365  0.1311  0.1549  0.2010
 5083TIP3    H136808   2.938   4.194   6.385 -0.4855 -0.8697 -0.5637
 5083TIP3    H236809   2.791   4.196   6.348 -0.5533  1.1575 -0.2460
 5084TIP3   OH236810   2.806   2.986   1.454 -0.0431  0.5724  0.2333
 5084TIP3    H136811   2.762   2.906   1.427  0.8953  0.2714 -0.4475
 5084TIP3    H236812   2.791   2.992   1.548  0.2634 -0.6401  0.3674
 5085TIP3   OH236813   3.324   3.128   7.107 -0.5758  0.2103  0.0186
 5085TIP3    H136814   3.349   3.098   7.194 -0.0216  0.1576 -0.1550
 5085TIP3    H236815   3.400   3.108   7.052 -0.3097  1.6679 -0.1616
 5086TIP3   OH236816   0.354   3.348   1.773 -0.4827 -0.3936  0.3641
 5086TIP3    H136817   0.383   3.342   1.865 -1.1586 -0.3400  0.5787
 5086TIP3    H236818   0.274   3.296   1.770 -0.1681 -0.8434 -0.3232
 5087TIP3   OH236819   2.937   1.926   0.193 -0.5723  0.1419 -0.1212
 5087TIP3    H136820   2.998   1.965   0.131  0.1038 -0.3543  0.2198
 5087TIP3    H236821   2.933   1.834   0.167 -1.6895  0.3113 -0.5499
 5088TIP3   OH236822   0.092   2.872   1.682  0.1095 -0.2613 -0.3724
 5088TIP3    H136823   0.033   2.898   1.752 -0.1311 -2.6550  0.3384
 5088TIP3    H236824   0.039   2.877   1.602  0.4778  2.7959 -0.4947
 5089TIP3   OH236825   5.606   3.902   2.217 -0.8676  0.5490 -0.0634
 5089TIP3    H136826   5.537   3.837   2.215 -0.0305 -0.4189  1.4422
 5089TIP3    H236827   5.629   3.917   2.125 -1.2420 -1.0887 -0.4323
 5090TIP3   OH236828   2.250   4.679   0.575  0.4022 -0.1818 -0.2152
 5090TIP3    H136829   2.299   4.739   0.519  1.3551  0.0219  0.8319
 5090TIP3    H236830   2.316   4.619   0.609  0.3070  1.4613  3.0107
 5091TIP3   OH236831   7.139   2.844   1.538  0.5456  0.5575  0.9718
 5091TIP3    H136832   7.060   2.792   1.553 -0.4614  1.9176  0.5250
 5091TIP3    H236833   7.111   2.913   1.478  2.2459  0.6734  0.2647
 5092TIP3   OH236834   3.295   3.799   2.683  0.1443 -0.7579 -0.3999
 5092TIP3    H136835   3.368   3.751   2.644 -0.1386 -0.0938 -1.7536
 5092TIP3    H236836   3.218   3.768   2.638 -0.5315 -2.0057  1.5478
 5093TIP3   OH236837   1.618   3.304   1.993 -0.1966 -0.0839 -0.0055
 5093TIP3    H136838   1.540   3.346   2.029 -0.8873 -2.3245  1.1915
 5093TIP3    H236839   1.691   3.348   2.036 -0.7758  1.9784 -1.0778
 5094TIP3   OH236840   4.775   1.252   1.717 -0.0351 -0.0793  0.0819
 5094TIP3    H136841   4.799   1.337   1.754 -1.4401  0.9036 -1.2246
 5094TIP3    H236842   4.681   1.258   1.702  0.0449 -1.4604 -1.0473
 5095TIP3   OH236843   0.216   3.816   1.841  0.2558  0.0477  0.0041
 5095TIP3    H136844   0.121   3.825   1.851  0.2913 -0.4185  0.7217
 5095TIP3    H236845   0.226   3.773   1.756 -0.1464  0.7989 -0.4298
 5096TIP3   OH236846   6.042   2.067   6.773  0.5841  0.3276  0.5031
 5096TIP3    H136847   6.129   2.105   6.782  0.3445  0.7772  1.0430
 5096TIP3    H236848   5.985   2.142   6.755 -0.3316  0.6897  4.3208
 5097TIP3   OH236849   6.247   3.975   1.684 -0.4553  0.3574 -0.0750
 5097TIP3    H136850   6.227   3.898   1.738 -0.0647  2.0008  2.4997
 5097TIP3    H236851   6.167   4.028   1.687  0.4638  1.7196  1.1144
 5098TIP3   OH236852   0.904   2.706   0.793 -0.4622  0.3542 -0.2488
 5098TIP3    H136853   0.903   2.670   0.882  0.3122  0.0916 -0.3425
 5098TIP3    H236854   0.960   2.783   0.800  0.9300 -0.5781 -0.8470
 5099TIP3   OH236855   0.487   3.683   6.727  0.6930  0.2995  0.0365
 5099TIP3    H136856   0.489   3.729   6.644  1.1127  1.5812  0.7501
 5099TIP3    H236857   0.474   3.591   6.703 -0.7725  0.8409 -1.3652
 5100TIP3   OH236858   7.194   3.712   7.117  0.0277  0.4237 -0.3337
 5100TIP3    H136859   7.137   3.637   7.129  0.4373 -0.0563 -1.3368
 5100TIP3    H236860   7.142   3.787   7.147 -0.7610 -0.1263 -0.3153
 5101TIP3   OH236861   4.616   6.234   2.068  0.3391  0.0607 -0.0492
 5101TIP3    H136862   4.596   6.183   1.990  0.8812 -1.7325  0.9299
 5101TIP3    H236863   4.534   6.236   2.118  0.7289 -1.3399  0.6951
 5102TIP3   OH236864   7.241   1.727   0.485  0.6196  0.5101  0.4465
 5102TIP3    H136865   7.299   1.802   0.477 -0.2172  0.9081 -2.0265
 5102TIP3    H236866   7.155   1.764   0.505  0.5813  0.0843  1.1068
 5103TIP3   OH236867   5.112   2.058   2.084  0.0841  0.0122  0.3302
 5103TIP3    H136868   5.076   2.097   2.164 -0.3147  1.1476 -0.3887
 5103TIP3    H236869   5.207   2.073   2.091  0.1500 -0.7433  1.0428
 5104TIP3   OH236870   1.768   3.107   0.331 -0.2976 -0.1686  0.0476
 5104TIP3    H136871   1.679   3.084   0.358 -0.4754  1.4930  0.9813
 5104TIP3    H236872   1.796   3.034   0.277 -1.7185 -1.3733  0.8730
 5105TIP3   OH236873   4.278   2.341   1.682  0.3521  0.0355  0.0662
 5105TIP3    H136874   4.290   2.246   1.686 -0.8799 -0.1978 -1.2878
 5105TIP3    H236875   4.312   2.374   1.766  0.2603 -1.6471  0.7714
 5106TIP3   OH236876   5.815   3.325   1.977  0.2101 -0.1154  0.0322
 5106TIP3    H136877   5.776   3.389   2.037  0.6579 -0.6103  0.8610
 5106TIP3    H236878   5.753   3.252   1.977  0.5323 -0.3833  0.3808
 5107TIP3   OH236879   5.411   2.537   2.363  0.0753 -0.5066  0.0333
 5107TIP3    H136880   5.398   2.621   2.319  1.2953  0.5859  1.7148
 5107TIP3    H236881   5.332   2.487   2.342 -0.0837  0.5641 -2.0494
 5108TIP3   OH236882   1.803   0.825   7.977 -0.2533  0.4993 -0.3097
 5108TIP3    H136883   1.802   0.732   7.954 -0.7337  0.7369 -1.2720
 5108TIP3    H236884   1.896   0.848   7.981 -0.1402  0.0374 -0.3240
 5109TIP3   OH236885   3.449   3.915   1.915 -0.0702 -0.2593 -0.2318
 5109TIP3    H136886   3.456   3.856   1.840 -0.6773 -0.9073  0.2234
 5109TIP3    H236887   3.446   3.858   1.991  1.8755  0.4463  0.3979
 5110TIP3   OH236888   5.232   5.136   1.049  0.4600  0.2883 -0.3779
 5110TIP3    H136889   5.217   5.070   1.117  0.8775  0.5232 -0.0547
 5110TIP3    H236890   5.323   5.125   1.023  0.7365  1.1789  0.1662
 5111TIP3   OH236891   5.209   2.228   7.089 -0.3326 -0.2738 -0.1242
 5111TIP3    H136892   5.267   2.303   7.074  0.5430 -0.7812  0.6765
 5111TIP3    H236893   5.134   2.264   7.136 -0.8646  0.4577 -1.4916
 5112TIP3   OH236894   1.851   3.415   0.477  0.1992  0.1683  0.2878
 5112TIP3    H136895   1.759   3.403   0.453  0.9490  0.4849 -3.0257
 5112TIP3    H236896   1.848   3.473   0.553 -2.3523 -0.2481  0.5731
 5113TIP3   OH236897   2.439   4.573   0.278  0.3849 -0.1443  0.0915
 5113TIP3    H136898   2.456   4.657   0.235 -0.0762  0.2241  0.6189
 5113TIP3    H236899   2.514   4.519   0.255  0.9986  0.6216  0.2782
 5114TIP3   OH236900   5.083   2.638   1.867 -0.1139  0.0354 -0.2319
 5114TIP3    H136901   4.990   2.615   1.860 -0.7324  1.5455  2.3662
 5114TIP3    H236902   5.091   2.719   1.817 -0.6914  1.0602  1.2841
 5115TIP3   OH236903   2.847   4.558   0.256 -0.5035 -0.3067  0.2332
 5115TIP3    H136904   2.852   4.629   0.192  0.0469 -0.3740  0.1957
 5115TIP3    H236905   2.923   4.572   0.313 -1.6849  0.4972  1.6496
 5116TIP3   OH236906   4.549   6.340   8.063 -0.1945  0.5816 -0.2416
 5116TIP3    H136907   4.521   6.330   7.972  2.1414 -0.9885 -0.8329
 5116TIP3    H236908   4.522   6.429   8.087  2.5510  2.4786 -3.7140
 5117TIP3   OH236909   4.350   6.416   1.184 -0.1426 -0.1503  0.0977
 5117TIP3    H136910   4.359   6.498   1.136  0.2115  0.7754  1.7277
 5117TIP3    H236911   4.427   6.364   1.159 -0.5370 -0.1392 -1.1858
 5118TIP3   OH236912   5.934   4.695   1.750  0.0315 -0.8278  0.4477
 5118TIP3    H136913   6.001   4.720   1.687 -0.5678  0.7383  0.4117
 5118TIP3    H236914   5.933   4.766   1.814 -4.4600  1.3802 -1.8433
 5119TIP3   OH236915   4.789   3.249   1.732 -0.1642 -0.1387  0.0058
 5119TIP3    H136916   4.884   3.255   1.746  0.1465 -2.0002 -1.1606
 5119TIP3    H236917   4.762   3.171   1.782 -0.9407 -0.1037 -0.3515
 5120TIP3   OH236918   3.270   2.142   1.084  0.0730 -0.2891 -0.2910
 5120TIP3    H136919   3.269   2.189   1.167 -2.9869  0.0908 -0.4966
 5120TIP3    H236920   3.327   2.195   1.028 -0.2441  1.0994  0.6562
 5121TIP3   OH236921   2.441   2.254   8.454  0.6615  0.2693 -0.1057
 5121TIP3    H136922   2.497   2.316   8.407 -0.6625  1.9754  0.4984
 5121TIP3    H236923   2.354   2.296   8.454 -0.1990 -1.4783  0.5413
 5122TIP3   OH236924   5.680   2.844   1.268 -0.1603 -0.3565 -0.1030
 5122TIP3    H136925   5.703   2.924   1.315 -1.0896 -0.0362 -0.1886
 5122TIP3    H236926   5.707   2.861   1.177  3.1758 -1.6022  0.5703
 5123TIP3   OH236927   5.776   1.377   0.856  0.6787  0.5143 -0.1698
 5123TIP3    H136928   5.713   1.375   0.928  1.2527 -1.5705  0.3312
 5123TIP3    H236929   5.860   1.397   0.898  0.8773  0.0719 -0.3442
 5124TIP3   OH236930   5.895   4.228   1.399  0.6896 -0.2001 -0.1050
 5124TIP3    H136931   5.966   4.214   1.336 -0.3850 -2.8332 -0.7958
 5124TIP3    H236932   5.937   4.225   1.485  1.7957  0.9490 -0.5945
 5125TIP3   OH236933   5.085   7.000   1.782  0.0057 -0.0373 -0.3436
 5125TIP3    H136934   5.080   7.095   1.795  0.1518 -0.0178 -0.4330
 5125TIP3    H236935   5.149   6.989   1.712 -1.5630 -0.0883 -1.7927
 5126TIP3   OH236936   0.641   6.482   0.995  0.3529  0.1133  0.0925
 5126TIP3    H136937   0.722   6.473   1.046  1.0049 -1.9313 -1.2359
 5126TIP3    H236938   0.671   6.501   0.906 -0.6875  0.8841 -0.0925
 5127TIP3   OH236939   6.008   7.179   8.459  0.1858 -0.3033  0.4505
 5127TIP3    H136940   5.926   7.228   8.453 -0.2926 -0.9604  1.4883
 5127TIP3    H236941   6.042   7.201   8.546  1.2465  0.1697 -0.0726
 5128TIP3   OH236942   6.777   1.738   1.635  0.2323 -0.2688 -0.3205
 5128TIP3    H136943   6.860   1.704   1.668  0.3316 -0.9480 -1.2682
 5128TIP3    H236944   6.771   1.705   1.546 -0.7394  0.3411 -0.4858
 5129TIP3   OH236945   4.877   0.204   1.970  0.5334 -0.0125 -0.2595
 5129TIP3    H136946   4.854   0.111   1.969 -2.5239  0.7034 -0.9871
 5129TIP3    H236947   4.897   0.224   1.879 -3.3613  1.0290 -0.9881
 5130TIP3   OH236948   2.816   5.278   7.160  0.2609 -0.3763  0.4430
 5130TIP3    H136949   2.721   5.279   7.157  0.1944 -2.3099  1.1275
 5130TIP3    H236950   2.837   5.274   7.253  0.9698 -1.5925  0.2372
 5131TIP3   OH236951   4.871   7.251   1.635  0.6360 -0.6203  0.1572
 5131TIP3    H136952   4.830   7.180   1.685  0.1830 -0.8913 -0.5951
 5131TIP3    H236953   4.939   7.285   1.693  0.8231 -1.6376  0.5425
 5132TIP3   OH236954   7.083   2.328   2.269  0.1030 -0.1747 -0.4895
 5132TIP3    H136955   7.128   2.410   2.288 -0.0052 -0.2756  0.2235
 5132TIP3    H236956   7.140   2.260   2.303 -0.0171 -0.3732 -0.6789
 5133TIP3   OH236957   2.359   4.207   0.161  0.0647 -0.0505  0.1071
 5133TIP3    H136958   2.285   4.150   0.186 -0.7689  0.5917 -0.8630
 5133TIP3    H236959   2.376   4.259   0.239 -0.6221 -0.0832  0.2863
 5134TIP3   OH236960   4.556   6.516   1.803 -0.1461  0.4300  0.5479
 5134TIP3    H136961   4.599   6.475   1.728 -2.0614  0.8128 -0.8175
 5134TIP3    H236962   4.526   6.443   1.857 -0.7575  0.0854 -0.2429
 5135TIP3   OH236963   2.310   2.907   1.748 -0.4364 -0.2243  0.3187
 5135TIP3    H136964   2.359   2.903   1.830 -0.3351  0.4636  0.2998
 5135TIP3    H236965   2.348   2.982   1.702 -1.8187  0.6093  0.5086
 5136TIP3   OH236966   0.850   1.962   0.255  0.1073 -0.0754 -0.0210
 5136TIP3    H136967   0.887   1.875   0.243 -0.7481 -0.4234 -0.1875
 5136TIP3    H236968   0.918   2.022   0.226  0.0273 -0.7512 -1.6054
 5137TIP3   OH236969   3.759   2.326   1.016 -0.9338 -0.0125 -0.0762
 5137TIP3    H136970   3.824   2.320   1.085 -1.0005 -1.3869 -0.1305
 5137TIP3    H236971   3.792   2.271   0.945 -1.4363  0.4529 -0.6898
 5138TIP3   OH236972   6.902   6.657   0.548  0.6539 -0.1089  0.2813
 5138TIP3    H136973   6.955   6.702   0.482 -0.3259 -0.2271 -0.6062
 5138TIP3    H236974   6.959   6.587   0.580  1.0500 -0.2312 -0.6550
 5139TIP3   OH236975   6.422   0.869   0.167  0.2270  0.1620  0.2901
 5139TIP3    H136976   6.363   0.882   0.093 -0.7396  0.9977  1.1887
 5139TIP3    H236977   6.456   0.957   0.187  1.0115 -0.1582  0.4088
 5140TIP3   OH236978   0.170   3.942   1.527  0.1076 -0.7079  0.6794
 5140TIP3    H136979   0.220   3.869   1.489  2.5772 -1.1670  4.5097
 5140TIP3    H236980   0.212   4.021   1.493 -0.6087 -1.0173 -1.0151
 5141TIP3   OH236981   4.030   0.403   1.352 -0.2451  0.0837 -0.0157
 5141TIP3    H136982   4.097   0.424   1.287 -0.7897  0.4765 -0.4567
 5141TIP3    H236983   3.991   0.321   1.322  0.2152 -0.2796  0.3811
 5142TIP3   OH236984   7.144   4.589   1.758  0.0185 -0.4146 -0.4544
 5142TIP3    H136985   7.209   4.531   1.716  0.1755 -0.6861  0.1605
 5142TIP3    H236986   7.166   4.586   1.851  1.5720  2.5586 -0.6717
 5143TIP3   OH236987   2.019   5.674   1.213 -0.4690 -1.0209 -0.2680
 5143TIP3    H136988   2.032   5.752   1.159  1.3794 -1.9551 -1.1951
 5143TIP3    H236989   1.937   5.691   1.260  0.0543  1.6070 -0.2278
 5144TIP3   OH236990   5.927   3.761   1.951  0.0959  0.5088 -0.3426
 5144TIP3    H136991   5.866   3.713   1.896  0.2046  0.5592 -0.5056
 5144TIP3    H236992   5.890   3.849   1.958 -1.4926 -0.2716  2.0655
 5145TIP3   OH236993   6.847   4.982   2.099 -0.1296  0.1059 -0.5293
 5145TIP3    H136994   6.907   5.034   2.152 -1.2012  0.1757  0.6314
 5145TIP3    H236995   6.826   4.906   2.153 -3.7685  1.7632  0.5492
 5146TIP3   OH236996   1.397   1.468   6.882 -0.0144 -0.2745  0.0451
 5146TIP3    H136997   1.331   1.419   6.832  0.5229 -1.6905  0.6947
 5146TIP3    H236998   1.401   1.554   6.839  0.9386 -1.6770 -2.8248
 5147TIP3   OH236999   6.939   2.667   1.585 -0.2725 -0.2050  0.1713
 5147TIP3    H137000   6.850   2.681   1.617 -0.3581 -0.2814 -0.0292
 5147TIP3    H237001   6.940   2.576   1.555 -0.3455  0.0195 -0.5182
 5148TIP3   OH237002   0.874   1.267   8.025  0.1994 -0.3591 -0.0494
 5148TIP3    H137003   0.941   1.320   8.069 -0.7476  0.6824  0.1410
 5148TIP3    H237004   0.793   1.315   8.037 -0.3198 -0.7680 -1.7375
 5149TIP3   OH237005   3.737   0.190   2.017 -0.5981 -0.4734 -0.0101
 5149TIP3    H137006   3.730   0.222   2.107  0.6366 -3.8882  1.3731
 5149TIP3    H237007   3.655   0.215   1.975 -0.4796  2.6730  1.5270
 5150TIP3   OH237008   2.514   4.628   8.059  0.4282  0.3791 -0.3628
 5150TIP3    H137009   2.482   4.706   8.015 -1.7766 -0.2417  0.1120
 5150TIP3    H237010   2.552   4.660   8.141  0.3910  1.0455 -0.6037
 5151TIP3   OH237011   7.233   3.104   2.429  0.3612  0.2311 -0.1516
 5151TIP3    H137012   7.150   3.057   2.428  0.1834  0.5134  0.7835
 5151TIP3    H237013   7.297   3.038   2.457  0.2137  0.3666  0.5306
 5152TIP3   OH237014   0.620   2.221   0.352 -0.2814 -0.4615  0.7474
 5152TIP3    H137015   0.565   2.180   0.419 -0.2629  0.4538  1.3328
 5152TIP3    H237016   0.613   2.163   0.276 -2.1338 -0.3172  0.7771
 5153TIP3   OH237017   0.274   3.122   1.491  0.1603  0.9953 -0.1402
 5153TIP3    H137018   0.217   3.197   1.510  0.2281  1.2227 -0.8124
 5153TIP3    H237019   0.276   3.117   1.396 -0.6323 -0.4673 -0.0945
 5154TIP3   OH237020   6.493   0.538   7.823  0.5328 -0.7562 -0.4895
 5154TIP3    H137021   6.504   0.477   7.749 -0.8586 -0.6444 -0.7891
 5154TIP3    H237022   6.444   0.611   7.787  0.5151 -0.3418  0.3657
 5155TIP3   OH237023   1.587   1.560   2.065  0.1152  0.0168 -0.1608
 5155TIP3    H137024   1.521   1.564   2.135  0.4952 -2.5798  0.3978
 5155TIP3    H237025   1.661   1.608   2.101 -0.7176  1.1794  0.0470
 5156TIP3   OH237026   0.620   3.943   0.143  0.0566 -0.6727  0.1023
 5156TIP3    H137027   0.681   3.881   0.104  0.5358  0.4826 -1.0069
 5156TIP3    H237028   0.667   4.027   0.144 -1.0173 -0.0595  0.4813
 5157TIP3   OH237029   6.751   4.615   1.450  0.1272  0.3341  0.5897
 5157TIP3    H137030   6.708   4.553   1.508  1.3995 -0.4195  0.7625
 5157TIP3    H237031   6.804   4.560   1.392  1.2673  1.2573  0.7434
 5158TIP3   OH237032   1.788   2.863   1.997  0.0250  0.1171 -0.0585
 5158TIP3    H137033   1.698   2.847   2.025  0.7145  0.9065  2.8238
 5158TIP3    H237034   1.837   2.787   2.030  0.7746  0.7822  0.3810
 5159TIP3   OH237035   1.350   1.701   8.135  0.1963 -0.0324 -0.5288
 5159TIP3    H137036   1.267   1.695   8.088  0.3642  0.5122 -0.8982
 5159TIP3    H237037   1.356   1.793   8.162  0.0611 -0.3661  0.6239
 5160TIP3   OH237038   6.719   0.527   7.227 -0.0543  0.2731  0.2195
 5160TIP3    H137039   6.696   0.590   7.159 -1.1635  0.4393  0.7329
 5160TIP3    H237040   6.790   0.569   7.275 -0.3574  0.8633  0.1658
 5161TIP3   OH237041   0.715   5.481   0.687  0.5208 -0.3591  0.3185
 5161TIP3    H137042   0.792   5.425   0.676  0.2866 -0.7421  0.6449
 5161TIP3    H237043   0.695   5.476   0.781  0.5305  0.3066  0.3579
 5162TIP3   OH237044   1.611   3.879   1.133 -0.2928  0.1885  0.0884
 5162TIP3    H137045   1.546   3.922   1.077 -0.3655 -1.6688 -1.2707
 5162TIP3    H237046   1.559   3.829   1.196 -0.1709 -0.2380 -0.1548
 5163TIP3   OH237047   1.171   2.081   2.326 -0.7526  0.2914  0.2787
 5163TIP3    H137048   1.219   2.127   2.394 -0.1787  0.1180  0.0043
 5163TIP3    H237049   1.125   2.150   2.278  1.6088  0.8371 -1.3220
 5164TIP3   OH237050   0.033   2.402   1.609  0.2718  0.1241 -0.2421
 5164TIP3    H137051   0.024   2.476   1.548  0.8067  0.4795  0.1049
 5164TIP3    H237052  -0.053   2.397   1.652 -0.3971 -0.6887 -1.6385
 5165TIP3   OH237053   1.858   1.731   8.258  0.5531 -0.0111 -0.2777
 5165TIP3    H137054   1.850   1.653   8.204  2.2247 -1.2823  1.2315
 5165TIP3    H237055   1.769   1.764   8.268 -0.6252 -3.5716  1.7198
 5166TIP3   OH237056   3.138   2.238   1.776 -0.3757  0.4087  0.6048
 5166TIP3    H137057   3.217   2.186   1.790  0.3160  1.0491 -0.8301
 5166TIP3    H237058   3.171   2.328   1.765 -1.5016  1.0884  2.5461
 5167TIP3   OH237059   2.050   4.518   2.199 -0.4774 -0.6749  0.2602
 5167TIP3    H137060   2.144   4.502   2.199 -0.5500 -1.1946 -1.6038
 5167TIP3    H237061   2.012   4.438   2.163 -1.6364 -0.4281  0.9088
 5168TIP3   OH237062   6.210   0.175   8.378 -0.2916  0.2879  0.1029
 5168TIP3    H137063   6.283   0.160   8.439  0.8032 -0.6011 -1.3906
 5168TIP3    H237064   6.243   0.145   8.294 -2.8484 -1.3451 -0.3814
 5169TIP3   OH237065   5.619   2.388   2.235 -0.4960 -0.1951  0.2947
 5169TIP3    H137066   5.706   2.428   2.228 -0.4765 -0.2590  0.1587
 5169TIP3    H237067   5.571   2.444   2.295 -1.0754  1.1054 -1.3562
 5170TIP3   OH237068   2.535   2.841   7.753  0.1306  0.0548 -0.0254
 5170TIP3    H137069   2.597   2.785   7.707  1.2828  1.7879 -0.6490
 5170TIP3    H237070   2.497   2.785   7.820  0.6658 -1.6708 -1.1306
 5171TIP3   OH237071   1.239   4.301   1.904 -0.4100 -0.1052  0.5199
 5171TIP3    H137072   1.254   4.395   1.899 -2.3325  0.1116 -2.2814
 5171TIP3    H237073   1.161   4.292   1.957 -1.7434  0.0943 -1.3588
 5172TIP3   OH237074   0.728   2.428   0.172  0.3318  0.1418 -0.3796
 5172TIP3    H137075   0.819   2.399   0.174  0.0371 -0.7750  0.6061
 5172TIP3    H237076   0.682   2.366   0.230 -0.9731  0.3729 -1.1410
 5173TIP3   OH237077   0.709   4.243   0.778 -0.5672  0.2293 -0.1406
 5173TIP3    H137078   0.763   4.176   0.820 -0.9246  1.3271  2.1949
 5173TIP3    H237079   0.686   4.207   0.693  2.8060 -0.7753 -0.6916
 5174TIP3   OH237080   7.032   5.312   1.741 -0.1065  0.2083  0.3181
 5174TIP3    H137081   7.098   5.377   1.719  0.9709 -1.0426 -0.2190
 5174TIP3    H237082   7.082   5.237   1.774 -1.0492 -1.6131 -2.2081
 5175TIP3   OH237083   1.693   5.066   0.045 -0.5437  0.0717 -0.0807
 5175TIP3    H137084   1.606   5.103   0.032 -1.3774 -1.9595 -0.4460
 5175TIP3    H237085   1.737   5.076  -0.040 -0.8274  0.0242 -0.2323
 5176TIP3   OH237086   5.067   1.383   1.597  0.3725 -0.0664  0.2111
 5176TIP3    H137087   5.114   1.421   1.523 -1.5896 -1.1934 -1.6611
 5176TIP3    H237088   5.076   1.289   1.585 -2.6076 -0.3225 -0.4183
 5177TIP3   OH237089   6.692   1.913   1.818  0.1202 -0.4722  0.3631
 5177TIP3    H137090   6.678   1.854   1.893  0.1866 -1.0675 -0.0874
 5177TIP3    H237091   6.722   1.855   1.748  1.1003  0.2331  0.1838
 5178TIP3   OH237092   5.115   0.417   7.603  0.0614  0.7202 -0.3258
 5178TIP3    H137093   5.182   0.485   7.614  0.4011  0.4326 -0.5973
 5178TIP3    H237094   5.108   0.405   7.509 -1.0734  1.4326 -0.3374
 5179TIP3   OH237095   3.890   5.748   0.937 -0.5131  0.3000 -0.0907
 5179TIP3    H137096   3.930   5.701   0.864 -0.1505 -1.1065  0.9926
 5179TIP3    H237097   3.961   5.798   0.977 -0.5754  0.5429 -0.2786
 5180TIP3   OH237098   6.827   4.945   0.459  0.4043 -0.1116  0.2632
 5180TIP3    H137099   6.866   4.857   0.455  0.0568 -0.2030 -1.3920
 5180TIP3    H237100   6.745   4.932   0.506 -0.2102 -0.8984 -1.0070
 5181TIP3   OH237101   7.264   0.616   1.571  0.6701  0.3997 -0.6825
 5181TIP3    H137102   7.230   0.691   1.618  1.0709  0.9830 -1.3185
 5181TIP3    H237103   7.306   0.562   1.639 -1.2645 -0.2092  0.0671
 5182TIP3   OH237104   0.595   2.577   1.006  0.5299 -0.8074 -0.1388
 5182TIP3    H137105   0.634   2.490   0.994  1.0681 -0.6909  0.6650
 5182TIP3    H237106   0.574   2.580   1.100  0.6472 -0.0205 -0.1393
 5183TIP3   OH237107   6.233   5.263   1.904 -0.3801 -0.3410  0.0214
 5183TIP3    H137108   6.147   5.228   1.880 -0.0744 -0.0423 -1.5752
 5183TIP3    H237109   6.294   5.191   1.888  0.0902  0.4864 -2.0969
 5184TIP3   OH237110   6.602   1.898   0.915  0.3091  0.4112 -0.3850
 5184TIP3    H137111   6.674   1.887   0.853  0.0533 -1.1227 -0.4412
 5184TIP3    H237112   6.644   1.925   0.997  0.5412  3.6815 -1.5033
 5185TIP3   OH237113   1.097   3.366   1.031 -0.3656  0.2853  0.1645
 5185TIP3    H137114   1.174   3.394   0.981 -0.4536 -2.6360 -1.7329
 5185TIP3    H237115   1.115   3.394   1.121  2.9262 -0.3739 -0.2299
 5186TIP3   OH237116   3.709   2.385   1.526 -0.0078 -0.4376  0.0146
 5186TIP3    H137117   3.699   2.477   1.551 -0.6193 -0.5841  0.3030
 5186TIP3    H237118   3.801   2.378   1.498 -0.4504  0.6800 -1.7966
 5187TIP3   OH237119   0.982   6.053   0.562  0.2789  0.3228  0.2240
 5187TIP3    H137120   1.024   5.971   0.590  0.5740  0.2616 -0.3985
 5187TIP3    H237121   0.900   6.024   0.521  0.8663  0.2578 -0.9359
 5188TIP3   OH237122   0.503   1.663   2.079  0.0793 -0.1161  0.4007
 5188TIP3    H137123   0.458   1.583   2.106  0.2737  0.0356  1.1714
 5188TIP3    H237124   0.540   1.698   2.159  2.1189 -0.5752 -0.3196
 5189TIP3   OH237125   5.218   1.437   1.385 -0.1790  0.0840  0.3176
 5189TIP3    H137126   5.179   1.523   1.370 -1.2996 -0.0705  2.2134
 5189TIP3    H237127   5.309   1.455   1.408  0.0343  0.6444 -0.9126
 5190TIP3   OH237128   1.226   2.652   0.446 -0.3467  0.0947 -0.2743
 5190TIP3    H137129   1.154   2.589   0.439 -0.2670 -0.0215 -0.0173
 5190TIP3    H237130   1.215   2.691   0.533 -1.1395  1.3171 -0.9107
 5191TIP3   OH237131   0.304   6.458   8.489  0.0289 -0.6321 -0.4304
 5191TIP3    H137132   0.390   6.501   8.490 -0.3001  0.0322 -0.5380
 5191TIP3    H237133   0.274   6.465   8.580  0.2350 -1.1599 -0.3220
 5192TIP3   OH237134   1.996   1.965   7.095 -0.2236 -0.3723 -0.2756
 5192TIP3    H137135   2.029   2.026   7.161 -0.9767  1.3957 -1.5229
 5192TIP3    H237136   1.931   1.912   7.143 -1.2633  1.3510  0.2696
 5193TIP3   OH237137   5.504   6.986   1.130  0.4021 -0.2548 -0.1301
 5193TIP3    H137138   5.461   6.935   1.061 -0.2410  1.3667 -0.9667
 5193TIP3    H237139   5.584   7.019   1.089  1.5854 -1.8135  0.8775
 5194TIP3   OH237140   0.071   5.305   8.496 -0.1834  0.8250 -0.0064
 5194TIP3    H137141   0.076   5.322   8.402 -0.5164 -1.7150 -0.5387
 5194TIP3    H237142  -0.014   5.261   8.507  0.6283 -0.4775  1.1902
 5195TIP3   OH237143   6.080   1.957   2.313  0.0293  0.2980 -0.7558
 5195TIP3    H137144   6.068   1.870   2.352 -1.3984  0.4163 -0.9220
 5195TIP3    H237145   5.999   2.003   2.331  0.2785  1.1654 -1.7992
 5196TIP3   OH237146   4.194   1.507   1.219 -0.5015 -0.7935 -0.5080
 5196TIP3    H137147   4.148   1.591   1.222 -0.1644 -0.6531  1.0000
 5196TIP3    H237148   4.221   1.498   1.127  0.0259  1.0628 -0.5628
 5197TIP3   OH237149   3.739   0.877   1.526  0.4689  0.2875  0.6650
 5197TIP3    H137150   3.683   0.835   1.460  0.4959  0.6286  0.4244
 5197TIP3    H237151   3.795   0.937   1.476  0.2202  0.8401  1.0467
 5198TIP3   OH237152   1.050   4.980   0.836  0.3901  0.1910  0.5010
 5198TIP3    H137153   1.067   5.074   0.844  2.2528 -0.1321  0.5747
 5198TIP3    H237154   1.050   4.947   0.926  0.9724 -0.0771  0.4048
 5199TIP3   OH237155   5.617   0.180   1.406 -0.4308  0.0354 -0.4531
 5199TIP3    H137156   5.618   0.087   1.384 -1.6720 -0.1028  0.0295
 5199TIP3    H237157   5.641   0.183   1.499 -2.5261 -0.0038  0.1218
 5200TIP3   OH237158   5.061   5.635   0.280 -0.4582  0.4196 -0.0713
 5200TIP3    H137159   5.084   5.642   0.373  0.4790  0.2868 -0.2893
 5200TIP3    H237160   5.145   5.638   0.234 -1.0107  2.0382 -1.0222
 5201TIP3   OH237161   0.588   3.385   1.109 -0.1982 -0.3696 -0.1754
 5201TIP3    H137162   0.659   3.366   1.046 -0.0582  0.3844 -0.2461
 5201TIP3    H237163   0.510   3.349   1.067  0.1444 -1.2483 -0.0777
 5202TIP3   OH237164   3.981   1.101   0.492  0.2952 -0.5419  0.1705
 5202TIP3    H137165   3.921   1.057   0.551  1.4802 -0.7041  1.2754
 5202TIP3    H237166   3.975   1.051   0.410  0.6538 -1.9617  0.9991
 5203TIP3   OH237167   5.665   2.360   1.755  0.0150  0.2010  0.3143
 5203TIP3    H137168   5.572   2.379   1.747  0.1790  2.1298  2.3938
 5203TIP3    H237169   5.669   2.277   1.803 -0.6664  0.9706  1.7572
 5204TIP3   OH237170   0.429   5.349   1.035 -0.4583  0.2113 -0.1325
 5204TIP3    H137171   0.458   5.258   1.041  0.4030  0.5805  1.5928
 5204TIP3    H237172   0.490   5.390   0.974 -0.1875 -0.1206 -0.0835
 5205TIP3   OH237173   5.281   1.357   1.894 -0.1094  0.0549  0.0220
 5205TIP3    H137174   5.188   1.351   1.875 -0.2601 -0.8091  1.0480
 5205TIP3    H237175   5.289   1.436   1.948 -0.4849 -0.8406  1.4011
 5206TIP3   OH237176   0.264   3.004   0.016  0.5263 -0.7078  0.0751
 5206TIP3    H137177   0.238   3.047  -0.065  1.4739  0.8247  0.5744
 5206TIP3    H237178   0.307   3.072   0.068 -0.1726 -1.6325  1.9233
 5207TIP3   OH237179   1.032   2.689   1.280  0.5448  0.2172 -0.6113
 5207TIP3    H137180   0.983   2.639   1.345  1.5004  0.2743  0.1746
 5207TIP3    H237181   1.049   2.773   1.323 -0.0143  0.7615 -1.4621
 5208TIP3   OH237182   0.668   1.813   0.421 -0.0536  0.3092 -1.1880
 5208TIP3    H137183   0.734   1.838   0.356  1.5307 -0.8492 -0.0705
 5208TIP3    H237184   0.689   1.867   0.497 -0.2886 -0.1877 -0.7691
 5209TIP3   OH237185   1.009   2.441   0.238 -0.2248  0.2986 -0.6584
 5209TIP3    H137186   1.060   2.440   0.157 -0.0893  1.2655 -0.5837
 5209TIP3    H237187   0.970   2.528   0.241 -0.4347  0.1805  0.1923
 5210TIP3   OH237188   2.806   2.649   1.048  0.1743  0.4842  0.6279
 5210TIP3    H137189   2.768   2.562   1.053  0.5478  0.3097  0.4520
 5210TIP3    H237190   2.890   2.636   1.005  0.5858  0.8268  1.3305
 5211TIP3   OH237191   1.515   4.286   2.178  0.2355 -0.6177  0.7381
 5211TIP3    H137192   1.564   4.210   2.210  0.8816 -0.7920 -0.6519
 5211TIP3    H237193   1.508   4.343   2.254 -1.1105 -2.5007  2.0804
 5212TIP3   OH237194   6.622   0.032   2.299  0.8472 -0.0021 -0.4006
 5212TIP3    H137195   6.706   0.070   2.273  0.0702  0.7622 -1.8417
 5212TIP3    H237196   6.570   0.106   2.329  0.3004 -0.3302 -0.5355
 5213TIP3   OH237197   0.133   1.956   0.427 -0.0647  0.4525 -0.0697
 5213TIP3    H137198   0.207   1.908   0.464 -0.1001  0.9174  0.6105
 5213TIP3    H237199   0.131   2.039   0.476  0.0759  1.2086 -1.3098
 5214TIP3   OH237200   7.081   1.876   7.646 -0.4565 -0.0872 -0.2412
 5214TIP3    H137201   7.068   1.967   7.673 -1.3110 -0.1869 -0.3125
 5214TIP3    H237202   7.124   1.835   7.721 -1.5261 -0.0136  0.4214
 5215TIP3   OH237203   2.298   1.748   0.751 -0.1553  0.1996  0.0133
 5215TIP3    H137204   2.351   1.739   0.830  1.0183  2.0475 -0.5250
 5215TIP3    H237205   2.282   1.842   0.744 -0.7349 -0.0122 -1.6239
 5216TIP3   OH237206   1.266   6.204   1.593 -0.8413  0.3474  0.4454
 5216TIP3    H137207   1.201   6.144   1.630  0.5957 -0.2489  2.0519
 5216TIP3    H237208   1.246   6.289   1.631 -2.2176  0.7014 -1.0101
 5217TIP3   OH237209   4.946   1.069   8.431 -0.4998 -0.1971 -0.4632
 5217TIP3    H137210   4.930   1.078   8.525 -2.3771 -1.1388 -0.6708
 5217TIP3    H237211   5.041   1.064   8.423 -0.3407 -0.4614  1.4280
 5218TIP3   OH237212   3.709   1.848   1.895  0.0987  0.3533 -0.8661
 5218TIP3    H137213   3.759   1.921   1.933  0.8235 -0.8096  0.4465
 5218TIP3    H237214   3.765   1.772   1.907 -1.0810 -0.5955 -1.3374
 5219TIP3   OH237215   6.479   5.137   0.600  0.4944 -0.6497  0.1061
 5219TIP3    H137216   6.505   5.170   0.514  0.9008 -2.2327 -0.3873
 5219TIP3    H237217   6.455   5.216   0.650 -0.1789  0.2362 -1.5851
 5220TIP3   OH237218   6.234   2.206   2.418  0.0957  0.2519  0.9489
 5220TIP3    H137219   6.254   2.116   2.391 -1.5129  0.0436  0.3873
 5220TIP3    H237220   6.169   2.196   2.487  0.5792  0.9571  1.5031
 5221TIP3   OH237221   0.077   2.924   2.589 -0.3102 -0.0269 -0.0555
 5221TIP3    H137222   0.143   2.870   2.632 -2.8396 -1.2705  2.4562
 5221TIP3    H237223   0.086   3.011   2.630 -0.9558 -0.5047  1.1338
 5222TIP3   OH237224   6.725   1.638   0.518  0.1379 -0.0571 -0.7760
 5222TIP3    H137225   6.776   1.584   0.457 -1.6501 -0.5563 -1.8669
 5222TIP3    H237226   6.650   1.583   0.541 -0.9605  1.4221 -0.7769
 5223TIP3   OH237227   2.405   2.680   0.666  0.5596 -0.2994 -0.1340
 5223TIP3    H137228   2.377   2.697   0.577  1.0347 -0.9707 -0.4206
 5223TIP3    H237229   2.442   2.591   0.663  2.3545  0.4184  0.3023
 5224TIP3   OH237230   4.493   0.171   2.117 -0.7929  0.0760  0.4307
 5224TIP3    H137231   4.441   0.163   2.197  1.0872  1.0595  1.7911
 5224TIP3    H237232   4.550   0.094   2.119  0.7011  1.1912  1.1316
 5225TIP3   OH237233   1.938   6.845   1.719  0.3962 -0.3867 -0.4391
 5225TIP3    H137234   2.002   6.808   1.659  0.7099  0.3138 -0.5458
 5225TIP3    H237235   1.895   6.914   1.668  0.2100 -0.2278 -0.0703
 5226TIP3   OH237236   5.625   3.119   1.722  0.0464 -0.0320 -0.0929
 5226TIP3    H137237   5.598   3.111   1.814 -2.1382  0.5435 -0.6542
 5226TIP3    H237238   5.646   3.212   1.711  1.5271 -0.3257  0.1223
 5227TIP3   OH237239   6.517   5.575   1.613  0.3255  0.6171  0.2781
 5227TIP3    H137240   6.511   5.525   1.694 -0.1041 -0.6758 -0.5309
 5227TIP3    H237241   6.607   5.561   1.583  0.1326  0.1054 -0.0757
 5228TIP3   OH237242   6.632   0.807   0.466  0.2433 -0.2342 -0.1150
 5228TIP3    H137243   6.568   0.755   0.515  1.4990 -0.4402  1.3290
 5228TIP3    H237244   6.635   0.765   0.380 -1.3567 -0.3794 -0.1163
 5229TIP3   OH237245   1.632   3.898   0.551 -0.4415  0.0501 -0.1819
 5229TIP3    H137246   1.687   3.844   0.495  0.6541  0.9528  0.0122
 5229TIP3    H237247   1.547   3.898   0.507 -0.5113 -1.9368 -0.1068
 5230TIP3   OH237248   0.670   1.867   1.945 -0.2871 -0.4328 -0.4948
 5230TIP3    H137249   0.591   1.820   1.973 -0.1923 -1.1788 -1.4436
 5230TIP3    H237250   0.658   1.956   1.978  0.6512 -1.6916  3.4432
 5231TIP3   OH237251   5.309   1.596   2.040  0.0260  0.0260  0.4798
 5231TIP3    H137252   5.323   1.646   1.959 -0.1334 -3.0318 -1.5259
 5231TIP3    H237253   5.397   1.583   2.075  0.2114  0.3300  0.1409
 5232TIP3   OH237254   6.989   5.175   2.245  0.1162 -0.2062 -0.1268
 5232TIP3    H137255   7.015   5.251   2.194  2.1197 -1.2257 -0.6894
 5232TIP3    H237256   6.995   5.203   2.336  0.2467  0.4901 -0.3511
 5233TIP3   OH237257   6.154   6.179   7.652 -0.7258 -0.6150  0.7258
 5233TIP3    H137258   6.149   6.084   7.640 -1.4990 -0.6006  0.9297
 5233TIP3    H237259   6.066   6.210   7.634 -0.4860  0.0632  0.7137
 5234TIP3   OH237260   5.536   6.015   1.287  0.1583  0.3731  0.0564
 5234TIP3    H137261   5.566   6.031   1.197  0.6268 -0.5788  0.0337
 5234TIP3    H237262   5.539   5.920   1.296  0.7316  0.5023  1.3010
 5235TIP3   OH237263   6.501   0.359   1.360 -0.1058  0.5438 -0.1536
 5235TIP3    H137264   6.474   0.396   1.444 -0.7443  0.8071 -0.4741
 5235TIP3    H237265   6.425   0.308   1.331 -0.5027  1.8090 -1.3661
 5236TIP3   OH237266   0.689   6.298   1.753  0.2651  0.4090 -0.7831
 5236TIP3    H137267   0.731   6.321   1.835  3.8984  0.2638 -2.5076
 5236TIP3    H237268   0.641   6.218   1.772 -2.1382  2.3934  2.0839
 5237TIP3   OH237269   0.666   0.197   2.010 -0.4734  0.1412  0.5326
 5237TIP3    H137270   0.610   0.155   1.944 -1.7910  0.7376  1.2483
 5237TIP3    H237271   0.629   0.170   2.094  0.9132 -0.2382  1.0302
 5238TIP3   OH237272   1.007   5.252   1.622  0.0559  0.6151  0.1505
 5238TIP3    H137273   1.026   5.181   1.684  1.5759  0.3402 -0.5863
 5238TIP3    H237274   1.040   5.330   1.665 -1.3589  0.8405  0.8405
 5239TIP3   OH237275   6.858   2.162   1.714  0.2668 -0.2056  0.1481
 5239TIP3    H137276   6.834   2.159   1.622 -1.9611  3.2773  0.5155
 5239TIP3    H237277   6.817   2.084   1.752  3.3127 -3.0673 -2.1385
 5240TIP3   OH237278   5.710   0.892   8.227 -0.1469  0.3153  0.1786
 5240TIP3    H137279   5.703   0.803   8.192 -1.0763 -0.5520  2.4603
 5240TIP3    H237280   5.799   0.920   8.204 -0.6218 -0.2970 -2.5621
 5241TIP3   OH237281   0.261   2.463   1.906  0.6822 -1.0104  0.3134
 5241TIP3    H137282   0.165   2.458   1.905  0.7205 -1.6854 -0.6988
 5241TIP3    H237283   0.279   2.556   1.922 -0.1665 -0.3902 -2.1205
 5242TIP3   OH237284   7.084   2.029   7.111  0.1646 -0.7824  0.8738
 5242TIP3    H137285   7.117   2.119   7.116  1.9575 -1.4536  1.2574
 5242TIP3    H237286   7.114   1.998   7.025  1.5944 -1.8052  1.7347
 5243TIP3   OH237287   6.273   1.225   0.887  0.6852 -0.2446  0.5252
 5243TIP3    H137288   6.316   1.287   0.829  1.4718 -0.8728  0.4246
 5243TIP3    H237289   6.344   1.168   0.918 -0.0150 -1.0804  0.6158
 5244TIP3   OH237290   0.797   0.637   1.785  0.1216 -0.0014  0.2571
 5244TIP3    H137291   0.812   0.545   1.807  2.5703  0.3131  0.0471
 5244TIP3    H237292   0.855   0.685   1.843 -1.3204  1.4542  0.5310
 5245TIP3   OH237293   1.263   4.452   1.548 -0.2098 -0.0531  0.1113
 5245TIP3    H137294   1.342   4.479   1.501 -0.4660  1.4275  0.5027
 5245TIP3    H237295   1.265   4.357   1.545  1.6275 -0.0400  0.1529
 5246TIP3   OH237296   0.104   1.938   7.923 -0.1292  0.0485 -0.1905
 5246TIP3    H137297   0.061   1.998   7.984 -0.0156 -0.3892  0.3291
 5246TIP3    H237298   0.037   1.873   7.902 -0.2123  0.2827 -0.6488
 5247TIP3   OH237299   5.786   4.483   1.804  0.2760 -0.0161  0.2952
 5247TIP3    H137300   5.826   4.568   1.787 -0.9934  0.3252 -1.1045
 5247TIP3    H237301   5.858   4.420   1.798  0.8478  0.7347 -0.8417
 5248TIP3   OH237302   7.019   2.311   0.780  0.4927  0.4928  0.9286
 5248TIP3    H137303   6.979   2.225   0.784 -0.7813  1.1070  1.7317
 5248TIP3    H237304   6.946   2.371   0.765  1.4087  1.3990  0.0086
 5249TIP3   OH237305   3.937   0.777   1.745  0.4448  0.2435  0.4522
 5249TIP3    H137306   3.922   0.685   1.766  1.5615  0.6683  3.4643
 5249TIP3    H237307   3.873   0.797   1.677  1.2704 -3.1552 -1.4516
 5250TIP3   OH237308   4.930   3.251   2.156  0.4758  0.5644 -0.2293
 5250TIP3    H137309   4.944   3.187   2.225  0.1316  1.8747  1.0855
 5250TIP3    H237310   4.997   3.318   2.172 -2.1424  2.9032  1.3217
 5251TIP3   OH237311   4.392   4.674   7.159 -0.5735  0.1325 -0.1435
 5251TIP3    H137312   4.351   4.726   7.228 -1.2001 -1.7348  0.9079
 5251TIP3    H237313   4.485   4.678   7.178 -0.6788  0.2743  0.3397
 5252TIP3   OH237314   6.418   0.448   1.622  0.3107  0.3742 -0.0870
 5252TIP3    H137315   6.421   0.365   1.669  0.1296 -1.4407 -3.1902
 5252TIP3    H237316   6.328   0.454   1.590  0.8418  0.7823 -1.5431
 5253TIP3   OH237317   5.602   1.071   0.116 -0.5089  0.5137  0.1816
 5253TIP3    H137318   5.586   1.117   0.198 -1.1874  1.5896 -0.5349
 5253TIP3    H237319   5.659   0.998   0.139 -2.7688 -0.7210  2.0602
 5254TIP3   OH237320   5.689   4.467   6.359 -0.4234 -0.0290  0.3565
 5254TIP3    H137321   5.676   4.511   6.443 -0.1168 -0.8444  0.8402
 5254TIP3    H237322   5.715   4.537   6.299 -0.2000  0.4909  1.0517
 5255TIP3   OH237323   3.287   0.762   1.044 -0.3232  0.1338  0.3709
 5255TIP3    H137324   3.285   0.787   0.952  0.0129  1.7389  0.7793
 5255TIP3    H237325   3.379   0.740   1.061 -0.5566 -1.1108  0.0995
 5256TIP3   OH237326   0.059   1.731   0.059 -0.4133  0.4109  0.1942
 5256TIP3    H137327   0.105   1.659   0.103 -0.1868  1.4300  1.6579
 5256TIP3    H237328   0.093   1.730  -0.030 -0.5968 -1.4550  0.1224
 5257TIP3   OH237329   6.348   2.178   2.132  0.0430 -0.2702 -0.1432
 5257TIP3    H137330   6.297   2.097   2.139  0.6069 -0.6696 -0.7159
 5257TIP3    H237331   6.339   2.219   2.218 -0.8616 -0.5724 -0.0898
 5258TIP3   OH237332   6.289   6.570   1.880 -0.0666 -0.3027  0.1449
 5258TIP3    H137333   6.309   6.533   1.966  0.1341 -1.2531 -0.2897
 5258TIP3    H237334   6.201   6.605   1.888 -0.4678 -1.3540  0.4399
 5259TIP3   OH237335   6.548   2.174   2.431  0.1172  0.6232  0.6210
 5259TIP3    H137336   6.614   2.120   2.475  1.1312  0.4010 -1.1655
 5259TIP3    H237337   6.466   2.125   2.444  0.7557 -0.5133  0.4542
 5260TIP3   OH237338   2.495   0.831   7.702 -0.1020  0.2396  0.3590
 5260TIP3    H137339   2.509   0.749   7.748  0.5685  0.9754  1.4923
 5260TIP3    H237340   2.429   0.811   7.635  0.2998 -1.2779  0.4154
 5261TIP3   OH237341   0.701   2.974   2.022 -0.5300  0.0661  0.1903
 5261TIP3    H137342   0.703   3.068   2.007 -0.2465  0.4513  2.5436
 5261TIP3    H237343   0.793   2.949   2.030 -0.6162 -0.3803 -0.1844
 5262TIP3   OH237344   6.065   1.374   1.279 -0.0426  0.1985  0.1201
 5262TIP3    H137345   6.043   1.311   1.349  0.2921 -2.6762 -2.2625
 5262TIP3    H237346   6.107   1.447   1.325 -0.6504 -1.1955  3.0276
 5263TIP3   OH237347   0.085   3.270   1.715 -0.0195 -0.2879 -0.3543
 5263TIP3    H137348   0.036   3.188   1.718 -1.1985  0.4304  1.4071
 5263TIP3    H237349   0.017   3.338   1.728  1.2596  0.7988  0.8485
 5264TIP3   OH237350   0.119   0.178   0.349 -0.6452  0.1713 -1.2632
 5264TIP3    H137351   0.207   0.200   0.318  0.0422 -1.0788 -0.2501
 5264TIP3    H237352   0.103   0.239   0.421 -1.7955  2.3279 -3.2652
 5265TIP3   OH237353   1.609   2.024   1.932 -0.2579  0.9667  0.7495
 5265TIP3    H137354   1.661   2.099   1.960 -0.6463  1.5883 -0.1713
 5265TIP3    H237355   1.519   2.049   1.951 -0.4432  1.0006 -0.1435
 5266TIP3   OH237356   2.636   3.153   0.522 -0.1036  0.0644  0.2732
 5266TIP3    H137357   2.727   3.164   0.494 -0.4433  0.6718 -0.6014
 5266TIP3    H237358   2.632   3.063   0.556  0.7896 -0.0032  0.2039
 5267TIP3   OH237359   6.920   2.114   2.305 -0.2299  0.2058  0.1269
 5267TIP3    H137360   6.969   2.036   2.277  0.4212  1.1036 -1.2577
 5267TIP3    H237361   6.975   2.187   2.278 -1.8138  1.2093 -0.4075
 5268TIP3   OH237362   6.790   2.691   1.967 -0.7338  0.0691 -0.0291
 5268TIP3    H137363   6.792   2.687   2.062  1.6434 -1.0137 -0.0793
 5268TIP3    H237364   6.763   2.781   1.947  2.2917  1.4734  1.7286
 5269TIP3   OH237365   3.488   7.182   0.930 -0.4768  0.0011  0.0795
 5269TIP3    H137366   3.472   7.276   0.930  0.7020  0.2081 -0.3743
 5269TIP3    H237367   3.493   7.159   1.023 -1.1379  0.3160  0.1957
 5270TIP3   OH237368   0.482   2.310   1.963  0.0523 -0.5860  0.1844
 5270TIP3    H137369   0.403   2.346   1.922 -0.4629  0.2998  1.9294
 5270TIP3    H237370   0.538   2.386   1.977  2.2333 -1.4755 -3.1114
 5271TIP3   OH237371   6.852   0.382   8.319 -0.5751 -0.2538 -0.0794
 5271TIP3    H137372   6.832   0.475   8.328 -2.9343 -0.8266  1.3266
 5271TIP3    H237373   6.766   0.340   8.320  0.5425 -2.5736  1.2226
 5272TIP3   OH237374   2.128   2.079   0.812 -0.1847 -0.0070  0.1999
 5272TIP3    H137375   2.154   2.050   0.724 -0.7013 -0.4442  0.1910
 5272TIP3    H237376   2.057   2.141   0.796  0.5074  0.8025  0.2508
 5273TIP3   OH237377   6.818   0.944   8.045 -0.1887 -0.5774  0.2392
 5273TIP3    H137378   6.783   0.872   7.992 -1.9295  0.5741 -0.2343
 5273TIP3    H237379   6.906   0.915   8.070 -0.7218 -2.7077 -0.2291
 5274TIP3   OH237380   1.225   2.615   1.107 -0.0744  0.1287  0.3342
 5274TIP3    H137381   1.162   2.639   1.175 -0.2866  1.6808 -0.3865
 5274TIP3    H237382   1.287   2.688   1.105  2.1276 -1.6525  1.4530
 5275TIP3   OH237383   7.091   5.748   0.334  0.2738 -0.5054  0.4410
 5275TIP3    H137384   7.069   5.699   0.255 -0.1870 -2.2519  1.6255
 5275TIP3    H237385   7.177   5.716   0.359  0.3109 -0.1370  0.7903
 5276TIP3   OH237386   3.945   3.662   1.620 -0.1179 -0.1565  0.3531
 5276TIP3    H137387   3.943   3.591   1.685  0.8213 -0.3230  0.2078
 5276TIP3    H237388   4.020   3.640   1.564 -0.3280  0.5143 -0.1879
 5277TIP3   OH237389   0.489   6.561   7.620 -0.1856  0.5563 -0.0760
 5277TIP3    H137390   0.570   6.600   7.653 -0.5943  0.5546  0.9625
 5277TIP3    H237391   0.514   6.473   7.594  0.2153  0.6705 -0.0865
 5278TIP3   OH237392   5.052   3.273   1.912 -0.4328  0.2084  0.1315
 5278TIP3    H137393   5.058   3.351   1.857 -1.6861  0.7912  0.7977
 5278TIP3    H237394   4.992   3.298   1.982  0.2531 -0.9067  1.1242
 5279TIP3   OH237395   2.729   3.809   8.218 -0.1795 -0.1937 -0.4592
 5279TIP3    H137396   2.816   3.770   8.207  0.0364  0.2601 -0.3926
 5279TIP3    H237397   2.740   3.899   8.188 -0.4986  0.0100  0.0355
 5280TIP3   OH237398   4.755   1.272   1.199 -0.2521 -0.2187  0.3375
 5280TIP3    H137399   4.847   1.301   1.202 -0.5470  0.6942  0.8981
 5280TIP3    H237400   4.740   1.233   1.285 -0.1445 -1.1533 -0.0665
 5281TIP3   OH237401   1.720   6.045   8.442 -0.6208 -0.1531  0.2491
 5281TIP3    H137402   1.629   6.074   8.442 -1.1171 -1.6955 -0.1405
 5281TIP3    H237403   1.733   6.006   8.528 -1.0438 -2.0871 -0.5305
 5282TIP3   OH237404   1.357   3.520   1.064  0.0228 -0.2089  0.3957
 5282TIP3    H137405   1.415   3.462   1.015  0.4783 -0.4944  1.2652
 5282TIP3    H237406   1.327   3.584   0.999 -1.7910 -2.3407 -0.9781
 5283TIP3   OH237407   3.947   1.223   1.856  0.0464 -0.7418 -0.1564
 5283TIP3    H137408   3.888   1.284   1.902  0.8233 -0.0253 -0.1007
 5283TIP3    H237409   3.905   1.210   1.771  1.1289  1.8874 -1.1599
 5284TIP3   OH237410   3.460   7.261   0.304 -0.3846  0.5097 -0.3512
 5284TIP3    H137411   3.492   7.200   0.239  0.5803 -0.0667  0.6407
 5284TIP3    H237412   3.397   7.316   0.257 -1.0951 -1.0884 -1.2989
 5285TIP3   OH237413   2.884   0.242   1.619  0.2227  0.6917  0.2742
 5285TIP3    H137414   2.934   0.160   1.616  0.7632  1.0654 -1.4261
 5285TIP3    H237415   2.923   0.296   1.550 -1.6427  1.5009 -0.1766
 5286TIP3   OH237416   7.142   2.064   2.017 -0.0746  0.5870  0.8495
 5286TIP3    H137417   7.223   2.095   2.058  1.1226 -2.4260  0.8846
 5286TIP3    H237418   7.101   2.009   2.083  0.2168 -1.6397 -0.7528
 5287TIP3   OH237419   1.330   1.092   7.164 -0.1587 -0.4191  0.7802
 5287TIP3    H137420   1.353   1.182   7.141 -1.4989 -0.4945 -0.9525
 5287TIP3    H237421   1.370   1.039   7.095 -2.4836 -0.8253 -0.2931
 5288TIP3   OH237422   0.694   2.027   1.080  0.5726  0.1573 -0.1197
 5288TIP3    H137423   0.638   1.992   1.149 -0.3410 -0.3945 -1.1102
 5288TIP3    H237424   0.697   1.957   1.014  1.0580  0.8426 -0.8326
 5289TIP3   OH237425   6.502   6.995   7.882  0.2638  0.5821  0.1963
 5289TIP3    H137426   6.533   7.013   7.794 -0.9313 -1.8634 -0.7754
 5289TIP3    H237427   6.426   7.051   7.894  1.1055  1.7528  0.1188
 5290TIP3   OH237428   3.003   1.493   0.712 -0.1240 -0.3424  0.4504
 5290TIP3    H137429   2.948   1.548   0.656  0.0890 -1.5007 -0.9472
 5290TIP3    H237430   2.994   1.530   0.799  0.6752  2.3847 -0.5965
 5291TIP3   OH237431   1.351   6.042   1.902 -0.2081 -0.4959  0.2786
 5291TIP3    H137432   1.328   6.134   1.913  1.8146  0.2912 -1.6516
 5291TIP3    H237433   1.298   5.996   1.967 -2.6468  1.8138 -0.0008
 5292TIP3   OH237434   6.672   2.382   1.681  0.6363  0.3296  0.6156
 5292TIP3    H137435   6.669   2.422   1.767  1.7770  0.9366  0.3903
 5292TIP3    H237436   6.711   2.296   1.696  2.1838  0.9987  0.5226
 5293TIP3   OH237437   1.109   2.239   1.074 -0.1751 -0.0818 -0.1683
 5293TIP3    H137438   1.193   2.193   1.070  0.4972  1.1222 -0.0429
 5293TIP3    H237439   1.115   2.304   1.004 -0.3157  1.1662  0.9772
 5294TIP3   OH237440   6.023   2.737   1.585  0.4489  0.3922 -0.5596
 5294TIP3    H137441   5.934   2.771   1.586  1.3823  2.8789  2.0966
 5294TIP3    H237442   6.061   2.774   1.505 -1.0005 -1.0965 -1.9809
 5295TIP3   OH237443   6.892   5.474   0.818 -0.2636  0.3437 -0.0995
 5295TIP3    H137444   6.825   5.434   0.763  0.4409 -2.4578  0.9828
 5295TIP3    H237445   6.885   5.428   0.902  2.0684  0.9569  0.4843
 5296TIP3   OH237446   7.133   0.554   0.379  0.5858 -0.2436  0.1100
 5296TIP3    H137447   7.057   0.601   0.413 -0.1927  0.0168 -1.9766
 5296TIP3    H237448   7.121   0.464   0.409 -0.8047 -0.3144 -0.6226
 5297TIP3   OH237449   1.571   0.597   0.307  0.4287  0.3071 -0.1583
 5297TIP3    H137450   1.536   0.658   0.371  0.8186 -0.9411  1.2630
 5297TIP3    H237451   1.607   0.525   0.359  2.2676  0.0742 -1.7030
 5298TIP3   OH237452   2.620   5.998   0.296 -0.6654 -0.4257 -0.5165
 5298TIP3    H137453   2.626   5.946   0.376 -1.9614  0.0571 -0.0773
 5298TIP3    H237454   2.657   5.942   0.228 -0.2306 -1.1361  0.2875
 5299TIP3   OH237455   7.106   6.412   0.276  0.4886 -0.2299 -0.4659
 5299TIP3    H137456   7.169   6.340   0.286  0.2391 -0.4021 -0.1205
 5299TIP3    H237457   7.148   6.486   0.319  0.4508 -0.3492 -0.2203
 5300TIP3   OH237458   0.444   1.886   0.240 -0.0248 -0.0313 -0.0042
 5300TIP3    H137459   0.478   1.848   0.321 -2.1617 -2.8289 -0.3202
 5300TIP3    H237460   0.355   1.913   0.263  0.5745  2.5054 -0.5085
 5301TIP3   OH237461   6.877   7.089   8.057 -0.5067  0.1451  0.2414
 5301TIP3    H137462   6.832   7.009   8.085 -2.4243  0.8100 -0.8516
 5301TIP3    H237463   6.958   7.090   8.109 -1.9906 -0.8084  2.6820
 5302TIP3   OH237464   2.001   3.133   0.468  0.4742 -0.2168  0.5244
 5302TIP3    H137465   1.918   3.140   0.421  1.1280 -0.1865 -0.6213
 5302TIP3    H237466   2.022   3.223   0.493 -0.4606 -0.3653  1.9200
 5303TIP3   OH237467   0.764   4.962   1.455 -0.0655 -0.2761 -0.3669
 5303TIP3    H137468   0.852   4.927   1.469 -0.6904 -2.2154 -1.1307
 5303TIP3    H237469   0.707   4.886   1.466 -1.5900  0.8325 -0.5647
 5304TIP3   OH237470   5.326   6.024   0.925  0.5799  0.1378  0.6457
 5304TIP3    H137471   5.240   6.007   0.885 -0.7747  1.0495  3.1088
 5304TIP3    H237472   5.314   6.002   1.017  2.2677  2.7268  1.5014
 5305TIP3   OH237473   0.596   2.198   7.085  0.3427 -0.6604 -0.5301
 5305TIP3    H137474   0.591   2.291   7.107  0.6501 -0.7619 -0.0283
 5305TIP3    H237475   0.610   2.196   6.991  0.1766 -0.2028 -0.5657
 5306TIP3   OH237476   0.620   3.559   1.519 -0.5863  0.1538 -0.9035
 5306TIP3    H137477   0.578   3.474   1.535  0.7105 -0.1586  0.9644
 5306TIP3    H237478   0.670   3.546   1.438  0.2912 -1.1291 -0.1681
 5307TIP3   OH237479   6.620   6.793   1.571  0.4894  0.1294  0.3390
 5307TIP3    H137480   6.605   6.781   1.477  0.2018 -0.1056  0.4153
 5307TIP3    H237481   6.703   6.748   1.587 -0.0541 -0.8654  0.4183
 5308TIP3   OH237482   0.835   5.297   8.141  0.3515 -0.4827  0.2277
 5308TIP3    H137483   0.815   5.211   8.178  0.6208 -0.5708  0.1651
 5308TIP3    H237484   0.930   5.297   8.131  0.2809 -0.4699 -0.4757
 5309TIP3   OH237485   5.245   1.006   8.450 -0.3977 -0.8087 -0.4388
 5309TIP3    H137486   5.313   1.002   8.382 -0.8206  0.8547 -0.9702
 5309TIP3    H237487   5.292   1.035   8.528 -0.0030 -2.2636 -0.1103
 5310TIP3   OH237488   0.320   6.845   1.826  0.1604  0.4221  0.4799
 5310TIP3    H137489   0.324   6.845   1.921 -0.1005  0.3134  0.4933
 5310TIP3    H237490   0.390   6.903   1.798  0.6178 -0.0148  0.7204
 5311TIP3   OH237491   6.674   5.853   0.643 -0.5793 -0.4336 -0.5208
 5311TIP3    H137492   6.606   5.786   0.637  1.7713 -3.0714  1.0376
 5311TIP3    H237493   6.701   5.869   0.553 -0.6043 -2.2341 -0.8612
 5312TIP3   OH237494   6.722   0.160   0.148  0.1756  0.4518  0.3248
 5312TIP3    H137495   6.673   0.165   0.065 -1.0168  1.5974  1.0854
 5312TIP3    H237496   6.797   0.103   0.128  0.1993  1.1455 -1.6935
 5313TIP3   OH237497   2.643   1.851   0.104 -0.2286 -0.1401  0.2299
 5313TIP3    H137498   2.571   1.791   0.124 -0.1300 -0.5773 -0.6839
 5313TIP3    H237499   2.722   1.798   0.117 -0.1432 -0.2282 -0.6161
 5314TIP3   OH237500   4.212   7.057   7.126  0.2221  0.1680  0.1756
 5314TIP3    H137501   4.254   7.136   7.158  0.8936 -0.8964  2.0138
 5314TIP3    H237502   4.126   7.086   7.096  0.6734  1.6672  0.2903
 5315TIP3   OH237503   5.873   1.532   6.459 -0.0866 -0.0986 -0.1156
 5315TIP3    H137504   5.941   1.481   6.415  0.4367  0.0398  0.5245
 5315TIP3    H237505   5.877   1.503   6.550 -1.1062 -0.3226 -0.1384
 5316TIP3   OH237506   5.521   1.121   1.173  1.0033  0.0050  0.3148
 5316TIP3    H137507   5.447   1.100   1.230  0.1118  1.3181 -0.3214
 5316TIP3    H237508   5.509   1.065   1.096 -0.8098  2.0447 -0.9401
 5317TIP3   OH237509   0.549   7.108   1.211 -0.7922  0.1104  0.4240
 5317TIP3    H137510   0.610   7.119   1.138  1.8938  0.9405  2.7120
 5317TIP3    H237511   0.517   7.196   1.230 -3.0485 -0.3789 -1.0280
 5318TIP3   OH237512   0.309   2.116   2.277  0.6290 -0.2760  0.4022
 5318TIP3    H137513   0.347   2.030   2.293  0.3057 -0.4990 -0.0114
 5318TIP3    H237514   0.327   2.166   2.356  1.6389 -0.4315  0.2724
 5319TIP3   OH237515   5.588   1.657   2.368 -0.3852  0.3979  0.8138
 5319TIP3    H137516   5.579   1.595   2.441 -0.4511 -0.6138 -0.0421
 5319TIP3    H237517   5.504   1.702   2.364 -0.2094  0.8326  1.6772
 5320TIP3   OH237518   7.295   7.169   0.012  0.3097 -0.2569 -0.1563
 5320TIP3    H137519   7.255   7.215   0.086 -2.5038 -1.3664 -0.9185
 5320TIP3    H237520   7.347   7.236  -0.032 -1.6836  1.6034  0.2090
 5321TIP3   OH237521   0.380   1.094   0.243  0.0537  0.3478 -0.0043
 5321TIP3    H137522   0.421   1.022   0.291 -0.2249  0.8819  1.0571
 5321TIP3    H237523   0.325   1.051   0.178 -0.0268 -0.3976  0.5500
 5322TIP3   OH237524   1.744   7.251   0.622 -0.6900  0.2754  0.4999
 5322TIP3    H137525   1.736   7.222   0.713 -2.6677 -0.2587  0.1571
 5322TIP3    H237526   1.656   7.279   0.597  0.3096  2.6147 -0.5212
 5323TIP3   OH237527   7.163   3.453   6.768  0.0676 -0.4002 -0.2719
 5323TIP3    H137528   7.139   3.505   6.691 -0.9693  1.4286  1.2353
 5323TIP3    H237529   7.088   3.462   6.827  1.0833 -1.3101  1.1836
 5324TIP3   OH237530   1.216   3.684   2.049  0.1061  0.0700 -0.0023
 5324TIP3    H137531   1.264   3.750   2.099 -0.6935  1.9630 -1.6732
 5324TIP3    H237532   1.134   3.672   2.097  0.6255 -0.3581  0.7812
 5325TIP3   OH237533   1.778   4.198   7.219  0.0438  0.3248  0.4950
 5325TIP3    H137534   1.690   4.221   7.249  1.0198  1.7806  2.3360
 5325TIP3    H237535   1.801   4.267   7.157  0.0777  0.2018  0.3694
 5326TIP3   OH237536   2.621   3.408   8.466 -0.5763 -1.2079  0.5147
 5326TIP3    H137537   2.573   3.461   8.402 -0.0543 -3.3224 -1.6983
 5326TIP3    H237538   2.696   3.462   8.491  0.1698 -1.0411 -1.9926
 5327TIP3   OH237539   1.833   0.746   6.817  0.0601  0.4367 -0.0993
 5327TIP3    H137540   1.913   0.790   6.789 -0.3968  0.3584 -1.5569
 5327TIP3    H237541   1.810   0.688   6.744  0.1828 -1.6034  1.4396
 5328TIP3   OH237542   7.104   5.643   0.057  0.3450 -0.3129 -0.2239
 5328TIP3    H137543   7.069   5.587  -0.012  1.3944 -0.3626 -0.7154
 5328TIP3    H237544   7.078   5.731   0.032 -2.2643 -0.6226  1.1060
 5329TIP3   OH237545   6.266   7.176   2.048 -0.2709 -0.2118 -0.0946
 5329TIP3    H137546   6.296   7.085   2.057 -0.6984 -0.1816  1.8049
 5329TIP3    H237547   6.183   7.179   2.095  0.1242  1.3580  0.5228
 5330TIP3   OH237548   7.101   6.434   0.907  0.3918 -0.3117 -0.4085
 5330TIP3    H137549   7.179   6.387   0.935 -0.5154 -1.4972  0.1434
 5330TIP3    H237550   7.028   6.388   0.948 -0.5734  1.1243 -0.4507
 5331TIP3   OH237551   0.798   3.477   1.311  0.5548  0.0513 -0.3841
 5331TIP3    H137552   0.839   3.553   1.271 -2.4607  1.8347 -0.2171
 5331TIP3    H237553   0.732   3.449   1.247 -0.4645 -0.5309  0.8996
 5332TIP3   OH237554   2.213   0.208   8.344 -0.1606  0.0164 -0.1842
 5332TIP3    H137555   2.144   0.233   8.283 -0.3708  0.8139  0.3801
 5332TIP3    H237556   2.169   0.154   8.410  0.2498 -1.7196 -1.2767
 5333TIP3   OH237557   2.685   6.974   7.946  0.3851  0.1207 -0.7484
 5333TIP3    H137558   2.657   6.932   8.027 -2.0141 -0.8242 -2.0184
 5333TIP3    H237559   2.726   6.904   7.895 -0.9272 -0.0576 -1.6102
 5334TIP3   OH237560   2.164   5.410   0.666  0.2479 -0.4351  0.7824
 5334TIP3    H137561   2.093   5.345   0.661 -0.5139  0.4766 -0.5411
 5334TIP3    H237562   2.208   5.404   0.581  0.3729  0.5594  0.7710
 5335TIP3   OH237563   1.512   3.066   7.677 -0.7044  0.0082 -0.5227
 5335TIP3    H137564   1.564   3.140   7.709 -0.7532 -0.6557  1.1266
 5335TIP3    H237565   1.550   3.046   7.591 -0.9672  2.1910 -1.1725
 5336TIP3   OH237566   3.283   3.217   0.078 -0.2171 -0.0953 -0.1451
 5336TIP3    H137567   3.329   3.143   0.118  0.4302 -0.1547 -0.9952
 5336TIP3    H237568   3.278   3.283   0.147 -0.8933 -0.9649  0.6573
 5337TIP3   OH237569   7.046   3.930   7.175  0.3588 -0.2583 -0.4002
 5337TIP3    H137570   7.106   3.955   7.245  1.1840  0.6061 -1.3982
 5337TIP3    H237571   6.960   3.960   7.204  0.8384  0.8717 -0.1409
 5338TIP3   OH237572   7.068   6.455   0.649 -0.0715 -0.0280  0.1715
 5338TIP3    H137573   7.082   6.457   0.744 -1.5525 -0.4412  0.3962
 5338TIP3    H237574   7.075   6.363   0.626  0.4240  0.0881 -0.1504
 5339TIP3   OH237575   3.097   6.711   1.364 -0.0803  0.6225 -0.1737
 5339TIP3    H137576   3.043   6.753   1.431  3.4169  0.7128  2.7955
 5339TIP3    H237577   3.169   6.772   1.350  1.3845 -1.2420 -0.9984
 5340TIP3   OH237578   2.223   6.305   0.592  0.3799 -0.2516  0.5621
 5340TIP3    H137579   2.303   6.297   0.645  1.1294  0.4576 -0.4359
 5340TIP3    H237580   2.242   6.256   0.513 -0.1217  0.0349  0.2594
 5341TIP3   OH237581   1.987   3.409   1.810  0.0057 -0.3252  0.1099
 5341TIP3    H137582   1.906   3.459   1.802  1.1756  1.5996 -0.1073
 5341TIP3    H237583   2.004   3.375   1.723 -0.1415 -0.0316 -0.0327
 5342TIP3   OH237584   7.027   5.906   1.011  0.3333  0.6085  0.8278
 5342TIP3    H137585   7.075   5.838   1.058 -1.4136 -0.6653  0.8021
 5342TIP3    H237586   6.965   5.859   0.956 -0.5028  2.2046  0.3501
 5343TIP3   OH237587   5.688   4.430   1.341 -0.3717 -0.4872  0.3147
 5343TIP3    H137588   5.750   4.358   1.349  0.6313  0.1422 -1.4420
 5343TIP3    H237589   5.742   4.506   1.318 -1.7394  0.1126 -1.0698
 5344TIP3   OH237590   4.131   4.383   1.741 -0.0599 -0.6025 -0.4901
 5344TIP3    H137591   4.127   4.306   1.798 -1.5790 -0.3840 -0.3009
 5344TIP3    H237592   4.206   4.433   1.774 -0.4264 -0.8925  0.7898
 5345TIP3   OH237593   3.129   7.254   8.297  0.4095  0.1945  0.1305
 5345TIP3    H137594   3.099   7.251   8.387  1.4097 -0.4597  0.4448
 5345TIP3    H237595   3.112   7.166   8.262 -0.3286  0.5547 -0.4341
 5346TIP3   OH237596   6.893   3.968   2.069  0.0397 -0.0176 -0.1229
 5346TIP3    H137597   6.988   3.957   2.059 -0.1103 -0.6932 -0.8325
 5346TIP3    H237598   6.877   3.954   2.162  0.8869  2.0538  0.3651
 5347TIP3   OH237599   0.082   4.249   1.915  0.6396 -0.5748 -0.1325
 5347TIP3    H137600   0.052   4.338   1.938  0.1838 -0.9828  0.8788
 5347TIP3    H237601   0.055   4.195   1.989  2.0506 -1.3345 -0.1621
 5348TIP3   OH237602   0.926   6.255   0.337 -0.4911  0.1624 -0.4793
 5348TIP3    H137603   0.870   6.328   0.362 -1.3539  0.5066 -3.2327
 5348TIP3    H237604   0.878   6.211   0.267  1.3065 -1.3584 -0.7883
 5349TIP3   OH237605   0.322   5.223   0.646  0.4044  0.1723 -0.0550
 5349TIP3    H137606   0.290   5.265   0.566  2.8567 -0.6655 -1.5112
 5349TIP3    H237607   0.253   5.240   0.711 -0.9048  2.1953 -1.9060
 5350TIP3   OH237608   1.737   2.509   7.424  0.6299  0.4745 -0.4257
 5350TIP3    H137609   1.767   2.433   7.374  2.1780  1.6251 -1.2569
 5350TIP3    H237610   1.724   2.578   7.359 -0.7930  0.9485  0.3188
 5351TIP3   OH237611   1.753   5.587   2.274 -0.1225  0.0160 -0.0399
 5351TIP3    H137612   1.841   5.612   2.302 -0.5048  2.1609 -0.6836
 5351TIP3    H237613   1.760   5.573   2.179 -0.4565  0.2004 -0.0967
 5352TIP3   OH237614   1.858   6.936   8.472  0.4937 -0.3697  0.1210
 5352TIP3    H137615   1.769   6.967   8.491  0.1839  0.0230 -1.7792
 5352TIP3    H237616   1.899   7.009   8.426  1.5306 -0.8626  0.2577
 5353TIP3   OH237617   4.070   0.579   8.371  0.1770  0.7237 -0.5737
 5353TIP3    H137618   4.111   0.634   8.438 -1.7247  0.4931  0.8106
 5353TIP3    H237619   3.977   0.600   8.377 -0.4301 -1.8033 -0.8330
 5354TIP3   OH237620   1.479   2.066   7.895  0.3865  0.0059 -0.2831
 5354TIP3    H137621   1.420   2.080   7.821  0.2256  1.3917  0.0918
 5354TIP3    H237622   1.500   1.973   7.892 -3.0785 -0.8851  0.4841
 5355TIP3   OH237623   1.462   5.660   2.344 -0.0909 -0.0705 -0.3141
 5355TIP3    H137624   1.442   5.748   2.374 -1.6810 -1.5086  3.0626
 5355TIP3    H237625   1.558   5.657   2.341  0.0098  1.3344  0.9128
 5356TIP3   OH237626   1.409   3.861   1.755 -0.2612  0.6566 -0.0004
 5356TIP3    H137627   1.314   3.872   1.766 -0.4157  0.5706 -1.1173
 5356TIP3    H237628   1.432   3.925   1.688  0.3660  0.2604 -0.1643
 5357TIP3   OH237629   5.943   5.301   7.733  0.0005  0.6416  0.7396
 5357TIP3    H137630   5.986   5.311   7.818 -0.9820  1.8770  1.1142
 5357TIP3    H237631   5.857   5.343   7.744 -0.6158 -0.2349 -0.5083
 5358TIP3   OH237632   3.263   0.996   8.403 -0.1342  0.2046  0.1855
 5358TIP3    H137633   3.262   0.974   8.309  0.7035  2.4059 -0.3695
 5358TIP3    H237634   3.355   0.986   8.428 -0.3219 -0.1576  0.7269
 5359TIP3   OH237635   2.711   4.152   1.328  0.1019 -0.1724 -0.4350
 5359TIP3    H137636   2.776   4.169   1.397 -1.0859 -0.4311  0.7595
 5359TIP3    H237637   2.749   4.080   1.278  0.1689 -1.2201  1.0633
 5360TIP3   OH237638   1.398   5.850   7.599 -0.3554 -0.2554  0.4572
 5360TIP3    H137639   1.376   5.849   7.506 -1.8435  0.0686  0.8015
 5360TIP3    H237640   1.442   5.766   7.614  1.1771  0.2702 -0.8206
 5361TIP3   OH237641   1.626   6.601   8.042 -0.0165 -0.1886  0.3566
 5361TIP3    H137642   1.699   6.563   8.091 -0.0357  0.9203  1.2770
 5361TIP3    H237643   1.668   6.662   7.981  0.0060 -1.5476 -1.0174
 5362TIP3   OH237644   1.179   6.897   1.942 -0.3316  0.5718  0.4009
 5362TIP3    H137645   1.113   6.853   1.996  0.9921 -0.3936  1.2794
 5362TIP3    H237646   1.208   6.829   1.880  0.8844  0.5246  1.0017
 5363TIP3   OH237647   6.698   6.159   0.856 -0.4114  0.0822 -0.1519
 5363TIP3    H137648   6.712   6.199   0.942 -1.6064  0.7519 -0.2599
 5363TIP3    H237649   6.706   6.233   0.795  1.9874 -0.6438 -0.7681
 5364TIP3   OH237650   0.268   5.984   1.787 -0.4065 -0.0574  0.0957
 5364TIP3    H137651   0.214   5.978   1.708 -0.7741 -2.4906  0.5002
 5364TIP3    H237652   0.260   5.898   1.828  1.3409  0.5499  1.7694
 5365TIP3   OH237653   3.264   1.417   0.801  0.2367  0.0274  0.3272
 5365TIP3    H137654   3.238   1.457   0.884  0.2025 -0.7345  0.6908
 5365TIP3    H237655   3.190   1.431   0.743  0.1883  0.4136  0.4839
 5366TIP3   OH237656   2.787   4.413   0.052 -0.5485  0.4524 -0.1156
 5366TIP3    H137657   2.819   4.422   0.142  0.1320  0.1215 -0.3220
 5366TIP3    H237658   2.791   4.501   0.016  1.9992  0.1082 -0.7617
 5367TIP3   OH237659   3.360   5.820   6.181 -0.0527 -0.2535  0.6201
 5367TIP3    H137660   3.423   5.885   6.214 -0.1160 -0.1061  0.4530
 5367TIP3    H237661   3.277   5.868   6.176 -0.0137 -0.2343  0.1107
 5368TIP3   OH237662   1.543   4.731   1.953  0.8518  0.6235 -0.2066
 5368TIP3    H137663   1.474   4.755   2.014  1.1403  0.6066  0.1345
 5368TIP3    H237664   1.624   4.743   2.003  1.0960  0.6831 -0.6127
 5369TIP3   OH237665   1.307   6.536   0.769  0.1069  0.1352  0.2304
 5369TIP3    H137666   1.361   6.612   0.748  1.6744 -1.3390 -1.2608
 5369TIP3    H237667   1.370   6.471   0.802 -1.1056 -0.7365  0.8341
 5370TIP3   OH237668   1.380   7.030   1.043  0.0088 -0.5963  0.1727
 5370TIP3    H137669   1.313   6.978   1.000 -0.2709 -0.6283  0.6468
 5370TIP3    H237670   1.341   7.117   1.052 -0.4065 -0.9068  1.4685
 5371TIP3   OH237671   2.322   4.302   1.098 -0.1707 -0.3232  0.0330
 5371TIP3    H137672   2.251   4.275   1.155 -1.0196  3.4832  0.9037
 5371TIP3    H237673   2.279   4.339   1.021  0.9444 -2.6438 -1.7562
 5372TIP3   OH237674   1.876   5.656   0.800 -0.1391  0.4973  0.1811
 5372TIP3    H137675   1.806   5.620   0.855 -0.8948  1.4160 -0.1764
 5372TIP3    H237676   1.956   5.625   0.842 -0.7658 -2.2961 -0.5590
 5373TIP3   OH237677   1.238   4.599   1.923  0.1312 -0.2873  0.1341
 5373TIP3    H137678   1.224   4.683   1.965 -1.2774 -0.5641  0.2556
 5373TIP3    H237679   1.331   4.580   1.935  0.0361  0.3024  1.8619
 5374TIP3   OH237680   1.957   5.081   0.402 -0.6848  0.5605 -0.6197
 5374TIP3    H137681   2.021   5.152   0.404  1.3818 -1.2712  0.6473
 5374TIP3    H237682   2.009   5.001   0.415 -3.4817 -0.8439  2.7710
 5375TIP3   OH237683   0.767   3.808   7.580  0.4986 -0.3479 -0.8458
 5375TIP3    H137684   0.707   3.734   7.567 -1.6369  1.2041 -0.0713
 5375TIP3    H237685   0.806   3.822   7.495 -0.0448 -1.5564 -1.3146
 5376TIP3   OH237686   1.046   4.652   0.759  0.1179  0.3160 -0.0046
 5376TIP3    H137687   0.966   4.697   0.732  0.2468  0.4779 -0.1224
 5376TIP3    H237688   1.115   4.697   0.711  0.5258  1.5727  1.6857
 5377TIP3   OH237689   7.288   6.587   7.329  0.3029  0.0756 -0.4608
 5377TIP3    H137690   7.198   6.607   7.304  0.4131 -0.4960 -1.3261
 5377TIP3    H237691   7.341   6.653   7.285  0.2106  1.2590  1.1462
 5378TIP3   OH237692   1.530   1.840   7.566 -0.3766  0.2743 -0.4495
 5378TIP3    H137693   1.618   1.819   7.534 -1.0869 -1.1681 -1.5304
 5378TIP3    H237694   1.482   1.868   7.488 -1.0777  0.4194  0.0240
 5379TIP3   OH237695   1.094   2.100   7.027 -0.6335 -0.1816 -0.7673
 5379TIP3    H137696   1.057   2.179   7.065 -0.3489 -0.7562  0.7350
 5379TIP3    H237697   1.189   2.112   7.035 -0.5947 -0.8530 -0.1355
 5380TIP3   OH237698   1.014   4.439   0.515 -0.2291  0.0869  0.3313
 5380TIP3    H137699   1.107   4.456   0.499 -0.6308  2.6892  0.4089
 5380TIP3    H237700   1.009   4.420   0.609  0.2913 -0.4839  0.2409
 5381TIP3   OH237701   2.697   5.368   6.501 -0.1894  0.3240 -0.2520
 5381TIP3    H137702   2.735   5.443   6.454  0.4897  0.7203  0.9048
 5381TIP3    H237703   2.603   5.388   6.505  0.1533  1.7381  1.1301
 5382TIP3   OH237704   0.387   0.449   6.960 -0.0701 -0.3750 -0.2213
 5382TIP3    H137705   0.330   0.518   6.927  0.3186 -0.4993 -1.2055
 5382TIP3    H237706   0.475   0.487   6.958  0.2277 -1.0857 -1.3621
 5383TIP3   OH237707   3.731   6.259   8.425 -0.0061 -0.0781  0.0085
 5383TIP3    H137708   3.744   6.206   8.347  0.2526 -1.2561  0.8296
 5383TIP3    H237709   3.708   6.195   8.493 -0.1629  0.9210  0.8991
 5384TIP3   OH237710   0.642   5.958   8.481  0.0861  0.4154 -0.1797
 5384TIP3    H137711   0.553   5.963   8.515  0.3922  1.4004  0.4713
 5384TIP3    H237712   0.691   6.024   8.530  1.0437  0.2838 -0.9405
 5385TIP3   OH237713   0.107   4.768   8.002  0.2964  0.3595  0.1142
 5385TIP3    H137714   0.179   4.830   7.986  1.4310 -0.9187  0.1451
 5385TIP3    H237715   0.029   4.813   7.969  0.9372  2.1809  0.9787
 5386TIP3   OH237716   1.287   3.125   1.729 -0.5676  0.4733 -0.5536
 5386TIP3    H137717   1.243   3.141   1.646 -1.4307 -1.7606 -0.5540
 5386TIP3    H237718   1.245   3.046   1.764 -0.1539  1.3065  1.9491
 5387TIP3   OH237719   0.951   0.180   7.473 -0.4478 -0.2943  0.2205
 5387TIP3    H137720   0.898   0.237   7.418  1.3503  1.6236  0.4214
 5387TIP3    H237721   0.888   0.130   7.524 -2.0793  2.6609  1.1966
 5388TIP3   OH237722   6.820   2.922   1.389  0.1389 -0.1359  0.1108
 5388TIP3    H137723   6.907   2.952   1.412 -0.3173  0.7701  0.6586
 5388TIP3    H237724   6.809   2.840   1.437  0.6937 -0.2561  0.0292
 5389TIP3   OH237725   3.127   6.411   7.359  0.1134  0.2248 -0.2841
 5389TIP3    H137726   3.165   6.471   7.424 -0.7951  0.0188  0.4414
 5389TIP3    H237727   3.172   6.434   7.277  0.7077  1.0167  0.2493
 5390TIP3   OH237728   1.464   4.682   0.562  0.0722  0.0783  0.1199
 5390TIP3    H137729   1.445   4.760   0.614 -1.6419  0.8716 -1.6102
 5390TIP3    H237730   1.494   4.617   0.625 -3.2836  0.5358  2.2767
 5391TIP3   OH237731   2.636   4.109   0.235  0.1288  0.1342  0.0792
 5391TIP3    H137732   2.545   4.139   0.239  0.4764  1.0699  1.5157
 5391TIP3    H237733   2.684   4.173   0.287  1.5698 -0.5145 -0.4421
 5392TIP3   OH237734   1.876   5.025   7.678 -0.0418 -0.6670 -0.0744
 5392TIP3    H137735   1.854   5.027   7.771 -1.0075  1.9889 -0.3177
 5392TIP3    H237736   1.821   4.956   7.642 -0.9866 -0.5086  1.0165
 5393TIP3   OH237737   1.421   6.692   1.046 -0.1868 -0.3377 -0.4185
 5393TIP3    H137738   1.391   6.662   1.132 -0.5325  0.5970 -0.2108
 5393TIP3    H237739   1.473   6.619   1.013 -0.8281 -1.0817  0.1824
 5394TIP3   OH237740   0.214   1.258   8.032  0.1188 -0.2967 -0.4277
 5394TIP3    H137741   0.292   1.232   7.982  1.6128  0.8080  1.2570
 5394TIP3    H237742   0.208   1.193   8.102  0.6732  0.7448  0.5880
 5395TIP3   OH237743   0.298   5.473   0.065  0.1046  0.4609 -0.1872
 5395TIP3    H137744   0.249   5.396   0.036  1.4833  0.1795 -1.8318
 5395TIP3    H237745   0.369   5.438   0.118  0.5670  0.6077 -0.7017
 5396TIP3   OH237746   2.460   5.219   1.609 -0.1885 -0.8632 -0.0088
 5396TIP3    H137747   2.371   5.192   1.587 -0.7631  0.0247  1.1939
 5396TIP3    H237748   2.479   5.175   1.691 -0.4323  0.8646  0.9823
 5397TIP3   OH237749   0.292   5.526   1.185 -0.4298 -0.5850 -0.0268
 5397TIP3    H137750   0.327   5.441   1.156  1.5382 -0.2396  1.2196
 5397TIP3    H237751   0.355   5.590   1.153 -0.4938  0.1615  1.3104
 5398TIP3   OH237752   0.289   5.605   1.810  0.1208 -0.1872  0.3415
 5398TIP3    H137753   0.211   5.657   1.829  0.3412  0.4225 -0.4119
 5398TIP3    H237754   0.361   5.655   1.848  0.3994  0.3442 -0.8674
 5399TIP3   OH237755   5.651   2.756   1.716  0.0487 -0.0215  0.3502
 5399TIP3    H137756   5.695   2.723   1.638 -0.2647 -1.4065  0.7448
 5399TIP3    H237757   5.565   2.714   1.715 -0.0584  0.1583  1.2914
 5400TIP3   OH237758   1.197   4.455   2.523  0.5588  0.0896  0.2069
 5400TIP3    H137759   1.129   4.401   2.483  1.0273 -0.1547 -0.2691
 5400TIP3    H237760   1.150   4.514   2.582 -0.0475 -0.1776 -0.0108
 5401TIP3   OH237761   0.143   2.074   1.312 -0.2555  0.0042  0.3649
 5401TIP3    H137762   0.108   2.051   1.227 -0.1045  0.5596  0.1474
 5401TIP3    H237763   0.071   2.118   1.357 -0.3584 -0.3550  0.5534
 5402TIP3   OH237764   2.545   5.797   1.899 -0.3666 -0.2850 -0.0927
 5402TIP3    H137765   2.545   5.701   1.899  1.0811 -0.3064  1.4955
 5402TIP3    H237766   2.607   5.821   1.830 -1.6017 -0.4524 -1.2931
 5403TIP3   OH237767   2.286   0.743   8.016 -0.0181  0.0086 -0.9807
 5403TIP3    H137768   2.315   0.824   7.974 -2.3459  0.6163 -1.4523
 5403TIP3    H237769   2.277   0.680   7.944  0.7923 -0.4044 -0.7375
 5404TIP3   OH237770   1.421   5.499   2.582  0.5791  0.0762  0.0563
 5404TIP3    H137771   1.453   5.551   2.508 -1.1821  0.3238 -0.5366
 5404TIP3    H237772   1.501   5.469   2.626  1.6332  0.6209 -1.4517
 5405TIP3   OH237773   0.918   1.755   7.255  0.5794 -0.1290 -0.0667
 5405TIP3    H137774   0.955   1.753   7.344 -0.0263  0.4516  0.1954
 5405TIP3    H237775   0.988   1.719   7.200  0.6569 -1.2762  0.7530
 5406TIP3   OH237776   1.077   5.317   0.661 -0.0876  0.2857 -0.4179
 5406TIP3    H137777   1.121   5.383   0.715  0.3799 -0.9022  0.6825
 5406TIP3    H237778   1.128   5.314   0.580  0.8972  0.0943  0.1996
 5407TIP3   OH237779   1.018   1.644   0.903 -0.1121 -0.2351  0.1319
 5407TIP3    H137780   1.094   1.612   0.953 -0.8917  0.4658  1.8124
 5407TIP3    H237781   1.053   1.718   0.853  0.2811  0.2456  1.0876
 5408TIP3   OH237782   0.784   4.580   8.493 -0.0742 -0.6655 -0.0003
 5408TIP3    H137783   0.720   4.649   8.481 -0.4636 -0.7901  1.4035
 5408TIP3    H237784   0.868   4.626   8.501 -0.3283 -0.3530  0.8981
 5409TIP3   OH237785   1.638   2.380   1.004  0.1366 -0.5015 -0.3667
 5409TIP3    H137786   1.562   2.410   1.053  1.5647  0.8259  1.0774
 5409TIP3    H237787   1.622   2.411   0.915 -0.9567 -0.1656 -0.0628
 5410TIP3   OH237788   5.430   5.277   1.600  0.1356  0.4400 -0.7323
 5410TIP3    H137789   5.382   5.359   1.606 -1.4763 -0.5014 -0.3827
 5410TIP3    H237790   5.378   5.215   1.652  1.7338 -0.6056 -0.3441
 5411TIP3   OH237791   1.511   5.393   0.105  0.1511 -0.0879  0.3245
 5411TIP3    H137792   1.511   5.393   0.201  0.6603 -0.0944  0.3280
 5411TIP3    H237793   1.578   5.458   0.081  1.7424 -1.8179 -0.0062
 5412TIP3   OH237794   7.281   2.431   1.245 -0.3394  0.4850  0.5909
 5412TIP3    H137795   7.297   2.476   1.328  0.3865  0.3534  0.5268
 5412TIP3    H237796   7.194   2.460   1.218 -0.5264  0.6249  1.3345
 5413TIP3   OH237797   4.105   5.584   8.395 -0.2227  0.0018  0.4073
 5413TIP3    H137798   4.176   5.628   8.347  0.0477 -0.9710 -0.1053
 5413TIP3    H237799   4.031   5.645   8.388  0.1806  0.4437 -0.1724
 5414TIP3   OH237800   2.856   7.248   1.846  0.0839  0.5087 -0.2465
 5414TIP3    H137801   2.778   7.281   1.892  1.0620  2.4868  0.0408
 5414TIP3    H237802   2.823   7.222   1.760 -1.2735 -0.6853  0.6171
 5415TIP3   OH237803   2.044   4.204   1.633  0.1688  0.1465 -0.1123
 5415TIP3    H137804   2.087   4.119   1.635 -3.0558 -1.5769  0.1551
 5415TIP3    H237805   2.010   4.216   1.722  0.3288  1.5795 -0.2287
 5416TIP3   OH237806   5.384   4.025   1.208 -0.0262 -0.2368  0.4091
 5416TIP3    H137807   5.448   4.067   1.151  1.6984 -0.7747  1.9100
 5416TIP3    H237808   5.341   4.097   1.254  1.6256  0.0250  1.6027
 5417TIP3   OH237809   2.173   5.190   1.548 -0.1199 -0.5885 -0.0624
 5417TIP3    H137810   2.162   5.144   1.465 -1.0232  0.4125 -0.5070
 5417TIP3    H237811   2.148   5.127   1.615  0.2638 -1.2786 -0.5640
 5418TIP3   OH237812   6.580   5.139   1.064  0.5693  0.7093  0.3787
 5418TIP3    H137813   6.575   5.120   1.158  0.5999 -1.3718 -0.0020
 5418TIP3    H237814   6.536   5.064   1.023  0.8665  1.4264 -1.2788
 5419TIP3   OH237815   6.222   0.919   0.956  0.3497  0.2172 -0.5642
 5419TIP3    H137816   6.316   0.939   0.952  0.3897  0.1006 -0.1921
 5419TIP3    H237817   6.188   0.980   1.021  1.0623 -3.1521  3.1769
 5420TIP3   OH237818   3.038   4.431   1.844  0.1985 -0.3850  0.1450
 5420TIP3    H137819   3.120   4.411   1.799 -0.0044  1.5081 -1.0839
 5420TIP3    H237820   3.050   4.394   1.932  2.2021 -0.4966 -0.1472
 5421TIP3   OH237821   0.552   1.558   7.077  0.0628  0.2748 -0.3200
 5421TIP3    H137822   0.484   1.599   7.022  0.6395 -1.0488 -2.0571
 5421TIP3    H237823   0.503   1.511   7.145 -0.7300  0.2259 -0.9197
 5422TIP3   OH237824   0.645   4.910   7.267  0.6633  0.4249 -0.6687
 5422TIP3    H137825   0.660   4.999   7.235 -0.6784  1.5043  1.6119
 5422TIP3    H237826   0.656   4.916   7.362 -3.4681 -0.9568 -0.0149
 5423TIP3   OH237827   0.002   0.670   0.231  0.4123 -0.0466 -0.4623
 5423TIP3    H137828   0.007   0.589   0.180 -0.8069 -0.1809 -0.3690
 5423TIP3    H237829  -0.066   0.654   0.296  0.7268  0.7692  0.0878
 5424TIP3   OH237830   1.302   4.070   2.109 -0.7299  0.0498 -0.1789
 5424TIP3    H137831   1.325   4.161   2.090  0.8553 -0.3839 -0.4214
 5424TIP3    H237832   1.206   4.068   2.106 -0.7158  1.3276 -1.9135
 5425TIP3   OH237833   0.486   6.921   0.114  0.6523  0.4219 -0.2364
 5425TIP3    H137834   0.423   6.947   0.181  0.6664 -0.5041  0.1404
 5425TIP3    H237835   0.571   6.924   0.159  0.6673 -0.1393 -0.2251
 5426TIP3   OH237836   3.672   5.133   0.449 -0.2253 -0.0627 -0.2180
 5426TIP3    H137837   3.764   5.142   0.473 -0.5547 -0.7648  1.3682
 5426TIP3    H237838   3.672   5.068   0.379  0.2246 -2.3587  1.8405
 5427TIP3   OH237839   2.853   4.185   0.508 -0.1185 -0.7183 -0.3376
 5427TIP3    H137840   2.783   4.247   0.486  0.0594  0.0664  1.2378
 5427TIP3    H237841   2.920   4.239   0.551  0.4811 -1.8285  0.1468
 5428TIP3   OH237842   0.245   5.874   8.263 -0.1087 -0.0875  0.5517
 5428TIP3    H137843   0.272   5.867   8.354  0.0268 -1.1178  0.4403
 5428TIP3    H237844   0.216   5.786   8.240  0.5713 -0.0193 -0.6186
 5429TIP3   OH237845   0.828   5.371   1.439  0.3057  0.0900 -0.0135
 5429TIP3    H137846   0.842   5.466   1.439  1.0014 -0.0057 -0.3091
 5429TIP3    H237847   0.908   5.336   1.478  0.9408 -0.4875 -1.7962
 5430TIP3   OH237848   6.133   6.346   0.574 -0.2734 -0.2189 -0.1982
 5430TIP3    H137849   6.071   6.417   0.557  0.6873  0.5147 -0.6829
 5430TIP3    H237850   6.090   6.268   0.539 -1.0003  0.2535 -0.3693
 5431TIP3   OH237851   0.801   0.732   1.527  0.2859  0.0681 -0.1671
 5431TIP3    H137852   0.821   0.735   1.621  1.5615 -2.9233 -0.3040
 5431TIP3    H237853   0.884   0.754   1.485  0.8179 -2.6819 -0.6192
 5432TIP3   OH237854   1.799   5.064   0.792 -0.0385 -0.8101 -0.2316
 5432TIP3    H137855   1.827   5.116   0.868 -0.7375  1.6701 -1.6370
 5432TIP3    H237856   1.707   5.043   0.810 -0.1691 -0.3290 -0.3399
 5433TIP3   OH237857   0.548   6.245   6.925  0.1342 -0.0185 -0.8326
 5433TIP3    H137858   0.540   6.325   6.976  0.9675 -0.5503  0.1505
 5433TIP3    H237859   0.641   6.241   6.900  0.0926 -0.6520 -0.9125
 5434TIP3   OH237860   1.765   4.596   0.569 -0.4715 -0.4720 -0.3320
 5434TIP3    H137861   1.780   4.690   0.565 -0.2561 -0.5692 -2.2226
 5434TIP3    H237862   1.763   4.576   0.663 -0.3312  1.3715  0.0831
 5435TIP3   OH237863   3.411   4.578   0.204 -0.1907  0.0766 -0.1660
 5435TIP3    H137864   3.388   4.656   0.255 -2.1868 -0.1356 -0.6856
 5435TIP3    H237865   3.329   4.551   0.164  0.9005 -1.1090 -1.6526
 5436TIP3   OH237866   2.248   6.993   8.377  0.1736 -0.1542  0.1541
 5436TIP3    H137867   2.259   6.917   8.320 -0.9156 -0.2325  0.0312
 5436TIP3    H237868   2.302   7.061   8.336 -0.2696 -0.3329 -0.7516
 5437TIP3   OH237869   1.998   6.579   0.313 -0.3742 -0.2379 -0.0856
 5437TIP3    H137870   1.918   6.603   0.267  1.4420  1.8148 -2.3181
 5437TIP3    H237871   2.036   6.509   0.261 -0.8898 -1.4893  1.1937
 5438TIP3   OH237872   3.366   3.839   1.427 -0.1855 -0.2737 -0.5015
 5438TIP3    H137873   3.321   3.864   1.346  1.1761 -0.4376 -1.3124
 5438TIP3    H237874   3.458   3.858   1.411  0.2032 -1.0620  0.7161
 5439TIP3   OH237875   2.588   5.003   7.641  0.4151 -0.3800  0.0181
 5439TIP3    H137876   2.662   5.063   7.642  0.7664 -0.8113 -0.2162
 5439TIP3    H237877   2.623   4.922   7.605 -0.5352 -0.1166 -1.5331
 5440TIP3   OH237878   0.629   5.982   0.560  0.2806 -0.2962  0.1710
 5440TIP3    H137879   0.623   5.903   0.615  0.2012 -0.7466 -0.4844
 5440TIP3    H237880   0.610   6.054   0.620 -1.3367 -0.9022  0.4198
 5441TIP3   OH237881   2.334   0.336   1.347  0.2094  0.0454  0.5494
 5441TIP3    H137882   2.292   0.419   1.373  0.8355  0.2583  0.8796
 5441TIP3    H237883   2.283   0.269   1.393 -2.1294  0.0011 -1.9502
 5442TIP3   OH237884   7.043   5.804   2.091  0.0460  0.2046  0.3124
 5442TIP3    H137885   6.974   5.832   2.031  2.3046  1.8625 -1.6408
 5442TIP3    H237886   7.055   5.879   2.150  0.3139  0.0056  0.5126
 5443TIP3   OH237887   1.005   4.992   6.781  0.6164 -0.2741  0.0607
 5443TIP3    H137888   0.913   5.012   6.762  0.6768 -0.5342 -0.5404
 5443TIP3    H237889   1.001   4.920   6.844  0.4071  0.2549  0.6559
 5444TIP3   OH237890   0.886   3.880   1.880  0.4028 -0.0283  0.4632
 5444TIP3    H137891   0.910   3.788   1.869  1.2202  0.1650  0.6248
 5444TIP3    H237892   0.823   3.897   1.810  1.2705 -0.3440 -0.4050
 5445TIP3   OH237893   3.207   1.749   7.765  0.1704  0.1475 -0.0803
 5445TIP3    H137894   3.240   1.672   7.812  1.2210  0.0856 -0.8896
 5445TIP3    H237895   3.222   1.729   7.672  0.0958  1.1615 -0.3200
 5446TIP3   OH237896   0.690   5.759   8.093 -0.2933  0.4356  0.3807
 5446TIP3    H137897   0.606   5.802   8.077 -0.6704  1.1789  3.9089
 5446TIP3    H237898   0.666   5.675   8.134  0.6399  0.0020  0.0511
 5447TIP3   OH237899   0.319   0.505   0.915  0.2534 -0.0691 -0.9424
 5447TIP3    H137900   0.352   0.444   0.980  0.3425  1.1873  0.2309
 5447TIP3    H237901   0.340   0.466   0.830 -1.3142 -2.5312 -0.2449
 5448TIP3   OH237902   2.077   1.138   6.899  0.6098 -0.7138  0.5028
 5448TIP3    H137903   1.986   1.145   6.931  0.5056 -0.6638  0.1929
 5448TIP3    H237904   2.100   1.046   6.914  0.7858 -0.5416  1.3309
 5449TIP3   OH237905   1.719   4.765   2.203  0.2892  0.1965 -0.0067
 5449TIP3    H137906   1.764   4.680   2.201 -1.3663 -0.6765 -1.6878
 5449TIP3    H237907   1.635   4.746   2.245 -1.1799  0.3936 -2.7246
 5450TIP3   OH237908   2.343   0.430   8.037  0.5054 -0.4516 -0.0145
 5450TIP3    H137909   2.391   0.352   8.010  0.6326  0.1872 -1.6888
 5450TIP3    H237910   2.251   0.403   8.041  0.3313 -0.2621 -2.2968
 5451TIP3   OH237911   1.002   4.225   0.115 -0.2187  0.3676  0.0908
 5451TIP3    H137912   1.028   4.146   0.069 -0.5614 -0.0557  0.6208
 5451TIP3    H237913   0.919   4.202   0.157 -1.0314  1.4409 -0.9007
 5452TIP3   OH237914   2.408   6.433   8.205  0.3155  0.8086 -0.4327
 5452TIP3    H137915   2.491   6.406   8.244  0.8553  1.5289 -1.0692
 5452TIP3    H237916   2.400   6.379   8.127  0.1029  0.6109 -0.2708
 5453TIP3   OH237917   0.568   6.165   1.046  0.3401  0.0655  0.0478
 5453TIP3    H137918   0.547   6.255   1.019  1.6277  0.1611 -0.6398
 5453TIP3    H237919   0.648   6.174   1.098 -0.2505 -0.5351  1.0672
 5454TIP3   OH237920   2.298   1.416   8.349  0.0116  0.0089  0.5819
 5454TIP3    H137921   2.325   1.346   8.408  1.0532  0.2142  0.3558
 5454TIP3    H237922   2.353   1.404   8.272  1.1137  1.8735  1.0657
 5455TIP3   OH237923   1.459   0.158   2.106  0.6158  0.1769 -0.3723
 5455TIP3    H137924   1.442   0.251   2.088 -0.9805  0.2547  1.3375
 5455TIP3    H237925   1.396   0.111   2.052  1.0683  0.0909 -0.8345
 5456TIP3   OH237926   0.448   4.551   1.674  0.7521  0.7376  0.0015
 5456TIP3    H137927   0.364   4.587   1.648 -0.6806 -2.4893 -0.1039
 5456TIP3    H237928   0.430   4.502   1.754  2.6417  0.4585  0.2827
 5457TIP3   OH237929   6.066   4.341   0.914  0.0841 -0.0169  0.1299
 5457TIP3    H137930   6.102   4.260   0.877 -1.9540  0.0087 -2.0664
 5457TIP3    H237931   6.030   4.314   0.999  1.3538 -0.9258  0.4020
 5458TIP3   OH237932   1.801   3.758   0.376  0.4015  0.1256 -0.2720
 5458TIP3    H137933   1.865   3.827   0.359  2.1281 -1.3695 -0.0382
 5458TIP3    H237934   1.826   3.687   0.317 -1.1303 -0.4325 -0.2613
 5459TIP3   OH237935   0.651   4.932   1.214  0.1372 -0.0617 -0.1051
 5459TIP3    H137936   0.718   4.873   1.178 -0.6052 -1.7288  1.2035
 5459TIP3    H237937   0.689   4.965   1.295 -0.0407  0.1389 -0.1019
 5460TIP3   OH237938   1.555   3.843   8.021  0.8612 -0.7013  0.5626
 5460TIP3    H137939   1.614   3.793   8.078  1.5364  2.3201  2.6630
 5460TIP3    H237940   1.498   3.890   8.082 -1.7054 -1.1990 -1.4081
 5461TIP3   OH237941   1.445   6.132   8.432  0.6183  0.4516  0.2523
 5461TIP3    H137942   1.371   6.170   8.480  0.1622 -2.4590  1.9358
 5461TIP3    H237943   1.425   6.150   8.340 -3.3304 -2.1296  0.4810
 5462TIP3   OH237944   0.957   2.938   2.499  0.2995  0.8223 -0.2707
 5462TIP3    H137945   0.874   2.986   2.502 -0.2220 -0.0941  0.3540
 5462TIP3    H237946   0.933   2.853   2.463  0.7644  0.1359  1.0250
 5463TIP3   OH237947   0.627   3.382   2.279 -0.4966 -0.7682  0.1150
 5463TIP3    H137948   0.632   3.307   2.338 -1.1961 -0.4551  0.5823
 5463TIP3    H237949   0.539   3.418   2.293  0.0451  0.5023  0.3405
 5464TIP3   OH237950   5.874   5.063   1.279  0.7513  0.3868 -0.4915
 5464TIP3    H137951   5.905   5.153   1.284  0.3936  0.5136 -0.5672
 5464TIP3    H237952   5.845   5.042   1.368  0.5823  0.4367 -0.5344
 5465TIP3   OH237953   0.826   5.153   2.453 -0.2149  0.5978  0.0750
 5465TIP3    H137954   0.898   5.163   2.391 -0.0015  0.0745  0.2394
 5465TIP3    H237955   0.748   5.175   2.403 -0.1995 -1.1902 -0.7614
 5466TIP3   OH237956   1.238   1.919   2.088  0.0364  0.1772  0.4071
 5466TIP3    H137957   1.242   1.988   2.022  2.0335  1.3690  1.7021
 5466TIP3    H237958   1.218   1.964   2.169  1.7725 -0.6773  1.3497
 5467TIP3   OH237959   2.335   3.239   1.793  0.2678 -0.8805  1.0046
 5467TIP3    H137960   2.303   3.327   1.774  0.9810 -1.3530 -2.6251
 5467TIP3    H237961   2.348   3.239   1.888  0.4833  2.9870  1.0556
 5468TIP3   OH237962   0.135   3.277   7.965 -0.6766 -0.5581  0.4170
 5468TIP3    H137963   0.060   3.315   7.918  0.2699  0.5741 -0.1959
 5468TIP3    H237964   0.172   3.350   8.014 -0.3990 -1.2853  1.3120
 5469TIP3   OH237965   7.284   2.446   1.960 -0.2511 -0.1249  0.1610
 5469TIP3    H137966   7.213   2.511   1.964 -0.1111 -0.0210  1.1750
 5469TIP3    H237967   7.239   2.363   1.946 -0.3437  0.3416 -2.7020
 5470TIP3   OH237968   0.340   3.942   0.240 -0.3613  0.7121 -0.1482
 5470TIP3    H137969   0.350   4.014   0.303  0.4527  1.7690 -1.4545
 5470TIP3    H237970   0.428   3.931   0.203 -0.5857 -0.6788 -0.2645
 5471TIP3   OH237971   0.047   5.550   1.053 -0.4387  0.2666  0.0234
 5471TIP3    H137972   0.086   5.571   0.969 -1.0608  1.7137  0.0808
 5471TIP3    H237973   0.120   5.517   1.106  0.8300  3.3004  0.2663
 5472TIP3   OH237974   1.115   2.812   8.169 -0.4158 -0.2935  0.0980
 5472TIP3    H137975   1.131   2.721   8.144  1.9263 -0.0480  0.5767
 5472TIP3    H237976   1.092   2.856   8.088 -0.3743 -1.0853 -0.3417
 5473TIP3   OH237977   3.326   5.954   1.507 -0.0591 -0.0253 -0.0296
 5473TIP3    H137978   3.346   6.036   1.553  1.6385 -0.1522 -0.4898
 5473TIP3    H237979   3.370   5.887   1.559 -0.3389 -0.4849 -0.3880
 5474TIP3   OH237980   1.946   6.710   1.374  0.5451 -0.3770  0.3038
 5474TIP3    H137981   1.945   6.703   1.278 -0.7449  1.5372  0.1436
 5474TIP3    H237982   1.898   6.791   1.392 -1.1966 -1.8802  2.6837
 5475TIP3   OH237983   6.407   0.815   1.323  0.3103  0.4784 -0.3052
 5475TIP3    H137984   6.397   0.907   1.348 -0.0280  0.2252  0.5102
 5475TIP3    H237985   6.352   0.805   1.245  0.4382  0.9899 -0.4627
 5476TIP3   OH237986   0.524   5.017   1.946  0.1510  1.0590  0.4428
 5476TIP3    H137987   0.437   4.981   1.931  1.1590 -0.9817 -0.9027
 5476TIP3    H237988   0.546   4.990   2.035  0.4169 -0.7321 -0.1350
 5477TIP3   OH237989   1.882   1.986   1.680 -0.0511  0.1343  0.1794
 5477TIP3    H137990   1.927   2.070   1.685 -0.3045  0.2344  0.7731
 5477TIP3    H237991   1.880   1.954   1.770 -2.5126  0.8580  0.4191
 5478TIP3   OH237992   4.256   5.688   1.781 -0.3320  0.2025 -0.1639
 5478TIP3    H137993   4.266   5.773   1.738 -1.1178  0.0335 -0.7028
 5478TIP3    H237994   4.336   5.640   1.757 -0.6099  0.2261 -1.1943
 5479TIP3   OH237995   1.104   2.899   1.466 -0.0182  0.4497 -0.4853
 5479TIP3    H137996   1.131   2.990   1.478  1.9908 -0.3390  1.4147
 5479TIP3    H237997   1.037   2.885   1.533 -0.8088  0.7041 -1.2155
 5480TIP3   OH237998   6.907   4.482   0.449  0.4682 -0.1449 -0.8218
 5480TIP3    H137999   6.813   4.498   0.455  0.6109  0.6838 -0.7469
 5480TIP3    H238000   6.920   4.453   0.358 -0.1497 -2.3371 -0.2392
 5481TIP3   OH238001   2.524   0.817   0.818  0.2097 -0.6081 -0.0345
 5481TIP3    H138002   2.547   0.725   0.809  1.4470 -0.2708 -0.3560
 5481TIP3    H238003   2.529   0.852   0.729  1.0440  0.0714  0.2705
 5482TIP3   OH238004   0.633   5.752   2.199  0.0245 -0.6163  0.1441
 5482TIP3    H138005   0.666   5.842   2.201  0.1963 -0.6591 -0.6045
 5482TIP3    H238006   0.548   5.757   2.243 -0.3693  0.0807 -0.6650
 5483TIP3   OH238007   1.889   3.277   2.590  0.2162  0.0853 -0.4809
 5483TIP3    H138008   1.982   3.255   2.597 -0.1266 -1.2415 -0.0511
 5483TIP3    H238009   1.880   3.358   2.641  1.2782  0.6440 -1.1666
 5484TIP3   OH238010   1.372   5.011   6.511 -0.1196 -0.1918  0.7547
 5484TIP3    H138011   1.395   5.055   6.592  0.6387  0.2186  0.3216
 5484TIP3    H238012   1.277   5.023   6.503  0.1210  1.8014  0.4068
 5485TIP3   OH238013   3.551   3.767   1.715  0.1544  0.3628 -0.0163
 5485TIP3    H138014   3.519   3.801   1.631 -0.4905  0.1144  0.1261
 5485TIP3    H238015   3.540   3.672   1.708  0.1491  0.3366  0.3244
 5486TIP3   OH238016   0.557   2.802   1.853 -0.7208  0.7371  0.3828
 5486TIP3    H138017   0.481   2.852   1.821 -1.1528  0.8470  1.5693
 5486TIP3    H238018   0.607   2.865   1.904  2.3112  1.7683 -3.6269
 5487TIP3   OH238019   6.263   5.529   1.958 -0.4759 -0.0173  0.6331
 5487TIP3    H138020   6.233   5.441   1.939  0.2441 -0.1090 -0.1352
 5487TIP3    H238021   6.350   5.517   1.997 -0.9953  0.2853  1.8871
 5488TIP3   OH238022   1.722   2.211   2.134  0.0537  0.7379  0.0344
 5488TIP3    H138023   1.634   2.204   2.172  0.0235  0.5607 -0.0673
 5488TIP3    H238024   1.747   2.302   2.148 -0.4963  1.0100 -0.7133
 5489TIP3   OH238025   1.511   2.960   0.639  0.1743 -0.1912 -0.2079
 5489TIP3    H138026   1.538   3.002   0.558  1.4677 -2.0287 -0.7595
 5489TIP3    H238027   1.591   2.957   0.692  0.1072 -1.9141 -0.1800
 5490TIP3   OH238028   1.924   0.944   1.329  0.0485  0.0942  0.2121
 5490TIP3    H138029   2.018   0.963   1.329  0.1951 -0.6306 -0.1401
 5490TIP3    H238030   1.883   1.028   1.307  0.6014  0.4702  0.6152
 5491TIP3   OH238031   1.102   6.402   1.743 -0.1543 -0.0113 -0.0931
 5491TIP3    H138032   1.035   6.454   1.698 -0.1604  0.6188  0.6315
 5491TIP3    H238033   1.130   6.458   1.816  1.4582 -0.1066 -0.6370
 5492TIP3   OH238034   1.001   5.800   1.901  0.1835 -0.4113  0.2019
 5492TIP3    H138035   1.063   5.848   1.956 -0.8076 -0.5469  1.4454
 5492TIP3    H238036   0.954   5.743   1.961  0.2046 -1.7706 -1.0254
 5493TIP3   OH238037   5.469   5.767   7.849 -0.1485  0.1685  0.0994
 5493TIP3    H138038   5.449   5.784   7.757 -0.3363  0.8969  0.2719
 5493TIP3    H238039   5.402   5.705   7.877  1.2667 -1.8535 -0.8656
 5494TIP3   OH238040   1.301   2.683   1.866  0.0272 -0.0825  0.1851
 5494TIP3    H138041   1.251   2.705   1.787  0.2370 -2.4141 -0.6480
 5494TIP3    H238042   1.377   2.740   1.862  1.2884 -1.8131 -2.6605
 5495TIP3   OH238043   1.385   4.218   8.440  0.3103  0.4938  0.3441
 5495TIP3    H138044   1.457   4.271   8.406  0.3550  0.5587  0.5396
 5495TIP3    H238045   1.330   4.281   8.486 -0.6139  0.6891 -0.9948
 5496TIP3   OH238046   3.678   4.546   0.536  0.0892 -0.4281  0.7638
 5496TIP3    H138047   3.619   4.610   0.576 -1.2392 -0.5090 -0.9855
 5496TIP3    H238048   3.761   4.557   0.583 -1.1954 -0.0545  3.0061
 5497TIP3   OH238049   4.491   6.101   8.300 -0.3470 -0.5192 -0.5853
 5497TIP3    H138050   4.515   6.175   8.244  0.5578  0.3663  0.9236
 5497TIP3    H238051   4.410   6.067   8.263 -0.5445  0.9713 -1.5519
 5498TIP3   OH238052   2.056   4.272   1.936 -0.3313 -0.1211  0.1562
 5498TIP3    H138053   2.005   4.263   2.016  0.7718 -0.9180  0.7747
 5498TIP3    H238054   2.147   4.266   1.964  0.0688 -0.4771 -1.1657
 5499TIP3   OH238055   7.247   2.294   0.948 -0.3160  0.4199  0.3803
 5499TIP3    H138056   7.151   2.298   0.954 -0.3659  1.6895 -1.0600
 5499TIP3    H238057   7.266   2.303   0.855  1.1641 -1.3327  0.4786
 5500TIP3   OH238058   1.051   3.963   2.088  0.2869  0.0688  0.1786
 5500TIP3    H138059   0.998   3.956   2.008 -0.1197 -0.5618  0.4986
 5500TIP3    H238060   1.014   3.897   2.147  0.4882  0.6327  0.9430
 5501TIP3   OH238061   0.345   4.380   1.197  0.3120  0.1178  0.2161
 5501TIP3    H138062   0.367   4.288   1.183 -0.3801 -0.0707  0.3316
 5501TIP3    H238063   0.429   4.425   1.199  0.8403 -0.9304  3.2262
 5502TIP3   OH238064   0.168   5.967   1.495 -0.2412 -0.2723 -0.1764
 5502TIP3    H138065   0.161   5.929   1.407  1.2172 -0.1385 -0.3741
 5502TIP3    H238066   0.210   6.052   1.481  0.0207 -0.2596  0.6469
 5503TIP3   OH238067   0.228   4.658   1.560  0.1884  0.0726 -0.2863
 5503TIP3    H138068   0.230   4.701   1.475  1.0519  1.0251  0.1892
 5503TIP3    H238069   0.142   4.616   1.565 -0.2698  0.8976 -1.1852
 5504TIP3   OH238070   1.147   6.565   8.243  0.0834  0.9099 -0.2989
 5504TIP3    H138071   1.055   6.593   8.237  0.2473  1.1049 -2.4743
 5504TIP3    H238072   1.171   6.543   8.153  2.2776  1.1880  0.1856
 5505TIP3   OH238073   2.087   5.024   1.746  0.3337 -0.2014  0.8268
 5505TIP3    H138074   2.039   5.074   1.812  0.5743  1.0093  0.1079
 5505TIP3    H238075   2.040   4.940   1.741 -2.2720  1.2601 -0.4741
 5506TIP3   OH238076   2.056   0.494   1.255 -0.3123 -0.0669 -0.4085
 5506TIP3    H138077   2.097   0.519   1.338  0.3004 -1.5777 -0.2461
 5506TIP3    H238078   2.022   0.576   1.219  1.6256  0.9935  0.1296
 5507TIP3   OH238079   2.422   5.939   0.509  0.5078  0.1266 -0.5886
 5507TIP3    H138080   2.434   6.032   0.491  1.7238 -0.0746 -0.8382
 5507TIP3    H238081   2.505   5.910   0.546  0.1503 -0.8710 -0.5409
 5508TIP3   OH238082   0.742   5.623   1.151 -0.2830 -0.1510  1.1352
 5508TIP3    H138083   0.731   5.529   1.141 -1.9729 -0.0831  2.2388
 5508TIP3    H238084   0.701   5.661   1.074  1.9207 -0.3739 -0.1782
 5509TIP3   OH238085   2.551   4.808   0.622 -0.1335  0.2785 -0.2391
 5509TIP3    H138086   2.543   4.714   0.638  0.5578  0.6215  2.4244
 5509TIP3    H238087   2.484   4.827   0.557 -0.3563 -2.0289 -0.7366
 5510TIP3   OH238088   2.940   6.317   2.081 -0.0281 -0.1277 -0.0567
 5510TIP3    H138089   2.957   6.337   2.173  0.5419 -0.1607 -0.1552
 5510TIP3    H238090   3.026   6.318   2.039 -0.3509  0.4854 -0.7096
 5511TIP3   OH238091   0.749   5.919   1.893 -0.3646  0.0459  0.0275
 5511TIP3    H138092   0.751   5.842   1.836  0.8809  0.6889 -0.8158
 5511TIP3    H238093   0.838   5.926   1.927 -1.0382 -0.1953  1.9081
 5512TIP3   OH238094   7.008   1.295   8.047 -0.3311  0.2598 -0.5535
 5512TIP3    H138095   7.043   1.349   8.118  0.0382  0.8922 -1.2075
 5512TIP3    H238096   6.939   1.244   8.088  0.8604 -0.4674  0.5930
 5513TIP3   OH238097   4.085   5.143   1.417  0.7623  0.5743 -0.0755
 5513TIP3    H138098   4.139   5.188   1.351 -0.8677  1.3789 -0.8779
 5513TIP3    H238099   4.079   5.205   1.489  0.5288  0.6651 -0.1739
 5514TIP3   OH238100   2.297   5.568   1.148  0.3782  0.4849 -0.1701
 5514TIP3    H138101   2.205   5.557   1.171  0.7554  0.4929  1.3926
 5514TIP3    H238102   2.344   5.514   1.211  1.4313  0.2031 -1.1805
 5515TIP3   OH238103   7.208   3.688   1.287  0.2959 -0.2037 -0.8552
 5515TIP3    H138104   7.231   3.681   1.380 -0.2420 -1.3917 -0.8039
 5515TIP3    H238105   7.279   3.739   1.249 -0.2708  1.6193  0.4961
 5516TIP3   OH238106   1.772   3.454   2.424  0.1398 -0.3506 -0.0182
 5516TIP3    H138107   1.828   3.525   2.457  1.0918 -0.9057 -0.3948
 5516TIP3    H238108   1.792   3.380   2.482  0.5394 -0.8357 -0.7753
 5517TIP3   OH238109   2.278   3.809   7.862  0.4002  0.0138 -0.2399
 5517TIP3    H138110   2.328   3.728   7.872  1.5399  0.8692  1.1031
 5517TIP3    H238111   2.334   3.865   7.808 -0.1502  0.1000 -0.7218
 5518TIP3   OH238112   1.710   1.537   0.233  0.5233 -0.0163  0.1371
 5518TIP3    H138113   1.674   1.458   0.192  2.2714 -0.7885  0.0634
 5518TIP3    H238114   1.664   1.543   0.317 -1.1045  0.0490 -0.7350
 5519TIP3   OH238115   2.362   3.786   1.221 -0.2439 -0.0652  0.4128
 5519TIP3    H138116   2.395   3.716   1.165 -0.3253  0.7868 -0.7187
 5519TIP3    H238117   2.424   3.858   1.207 -0.0811  0.0426  1.6704
 5520TIP3   OH238118   0.794   4.298   8.354 -0.1392 -0.5071  0.0900
 5520TIP3    H138119   0.771   4.389   8.371 -0.2440 -0.3833 -0.6978
 5520TIP3    H238120   0.890   4.298   8.348 -0.0595 -0.6502  1.2163
 5521TIP3   OH238121   6.716   6.871   0.279  0.1816 -0.1331  0.2931
 5521TIP3    H138122   6.745   6.906   0.195  0.0127 -2.4035 -0.7551
 5521TIP3    H238123   6.796   6.847   0.325  0.2267  0.0390  0.3043
 5522TIP3   OH238124   7.004   6.026   6.715 -0.5496  0.5765 -0.2136
 5522TIP3    H138125   6.948   6.068   6.650  0.2321 -0.5104 -1.6358
 5522TIP3    H238126   7.073   5.983   6.663  1.5054  1.7464  1.4526
 5523TIP3   OH238127   5.700   6.691   0.541 -0.4927  0.3518  0.4937
 5523TIP3    H138128   5.718   6.607   0.584 -2.0033 -0.7113 -0.8790
 5523TIP3    H238129   5.686   6.752   0.613  1.4122 -0.3926  1.5143
 5524TIP3   OH238130   1.485   1.770   7.832  0.2397  0.3079  0.3246
 5524TIP3    H138131   1.548   1.770   7.904  0.5288  1.3363  0.0689
 5524TIP3    H238132   1.537   1.788   7.754 -0.2398  0.2544 -0.0137
 5525TIP3   OH238133   0.055   0.475   2.345 -0.2358  0.0686  0.2336
 5525TIP3    H138134   0.145   0.508   2.352 -0.1565  0.1946 -1.1630
 5525TIP3    H238135   0.000   0.554   2.349 -0.2082  0.1125 -0.2504
 5526TIP3   OH238136   1.181   0.678   0.050  0.5681  0.1083 -0.3963
 5526TIP3    H138137   1.107   0.651  -0.004  0.5068  1.5184 -1.0376
 5526TIP3    H238138   1.254   0.624   0.019  0.4254  0.5910 -1.5690
 5527TIP3   OH238139   2.831   5.329   8.326 -0.3895  0.0536  0.2852
 5527TIP3    H138140   2.749   5.284   8.306 -0.6752  0.1220  1.2716
 5527TIP3    H238141   2.847   5.385   8.250 -1.8709  0.9192  0.5924
 5528TIP3   OH238142   6.765   2.325   0.926  0.0091 -0.4257 -0.1132
 5528TIP3    H138143   6.758   2.237   0.888  1.4327 -1.3404  1.6490
 5528TIP3    H238144   6.692   2.331   0.988 -1.1851  0.3520 -1.5690
 5529TIP3   OH238145   3.186   5.404   7.691 -0.2876  0.9596  0.0977
 5529TIP3    H138146   3.246   5.458   7.639 -0.1940  0.3719 -0.4182
 5529TIP3    H238147   3.209   5.422   7.782  0.0421  1.4436 -0.0805
 5530TIP3   OH238148   1.821   5.695   1.389  0.2126 -0.1091  0.3824
 5530TIP3    H138149   1.836   5.675   1.482  2.1907  0.5156  0.2083
 5530TIP3    H238150   1.809   5.790   1.386  1.1716 -0.0047 -0.1354
 5531TIP3   OH238151   2.333   4.374   8.113  0.0038  0.4080 -0.6189
 5531TIP3    H138152   2.351   4.321   8.191  0.2843  0.6392 -0.5247
 5531TIP3    H238153   2.416   4.419   8.095 -0.6507  1.9736  0.1949
 5532TIP3   OH238154   1.818   4.968   1.865 -0.3430 -0.3809 -0.1990
 5532TIP3    H138155   1.828   4.883   1.907 -1.3209 -0.3196  0.1721
 5532TIP3    H238156   1.849   5.031   1.930  0.1979 -0.4292 -0.4017
 5533TIP3   OH238157   1.818   0.648   1.207 -0.0013 -0.2107  0.5248
 5533TIP3    H138158   1.846   0.730   1.168 -1.4277  0.5579  1.0849
 5533TIP3    H238159   1.724   0.644   1.191 -0.6136  0.0649  3.7146
 5534TIP3   OH238160   2.364   6.661   0.550 -0.5804  0.3559  0.7527
 5534TIP3    H138161   2.286   6.692   0.505  0.4492  1.1260 -0.5371
 5534TIP3    H238162   2.416   6.620   0.481 -0.8074 -2.0815  1.9842
 5535TIP3   OH238163   1.606   5.672   7.673  0.0524 -0.2020  0.0085
 5535TIP3    H138164   1.589   5.577   7.674  1.0200 -0.3809 -0.2188
 5535TIP3    H238165   1.665   5.686   7.746  0.0903  0.2016 -0.1025
 5536TIP3   OH238166   1.742   6.187   6.347 -0.1498  0.5086  0.4631
 5536TIP3    H138167   1.707   6.257   6.402 -0.9527  0.6466 -0.2066
 5536TIP3    H238168   1.796   6.232   6.282  0.1649  0.4146  0.6582
 5537TIP3   OH238169   1.271   4.429   6.286 -0.0790 -0.1618 -0.3911
 5537TIP3    H138170   1.321   4.348   6.283 -1.1253 -0.8177 -0.5929
 5537TIP3    H238171   1.180   4.401   6.272 -0.3412  1.1394 -1.3923
 5538TIP3   OH238172   0.802   3.021   0.926  0.2960 -0.1211  0.0412
 5538TIP3    H138173   0.834   2.943   0.971 -0.1676 -0.6702 -0.5862
 5538TIP3    H238174   0.839   3.094   0.976  1.2154 -0.7411  0.2715
 5539TIP3   OH238175   3.828   5.542   1.371 -0.4396  0.3146 -0.0142
 5539TIP3    H138176   3.789   5.629   1.367 -0.2398  0.3892 -0.4061
 5539TIP3    H238177   3.887   5.545   1.446 -1.4109  0.1082  0.7657
 5540TIP3   OH238178   3.254   4.136   1.060 -0.2798 -0.0766 -0.4820
 5540TIP3    H138179   3.215   4.141   0.972  0.0101 -1.0759 -0.6638
 5540TIP3    H238180   3.270   4.228   1.083 -0.1984  0.1857 -1.5402
 5541TIP3   OH238181   3.465   4.616   1.737  0.0485 -0.5225  0.0492
 5541TIP3    H138182   3.537   4.591   1.679 -0.3330 -0.1516 -0.5884
 5541TIP3    H238183   3.509   4.658   1.811  0.7265 -3.4155  1.3537
 5542TIP3   OH238184   4.573   3.169   1.566  0.5197 -0.0945 -0.0326
 5542TIP3    H138185   4.541   3.228   1.499  0.2564 -0.1298  0.0616
 5542TIP3    H238186   4.641   3.218   1.612  1.0935 -0.2767 -0.6929
 5543TIP3   OH238187   3.397   3.168   1.465 -0.3235 -0.0887  0.1229
 5543TIP3    H138188   3.365   3.080   1.449  1.5697 -0.7131 -0.3847
 5543TIP3    H238189   3.447   3.161   1.547  1.3662  0.0726 -0.8602
 5544TIP3   OH238190   2.773   4.031   7.780  0.2183  0.2789 -0.9831
 5544TIP3    H138191   2.864   4.009   7.802 -1.1977 -1.7080  3.3675
 5544TIP3    H238192   2.768   4.126   7.796  1.4853  0.3966 -1.1871
 5545TIP3   OH238193   2.403   0.393   0.909 -0.2843  0.6144 -0.3117
 5545TIP3    H138194   2.467   0.355   0.969 -0.6317 -0.4356 -0.5980
 5545TIP3    H238195   2.318   0.371   0.948 -0.4733  2.3511  0.2809
 5546TIP3   OH238196   1.152   3.721   0.135  0.3075 -0.0659 -0.0227
 5546TIP3    H138197   1.117   3.804   0.103  0.0334 -0.2356 -0.1675
 5546TIP3    H238198   1.074   3.668   0.154  0.4871 -0.4861 -0.4540
 5547TIP3   OH238199   0.004   5.121   1.967 -0.1799  0.3703  0.9664
 5547TIP3    H138200  -0.068   5.083   1.917  0.9320  2.2348 -2.2377
 5547TIP3    H238201  -0.013   5.215   1.966  2.5651  0.9103 -0.4344
 5548TIP3   OH238202   3.022   3.311   0.672  0.5208  0.2285 -0.1563
 5548TIP3    H138203   3.041   3.403   0.654 -1.0000  0.8902  1.4114
 5548TIP3    H238204   2.930   3.301   0.649  0.5042 -0.7318  0.3156
 5549TIP3   OH238205   2.256   4.421   7.135 -0.3188  0.0430 -0.2767
 5549TIP3    H138206   2.343   4.395   7.166  0.1762 -0.6053 -2.1349
 5549TIP3    H238207   2.262   4.414   7.039 -1.9867  1.3616 -0.4891
 5550TIP3   OH238208   0.570   4.777   7.803  0.0500  0.1336 -0.2135
 5550TIP3    H138209   0.620   4.848   7.842 -0.7785  0.2415  0.6443
 5550TIP3    H238210   0.624   4.699   7.817  0.4873  0.4220 -0.2745
 5551TIP3   OH238211   0.794   1.584   0.129  0.2627 -0.1032  0.0652
 5551TIP3    H138212   0.790   1.546   0.217  0.6802  0.0546  0.1507
 5551TIP3    H238213   0.884   1.612   0.119  0.2732 -0.3381 -0.5113
 5552TIP3   OH238214   2.569   6.792   0.962 -0.3014  0.2848 -0.0540
 5552TIP3    H138215   2.532   6.832   0.884  0.0737 -0.8450 -0.8148
 5552TIP3    H238216   2.644   6.848   0.984  0.4251 -0.1662 -1.3089
 5553TIP3   OH238217   0.393   3.569   1.231  0.4150 -0.2571 -0.1166
 5553TIP3    H138218   0.466   3.512   1.208 -0.8567 -2.0054  0.0473
 5553TIP3    H238219   0.332   3.561   1.158  1.1358  2.5908 -1.1052
 5554TIP3   OH238220   1.445   3.985   0.925  0.2646 -0.6749  0.6140
 5554TIP3    H138221   1.414   3.905   0.884 -2.7855  1.2541 -1.0175
 5554TIP3    H238222   1.505   4.024   0.861 -1.9463  0.6846 -0.6793
 5555TIP3   OH238223   5.211   0.051   0.652 -0.1466 -0.5470 -0.4873
 5555TIP3    H138224   5.119   0.064   0.674  0.0845  0.2819  0.0115
 5555TIP3    H238225   5.213   0.041   0.557 -1.0203 -2.8998 -0.2926
 5556TIP3   OH238226   4.416   6.210   7.823 -0.0222 -0.2359  0.5599
 5556TIP3    H138227   4.404   6.117   7.844 -0.1164 -0.1557  0.8589
 5556TIP3    H238228   4.435   6.211   7.729 -0.4695 -0.5211  0.4676
 5557TIP3   OH238229   6.852   5.306   8.269  0.5914 -0.1064 -0.4912
 5557TIP3    H138230   6.818   5.238   8.211  0.4759  1.0340 -1.8063
 5557TIP3    H238231   6.781   5.323   8.331 -0.4353  0.7072 -1.8526
 5558TIP3   OH238232   3.476   3.552   2.572  0.0894 -0.3439 -0.3212
 5558TIP3    H138233   3.380   3.544   2.572  0.1565 -1.2435 -1.2273
 5558TIP3    H238234   3.507   3.468   2.539  1.1695  0.1763 -0.6446
 5559TIP3   OH238235   5.526   6.528   2.068 -0.3726 -0.2662 -0.7264
 5559TIP3    H138236   5.573   6.545   2.150  0.6633  0.7134 -1.4924
 5559TIP3    H238237   5.438   6.561   2.083 -0.7384 -1.8578  0.6403
 5560TIP3   OH238238   0.418   4.967   1.365 -0.0674 -0.0155  0.4786
 5560TIP3    H138239   0.415   5.061   1.380  0.5799 -0.2843  2.3186
 5560TIP3    H238240   0.482   4.957   1.294 -0.8537  0.9845 -0.4001
 5561TIP3   OH238241   5.427   5.916   0.708 -0.0112 -0.6928 -0.2165
 5561TIP3    H138242   5.387   5.938   0.792 -0.3110  0.8843 -0.7545
 5561TIP3    H238243   5.357   5.874   0.658  0.1381 -1.5345  0.2858
 5562TIP3   OH238244   7.176   3.974   1.596  0.6459 -0.1893  0.5520
 5562TIP3    H138245   7.265   3.979   1.560  0.9095  0.2253  1.2518
 5562TIP3    H238246   7.157   4.063   1.625 -0.1850 -0.1736 -0.0252
 5563TIP3   OH238247   2.932   3.853   0.233 -0.4343  0.5188  0.1358
 5563TIP3    H138248   2.861   3.838   0.296 -3.1420  0.3367 -2.7800
 5563TIP3    H238249   2.949   3.947   0.239 -0.0417  0.3544  1.7534
 5564TIP3   OH238250   3.410   5.945   6.485 -0.0800 -0.4563  0.5272
 5564TIP3    H138251   3.436   5.986   6.403  1.0889  2.1690  2.1407
 5564TIP3    H238252   3.487   5.954   6.541 -0.0564 -4.2525  1.2179
 5565TIP3   OH238253   4.336   3.362   1.150 -0.4428  0.2457  0.4353
 5565TIP3    H138254   4.242   3.371   1.131 -0.2851 -0.0355 -0.5032
 5565TIP3    H238255   4.354   3.269   1.135 -0.0842  0.2280  0.9622
 5566TIP3   OH238256   3.011   4.771   1.204 -0.1108  0.2652 -0.2816
 5566TIP3    H138257   3.069   4.791   1.278  0.7637  0.1790 -0.9326
 5566TIP3    H238258   2.925   4.801   1.233  0.2633  0.4566  0.6794
 5567TIP3   OH238259   1.465   5.525   6.112 -0.1561 -0.0351  0.3391
 5567TIP3    H138260   1.524   5.563   6.176 -0.0969  0.6185 -0.0964
 5567TIP3    H238261   1.406   5.596   6.088 -1.0916 -0.6667  0.7367
 5568TIP3   OH238262   2.024   6.263   7.574  0.5702  0.5700 -0.2511
 5568TIP3    H138263   2.106   6.286   7.529  0.8520 -1.8606 -1.0472
 5568TIP3    H238264   1.977   6.209   7.511  0.3217 -1.6890  1.8078
 5569TIP3   OH238265   3.590   6.495   8.315 -0.5722  0.1035  0.0489
 5569TIP3    H138266   3.589   6.468   8.223  1.7898 -1.1919  0.3752
 5569TIP3    H238267   3.599   6.413   8.364 -1.1492  0.8450  1.4246
 5570TIP3   OH238268   4.156   6.155   1.149 -0.6291 -0.3067  0.4892
 5570TIP3    H138269   4.156   6.216   1.074  0.2428 -0.0644  0.6806
 5570TIP3    H238270   4.197   6.204   1.219 -1.2170 -0.6291  1.0667
 5571TIP3   OH238271   1.424   4.854   7.174 -0.1277 -0.2325 -0.0672
 5571TIP3    H138272   1.358   4.921   7.157  0.3125  0.1792 -0.1723
 5571TIP3    H238273   1.419   4.795   7.099 -0.1873 -0.0426 -0.2135
 5572TIP3   OH238274   1.520   6.450   0.523 -0.6662 -0.0219 -0.0904
 5572TIP3    H138275   1.570   6.523   0.561  0.4008 -0.0840 -1.3487
 5572TIP3    H238276   1.470   6.490   0.452 -1.9026 -0.0950  0.7159
 5573TIP3   OH238277   3.087   2.886   1.711 -0.7777 -1.2671  0.6037
 5573TIP3    H138278   3.007   2.939   1.711  0.4080  0.5125 -0.3226
 5573TIP3    H238279   3.127   2.904   1.796 -1.8424 -2.9765  1.5250
 5574TIP3   OH238280   2.362   5.725   2.145  0.1291 -0.0026  0.2868
 5574TIP3    H138281   2.444   5.695   2.184  0.6420 -1.6231 -1.9100
 5574TIP3    H238282   2.304   5.649   2.148 -0.5505  0.4839 -0.1425
 5575TIP3   OH238283   2.989   2.012   6.984  0.0876  0.0728 -0.0473
 5575TIP3    H138284   3.042   2.062   7.046  1.1931  1.0682 -1.7549
 5575TIP3    H238285   2.983   1.925   7.022  0.1127  0.8710  1.8177
 5576TIP3   OH238286   3.118   5.525   1.043  0.5922  0.1627  0.0734
 5576TIP3    H138287   3.185   5.591   1.057 -0.4377  0.9685  1.3828
 5576TIP3    H238288   3.064   5.560   0.973  0.9523 -0.0051 -0.2849
 5577TIP3   OH238289   2.560   5.433   8.077 -0.1164  0.3859 -0.8353
 5577TIP3    H138290   2.652   5.421   8.053  0.2820  2.0946 -0.2669
 5577TIP3    H238291   2.547   5.375   8.153  0.7348  0.7760 -0.3827
 5578TIP3   OH238292   1.219   7.050   0.788  0.1826 -0.1807  0.3604
 5578TIP3    H138293   1.171   7.133   0.792  1.3218  0.6948 -2.2960
 5578TIP3    H238294   1.309   7.076   0.766  0.3620 -2.1322 -1.4193
 5579TIP3   OH238295   7.235   4.820   1.110 -0.0871  0.3819 -0.4219
 5579TIP3    H138296   7.187   4.748   1.151 -0.7577  0.5990 -0.8188
 5579TIP3    H238297   7.169   4.887   1.094  0.7463  1.5526  0.9832
 5580TIP3   OH238298   3.213   4.912   1.350 -0.8249 -0.6357 -0.2975
 5580TIP3    H138299   3.257   4.915   1.435  1.6786 -2.4266 -1.4709
 5580TIP3    H238300   3.284   4.904   1.286 -2.6734  0.1082 -2.5451
 5581TIP3   OH238301   1.434   4.422   2.846 -0.1598 -0.4175  0.5425
 5581TIP3    H138302   1.417   4.513   2.868  2.8987  0.3173  0.1410
 5581TIP3    H238303   1.489   4.426   2.768 -0.4343 -2.6256  0.1998
 5582TIP3   OH238304   3.393   6.128   7.406 -0.0694  0.2136 -0.0916
 5582TIP3    H138305   3.471   6.182   7.417  0.9053 -0.7423 -2.0878
 5582TIP3    H238306   3.380   6.124   7.311 -1.1122 -1.6590  0.1112
 5583TIP3   OH238307   3.999   0.460   1.634 -0.2367 -0.4459  0.2675
 5583TIP3    H138308   4.002   0.447   1.540 -0.8584 -0.3369  0.2261
 5583TIP3    H238309   4.089   0.480   1.659 -0.1359 -0.1134 -0.3553
 5584TIP3   OH238310   4.453   5.901   1.618 -0.0451  0.3327 -0.0107
 5584TIP3    H138311   4.508   5.866   1.548 -1.0895 -1.8782  0.2322
 5584TIP3    H238312   4.494   5.870   1.698 -0.3132  0.6795  0.2595
 5585TIP3   OH238313   1.232   7.021   0.360 -0.7624  0.0404  0.3544
 5585TIP3    H138314   1.248   7.076   0.283 -1.0032 -0.4159 -0.0204
 5585TIP3    H238315   1.208   6.936   0.324 -2.5806  0.2956  0.9278
 5586TIP3   OH238316   4.298   4.852   0.065 -0.4452 -0.1432  1.1851
 5586TIP3    H138317   4.231   4.784   0.072  0.0302 -0.9174 -1.1707
 5586TIP3    H238318   4.265   4.911  -0.003  1.2972 -0.6025 -0.0876
 5587TIP3   OH238319   0.030   6.090   0.474 -0.2828  0.4351 -0.0611
 5587TIP3    H138320   0.071   6.031   0.538  0.6557  0.9269 -0.1944
 5587TIP3    H238321   0.011   6.034   0.398 -2.2151 -0.3371  0.9735
 5588TIP3   OH238322   3.719   6.601   0.933  0.0753 -0.0281 -0.2016
 5588TIP3    H138323   3.685   6.573   1.018  0.1369 -1.7805 -0.7552
 5588TIP3    H238324   3.642   6.625   0.882 -0.0229  0.0776 -0.0033
 5589TIP3   OH238325   1.573   4.468   0.786  1.0094 -0.2881 -0.0574
 5589TIP3    H138326   1.515   4.496   0.857  0.7382  0.2129 -0.4748
 5589TIP3    H238327   1.657   4.451   0.829  0.4439 -1.4735  0.6294
 5590TIP3   OH238328   3.388   6.220   8.498 -0.4960  0.3372 -0.1586
 5590TIP3    H138329   3.417   6.130   8.487 -0.2183  0.3402  0.5018
 5590TIP3    H238330   3.327   6.235   8.425  0.1672 -0.0777 -0.7983
 5591TIP3   OH238331   3.717   5.930   1.079  0.1184  0.0912 -0.0310
 5591TIP3    H138332   3.756   5.902   0.996 -1.3183 -0.8134 -0.4215
 5591TIP3    H238333   3.780   5.992   1.115  1.4226 -0.5590 -1.1272
 5592TIP3   OH238334   1.992   3.282   1.094  0.0258 -0.1325 -0.2803
 5592TIP3    H138335   2.046   3.297   1.171 -1.6018 -0.5641  0.9810
 5592TIP3    H238336   1.937   3.208   1.117 -0.8749  0.0789 -1.6557
 5593TIP3   OH238337   3.209   3.305   2.428  0.2526  0.2926 -0.2923
 5593TIP3    H138338   3.156   3.350   2.362  0.4259 -1.3878 -1.5965
 5593TIP3    H238339   3.295   3.297   2.387  0.1813 -1.3461 -0.1330
 5594TIP3   OH238340   1.217   4.783   0.223 -0.1422 -0.7978 -1.0652
 5594TIP3    H138341   1.312   4.794   0.233 -0.8240  1.6439  4.5722
 5594TIP3    H238342   1.184   4.871   0.207 -1.7300 -0.9812  0.8969
 5595TIP3   OH238343   3.851   6.457   1.666 -0.1594 -0.6506  0.2222
 5595TIP3    H138344   3.831   6.435   1.757  1.2323  0.4076  0.7984
 5595TIP3    H238345   3.930   6.407   1.645  2.0105  2.2955  0.9901
 5596TIP3   OH238346   1.169   4.181   1.236  0.4615 -0.4042 -0.2941
 5596TIP3    H138347   1.102   4.227   1.288  1.4272  0.0776  0.5418
 5596TIP3    H238348   1.222   4.251   1.199 -0.1949 -0.7526 -1.9217
 5597TIP3   OH238349   2.662   3.181   7.360 -0.2455  0.2940  0.1868
 5597TIP3    H138350   2.656   3.112   7.427 -0.9746  0.9806  0.8383
 5597TIP3    H238351   2.578   3.227   7.366 -0.5406  0.0124 -1.5854
 5598TIP3   OH238352   0.414   2.472   0.267  0.2260  0.1312  0.0729
 5598TIP3    H138353   0.370   2.542   0.317  0.1283  0.5527 -0.5999
 5598TIP3    H238354   0.342   2.421   0.230  0.3005  0.0445  0.0496
 5599TIP3   OH238355   6.465   2.703   2.384 -0.5292 -0.4944  0.2045
 5599TIP3    H138356   6.489   2.771   2.320  1.5174 -0.0185  1.4300
 5599TIP3    H238357   6.422   2.635   2.333  0.5547  0.1506 -1.5946
 5600TIP3   OH238358   1.381   2.071   0.833 -0.5876  0.1597 -0.0067
 5600TIP3    H138359   1.438   2.051   0.759  1.5934  2.5674  0.9425
 5600TIP3    H238360   1.334   2.151   0.807 -0.9614  0.1317  0.5645
 5601TIP3   OH238361   2.965   6.595   7.143  0.2732  0.2486 -0.2853
 5601TIP3    H138362   2.996   6.648   7.216  1.9551 -0.8606 -0.1600
 5601TIP3    H238363   2.943   6.658   7.074 -0.9151  1.2732  0.9992
 5602TIP3   OH238364   3.954   6.057   1.449 -0.1743  0.1087  0.4218
 5602TIP3    H138365   3.942   6.152   1.438 -0.6226  0.1029  0.8430
 5602TIP3    H238366   3.865   6.023   1.455 -0.0134 -0.3457  0.2333
 5603TIP3   OH238367   2.533   4.520   0.647 -0.4175 -0.0347 -0.1651
 5603TIP3    H138368   2.544   4.457   0.718  0.3571  0.5787  0.2757
 5603TIP3    H238369   2.597   4.493   0.581 -0.2687  0.1295 -0.0892
 5604TIP3   OH238370   2.955   1.779   8.148  0.1195 -0.3732  0.0476
 5604TIP3    H138371   2.937   1.688   8.123 -1.3638 -0.8185  2.6210
 5604TIP3    H238372   2.968   1.824   8.064  0.9354 -2.9391 -1.2700
 5605TIP3   OH238373   2.194   4.816   2.597  0.2222 -0.2273  0.3707
 5605TIP3    H138374   2.111   4.787   2.559  0.3411 -1.3974  0.9640
 5605TIP3    H238375   2.254   4.743   2.581  0.2988 -0.7082  2.6558
 5606TIP3   OH238376   3.640   3.753   2.593  0.0242 -0.5253 -0.0456
 5606TIP3    H138377   3.704   3.695   2.634 -1.0440 -1.4415  0.3354
 5606TIP3    H238378   3.563   3.699   2.580  0.7551 -0.6892 -4.5689
 5607TIP3   OH238379   2.422   6.310   1.555  0.5843  0.2856 -1.0055
 5607TIP3    H138380   2.373   6.259   1.620 -0.3941  1.3439 -0.8930
 5607TIP3    H238381   2.390   6.279   1.471 -0.7849  1.4392 -0.9250
 5608TIP3   OH238382   4.385   4.298   1.457 -0.0403  0.0819  0.1848
 5608TIP3    H138383   4.298   4.263   1.477  0.6928 -1.2348  1.1530
 5608TIP3    H238384   4.404   4.358   1.529 -0.2207  0.5044 -0.1193
 5609TIP3   OH238385   2.710   6.477   0.811 -0.2628 -0.4724 -0.3906
 5609TIP3    H138386   2.720   6.565   0.847 -2.3924 -0.1694 -0.4845
 5609TIP3    H238387   2.767   6.422   0.864  0.5969  0.8564  0.0699
 5610TIP3   OH238388   1.146   1.675   7.132  0.1561  0.2457  0.5498
 5610TIP3    H138389   1.235   1.674   7.166  0.6118  2.9008 -0.4206
 5610TIP3    H238390   1.154   1.642   7.043 -0.3224 -2.3340  1.4317
 5611TIP3   OH238391   3.581   0.487   7.725  0.2128  0.5441  0.3597
 5611TIP3    H138392   3.665   0.467   7.767 -0.0001  0.3763  0.7074
 5611TIP3    H238393   3.533   0.404   7.725  1.0069  0.0383 -2.0808
 5612TIP3   OH238394   2.358   3.289   1.090 -0.3845 -0.4192  0.3404
 5612TIP3    H138395   2.292   3.237   1.135 -0.3073  0.2227  1.1980
 5612TIP3    H238396   2.320   3.377   1.084 -0.0618 -0.3096 -0.1405
 5613TIP3   OH238397   6.924   2.372   6.483  0.3210  0.3376  0.0652
 5613TIP3    H138398   6.859   2.412   6.541 -0.1887 -0.1625 -0.1601
 5613TIP3    H238399   6.898   2.400   6.395 -0.1287 -0.6236 -0.1060
 5614TIP3   OH238400   6.197   4.902   1.079 -0.5621  0.3359 -0.3295
 5614TIP3    H138401   6.122   4.847   1.102 -1.0974  1.5436  0.8674
 5614TIP3    H238402   6.237   4.926   1.162 -1.0005  2.6561 -0.7436
 5615TIP3   OH238403   0.422   2.540   7.693 -0.0062 -0.6727  0.5073
 5615TIP3    H138404   0.465   2.514   7.775  1.0185 -0.9075 -0.1088
 5615TIP3    H238405   0.474   2.613   7.661 -0.5606 -0.4173  0.1850
 5616TIP3   OH238406   1.913   3.259   1.569 -0.1995 -0.3041  0.4866
 5616TIP3    H138407   1.925   3.172   1.608  0.9762 -0.6528 -0.5966
 5616TIP3    H238408   1.849   3.245   1.499  0.1790 -0.3536  0.1487
 5617TIP3   OH238409   3.863   4.340   7.166  0.0464 -0.0851  0.0552
 5617TIP3    H138410   3.938   4.301   7.212  0.9698  0.3488 -1.0629
 5617TIP3    H238411   3.794   4.343   7.232  0.9683 -0.6199  1.0671
 5618TIP3   OH238412   1.930   4.295   0.270 -0.3182 -0.0034  0.1144
 5618TIP3    H138413   1.851   4.285   0.217  0.4825  1.3284 -1.3889
 5618TIP3    H238414   1.992   4.339   0.212  1.5232 -0.9882  1.2876
 5619TIP3   OH238415   0.743   6.862   6.977 -0.4394 -0.1973  0.7842
 5619TIP3    H138416   0.730   6.935   6.916 -0.3001 -0.9765 -0.1969
 5619TIP3    H238417   0.663   6.861   7.030 -0.0483  1.2363  1.4307
 5620TIP3   OH238418   2.238   0.105   8.089 -0.7206  0.2788  0.0004
 5620TIP3    H138419   2.212   0.080   8.177  0.2017 -0.2215  0.1266
 5620TIP3    H238420   2.168   0.164   8.060 -2.5224 -1.7512 -0.0031
 5621TIP3   OH238421   1.686   3.427   6.683 -0.4631  0.1023 -0.0751
 5621TIP3    H138422   1.620   3.443   6.616  0.5364  1.8947 -0.6785
 5621TIP3    H238423   1.664   3.488   6.754 -0.4869 -0.5497  0.4901
 5622TIP3   OH238424   2.321   5.470   2.299 -0.6815  0.0290  0.7094
 5622TIP3    H138425   2.228   5.475   2.276 -0.5064  0.8017  0.1442
 5622TIP3    H238426   2.323   5.427   2.384 -1.5912  0.4291  0.9368
 5623TIP3   OH238427   2.848   5.143   6.526  0.0817  0.3919 -0.2658
 5623TIP3    H138428   2.814   5.231   6.512  2.8058  1.5656  0.1357
 5623TIP3    H238429   2.876   5.113   6.440  1.1154  0.8102 -0.0917
 5624TIP3   OH238430   3.197   4.636   1.546  0.5552 -0.5405  0.1632
 5624TIP3    H138431   3.191   4.568   1.613  1.2486  0.5775  1.3851
 5624TIP3    H238432   3.285   4.626   1.509 -0.0347 -1.5343 -1.0189
 5625TIP3   OH238433   2.584   2.129   7.722 -0.6208  0.0527  0.4848
 5625TIP3    H138434   2.562   2.094   7.808 -1.3541  0.3154  0.4064
 5625TIP3    H238435   2.524   2.085   7.662 -0.7318  0.5476  0.2286
 5626TIP3   OH238436   2.365   5.816   1.069 -0.2209  0.1244 -0.5259
 5626TIP3    H138437   2.279   5.859   1.076  0.2012  1.0773 -1.0905
 5626TIP3    H238438   2.357   5.738   1.123 -1.0421  0.8564  0.4339
 5627TIP3   OH238439   3.920   2.801   1.733 -0.2640 -0.5268 -0.8430
 5627TIP3    H138440   4.010   2.828   1.751 -0.4207 -0.4310 -0.1928
 5627TIP3    H238441   3.922   2.772   1.642 -0.0548  1.4886 -1.5097
 5628TIP3   OH238442   3.630   5.973   6.692  0.0433 -0.0306 -0.4355
 5628TIP3    H138443   3.715   6.002   6.660  0.0775  2.4228  1.7291
 5628TIP3    H238444   3.645   5.885   6.725  1.1180 -0.6431 -2.5148
 5629TIP3   OH238445   1.208   5.478   1.752 -0.1735 -0.0203 -0.1999
 5629TIP3    H138446   1.275   5.529   1.797  0.3529  0.3099 -1.3461
 5629TIP3    H238447   1.227   5.387   1.774 -0.7339  0.2162  1.3371
 5630TIP3   OH238448   1.110   4.033   6.287 -0.0572 -0.0868 -0.1970
 5630TIP3    H138449   1.101   4.127   6.274  1.2425 -0.0156 -0.6600
 5630TIP3    H238450   1.170   4.005   6.218  0.5353 -1.0464  0.6918
 5631TIP3   OH238451   1.121   6.171   8.078 -0.3271  0.5942  0.0875
 5631TIP3    H138452   1.126   6.158   7.984 -0.6032  2.2631 -0.1809
 5631TIP3    H238453   1.029   6.193   8.095 -0.2125  0.6191  0.6977
 5632TIP3   OH238454   2.407   3.517   1.360  0.0328  0.0828 -0.0639
 5632TIP3    H138455   2.473   3.482   1.300  0.7803  0.8695  0.2903
 5632TIP3    H238456   2.457   3.563   1.427 -0.8068 -0.4678  0.9784
 5633TIP3   OH238457   5.076   6.048   0.767 -0.4456 -0.2422  0.3632
 5633TIP3    H138458   4.996   6.073   0.721 -2.0924  0.6803  3.5818
 5633TIP3    H238459   5.146   6.090   0.716 -2.1012  0.1588 -1.6728
 5634TIP3   OH238460   3.559   4.594   2.132 -0.1280 -0.0747  0.0953
 5634TIP3    H138461   3.525   4.512   2.096 -3.0946  0.9601  0.3993
 5634TIP3    H238462   3.567   4.652   2.057  1.7310 -0.5361 -0.0822
 5635TIP3   OH238463   5.577   6.131   7.267 -0.5854  0.5304 -0.0661
 5635TIP3    H138464   5.541   6.151   7.354  0.3543  2.6055 -0.1239
 5635TIP3    H238465   5.521   6.180   7.206  0.4370  1.3442 -0.3852
 5636TIP3   OH238466   2.698   4.604   2.077  0.3954  0.3439 -0.2117
 5636TIP3    H138467   2.775   4.584   2.130 -0.9342 -1.1574  1.2548
 5636TIP3    H238468   2.642   4.526   2.087 -1.8065  1.8805 -0.2535
 5637TIP3   OH238469   6.879   4.934   7.822 -0.7480  0.1879  0.0824
 5637TIP3    H138470   6.854   4.845   7.797 -0.4463 -0.6061  2.4702
 5637TIP3    H238471   6.968   4.926   7.856 -0.7523  1.3710  0.4141
 5638TIP3   OH238472   0.613   7.012   0.532  0.2048  0.0239 -0.3487
 5638TIP3    H138473   0.678   7.075   0.564  1.0249 -1.4328  0.9379
 5638TIP3    H238474   0.535   7.029   0.585  1.3408 -1.9140  2.1013
 5639TIP3   OH238475   3.172   4.820   0.921  0.1605 -0.0818  0.0896
 5639TIP3    H138476   3.136   4.793   1.006 -0.8621 -0.0808 -0.3322
 5639TIP3    H238477   3.181   4.738   0.872  1.8737 -0.2217  0.6062
 5640TIP3   OH238478   1.337   4.032   0.117 -0.2327 -0.4816  0.6680
 5640TIP3    H138479   1.365   4.089   0.045  1.2799 -0.4380  1.2692
 5640TIP3    H238480   1.245   4.012   0.098 -0.8112  2.2019  0.4664
 5641TIP3   OH238481   3.711   3.946   0.298 -0.0062 -0.0615 -0.2775
 5641TIP3    H138482   3.773   4.015   0.274 -0.8791  0.3141 -1.4641
 5641TIP3    H238483   3.634   3.993   0.329 -0.1311 -0.5271  0.1341
 5642TIP3   OH238484   2.473   5.718   8.319  0.6106 -0.1244 -0.7750
 5642TIP3    H138485   2.477   5.625   8.338  1.2040 -0.2667 -1.5832
 5642TIP3    H238486   2.396   5.749   8.366  0.3934 -1.0272 -0.5370
 5643TIP3   OH238487   4.713   3.310   6.920  0.1905 -0.1443  0.3464
 5643TIP3    H138488   4.808   3.320   6.917 -0.0636  2.1070 -1.5502
 5643TIP3    H238489   4.679   3.399   6.923 -1.8695 -0.9300  1.3911
 5644TIP3   OH238490   4.032   5.382   1.253 -0.1462  0.3868 -0.3748
 5644TIP3    H138491   3.985   5.447   1.306 -0.1913  2.3503 -2.7766
 5644TIP3    H238492   3.977   5.369   1.176  0.8843 -0.9594 -0.9094
 5645TIP3   OH238493   3.957   2.367   1.351  0.5694  0.4518 -0.8771
 5645TIP3    H138494   4.047   2.371   1.319  0.9903  0.1623  0.2366
 5645TIP3    H238495   3.965   2.332   1.440 -0.5625  1.1837 -0.4735
 5646TIP3   OH238496   4.470   4.435   1.727  0.4986 -0.5146  0.3886
 5646TIP3    H138497   4.497   4.406   1.814  1.9399 -0.3290  0.0217
 5646TIP3    H238498   4.549   4.426   1.673 -0.4516 -0.8954 -0.9670
 5647TIP3   OH238499   3.761   0.512   6.948 -0.2484 -0.0519 -0.0052
 5647TIP3    H138500   3.856   0.511   6.931 -0.0901 -0.7792  0.8941
 5647TIP3    H238501   3.753   0.493   7.041 -1.3591 -1.6559 -0.4099
 5648TIP3   OH238502   7.288   5.923   0.193  0.9296 -0.4327  0.4715
 5648TIP3    H138503   7.204   5.885   0.219  0.0348  0.3023 -1.3172
 5648TIP3    H238504   7.347   5.847   0.185  0.1681 -1.0540  0.6755
 5649TIP3   OH238505   2.378   5.244   0.182 -0.1419  0.0259  0.0116
 5649TIP3    H138506   2.326   5.289   0.116 -0.0421  0.0165 -0.0735
 5649TIP3    H238507   2.468   5.247   0.148  0.4779  2.9317  1.6828
 5650TIP3   OH238508   4.017   3.969   1.240 -0.4510 -0.3643 -0.2429
 5650TIP3    H138509   3.990   3.901   1.302 -0.2499  0.9748  1.3291
 5650TIP3    H238510   4.098   3.936   1.202 -0.0594 -0.7510  0.9151
 5651TIP3   OH238511   0.286   6.904   8.309  0.0903  0.4059 -0.3410
 5651TIP3    H138512   0.235   6.958   8.248 -1.9840  0.7323  1.6477
 5651TIP3    H238513   0.316   6.965   8.376  0.1897 -0.4160  0.3692
 5652TIP3   OH238514   2.702   2.929   0.955  0.4363  0.2298 -0.6377
 5652TIP3    H138515   2.744   2.845   0.974 -0.2371  0.0538  0.0763
 5652TIP3    H238516   2.715   2.941   0.861  0.8773 -0.4827 -0.6768
 5653TIP3   OH238517   2.748   6.965   1.161  0.1343  0.8501  0.6451
 5653TIP3    H138518   2.822   6.990   1.215  0.5537 -0.6490  0.7714
 5653TIP3    H238519   2.679   7.029   1.184  0.5108  0.6324  2.4564
 5654TIP3   OH238520   7.299   3.452   1.211 -0.1936 -0.6656  0.3687
 5654TIP3    H138521   7.236   3.398   1.165 -2.0410  1.5826  0.1923
 5654TIP3    H238522   7.251   3.533   1.233  2.0931  0.3794  1.7534
 5655TIP3   OH238523   0.849   4.705   7.603 -0.2425 -0.2154  0.6444
 5655TIP3    H138524   0.803   4.654   7.670 -0.3695  0.4025  1.0403
 5655TIP3    H238525   0.940   4.709   7.634  0.3812 -2.5475 -0.8079
 5656TIP3   OH238526   3.472   5.163   1.444 -0.0527 -0.4942  0.0497
 5656TIP3    H138527   3.516   5.240   1.480 -0.4856 -0.1543 -0.1379
 5656TIP3    H238528   3.514   5.089   1.487  0.9027 -0.1928 -0.3552
 5657TIP3   OH238529   1.154   5.541   2.443  0.3386  0.3413  0.4810
 5657TIP3    H138530   1.160   5.632   2.414 -0.5768  0.0569 -0.6191
 5657TIP3    H238531   1.223   5.533   2.510  0.6953  1.7216  0.2972
 5658TIP3   OH238532   0.813   5.866   0.867  0.5883 -0.1553 -0.0833
 5658TIP3    H138533   0.828   5.773   0.853 -1.1788 -0.2659 -1.4868
 5658TIP3    H238534   0.719   5.877   0.853  0.4722  1.5541  1.7671
 5659TIP3   OH238535   3.824   6.607   0.186 -0.5435  0.1960  0.4666
 5659TIP3    H138536   3.809   6.701   0.188  0.7919  0.4535 -0.8604
 5659TIP3    H238537   3.736   6.569   0.179 -1.1457  1.2852  1.8689
 5660TIP3   OH238538   2.242   4.075   7.316  0.3910 -0.3297 -0.7188
 5660TIP3    H138539   2.333   4.099   7.301  0.9727 -2.2378 -0.3176
 5660TIP3    H238540   2.194   4.122   7.248  1.7419  0.1093 -1.3918
 5661TIP3   OH238541   1.793   5.362   1.508 -0.0677 -0.2333  0.1935
 5661TIP3    H138542   1.744   5.287   1.542  0.0500  0.3347  1.6934
 5661TIP3    H238543   1.739   5.438   1.530  1.0341  0.3213  1.0404
 5662TIP3   OH238544   1.126   5.019   8.298  0.4032 -0.2424 -0.5060
 5662TIP3    H138545   1.134   5.029   8.393  0.1490  0.0984 -0.5206
 5662TIP3    H238546   1.034   4.995   8.284 -0.0460  1.5607 -0.8140
 5663TIP3   OH238547   4.340   4.217   0.993 -0.8740  0.2843  0.0807
 5663TIP3    H138548   4.423   4.194   0.952 -1.1401  0.8708 -0.7943
 5663TIP3    H238549   4.357   4.210   1.087  0.4103  1.2611 -0.0641
 5664TIP3   OH238550   0.881   6.683   8.244 -0.1142  0.4645 -0.4025
 5664TIP3    H138551   0.805   6.644   8.287 -0.1177  0.7967 -0.1077
 5664TIP3    H238552   0.845   6.728   8.167 -0.2182  0.6272 -0.2590
 5665TIP3   OH238553   2.101   7.292   0.809  0.2879 -0.0613  0.1040
 5665TIP3    H138554   2.101   7.200   0.781  2.6676 -0.9727  2.9628
 5665TIP3    H238555   2.020   7.302   0.859  0.8237 -1.0834  1.1996
 5666TIP3   OH238556   3.326   3.813   0.223  0.1267  0.3868  0.0986
 5666TIP3    H138557   3.393   3.766   0.272  0.4020  0.6777  0.0025
 5666TIP3    H238558   3.295   3.881   0.283 -0.9545 -0.5247  0.5822
 5667TIP3   OH238559   1.543   1.106   1.388 -0.0134 -0.2013  0.4539
 5667TIP3    H138560   1.583   1.025   1.420  1.1365 -0.1398 -0.7915
 5667TIP3    H238561   1.616   1.166   1.374 -0.4405 -0.2434 -2.3323
 5668TIP3   OH238562   3.685   4.021   1.741 -0.1380 -0.4487  0.2786
 5668TIP3    H138563   3.664   3.929   1.753  1.4543 -0.7652  0.6794
 5668TIP3    H238564   3.715   4.050   1.827 -1.0746  0.5689  0.2751
 5669TIP3   OH238565   1.083   5.239   7.606  0.3883  0.4009 -0.0100
 5669TIP3    H138566   0.988   5.257   7.605  0.2519 -0.3396 -0.2494
 5669TIP3    H238567   1.111   5.268   7.693 -0.5198 -1.7360  1.0134
 5670TIP3   OH238568   1.030   4.928   1.097 -0.9425 -0.3324 -0.0807
 5670TIP3    H138569   0.979   4.849   1.111 -0.3605 -0.6917  0.0475
 5670TIP3    H238570   1.114   4.910   1.140 -1.0404  0.6063  0.5224
 5671TIP3   OH238571   1.691   5.166   0.310 -0.0560 -0.6008 -0.1073
 5671TIP3    H138572   1.709   5.147   0.218  0.6985 -0.7088  0.0576
 5671TIP3    H238573   1.774   5.149   0.354 -0.7679 -1.7920  0.7934
 5672TIP3   OH238574   4.009   5.654   2.088 -0.1594  0.0040  0.0169
 5672TIP3    H138575   4.026   5.581   2.028  3.5828  0.6750  0.1563
 5672TIP3    H238576   4.017   5.732   2.033 -1.0907  0.4609  0.5162
 5673TIP3   OH238577   1.448   4.432   2.406 -0.0148  0.5265 -0.1618
 5673TIP3    H138578   1.500   4.414   2.484  0.2773  1.2552 -0.1893
 5673TIP3    H238579   1.358   4.433   2.436  0.0832  0.5871  0.1264
 5674TIP3   OH238580   2.218   1.951   0.078 -0.0616  0.1210  0.0676
 5674TIP3    H138581   2.292   1.933   0.020 -0.0889 -1.7688  0.5883
 5674TIP3    H238582   2.151   1.887   0.052 -0.1272 -0.6508  2.0745
 5675TIP3   OH238583   3.122   3.659   2.532 -0.0025 -0.0718 -0.0015
 5675TIP3    H138584   3.132   3.637   2.440  0.8158  0.2151  0.0113
 5675TIP3    H238585   3.028   3.662   2.547 -0.1409 -1.5007 -0.4999
 5676TIP3   OH238586   2.484   5.454   8.414  0.1773 -0.0561  0.2315
 5676TIP3    H138587   2.552   5.394   8.446 -1.8182 -1.4550  1.9635
 5676TIP3    H238588   2.454   5.500   8.492  0.0825  1.5940 -0.7414
 5677TIP3   OH238589   3.216   4.048   1.853  0.0663  0.7529  0.0625
 5677TIP3    H138590   3.199   4.025   1.944  1.3989 -0.5068  0.0076
 5677TIP3    H238591   3.311   4.041   1.843  0.1876  2.9769 -0.8723
 5678TIP3   OH238592   3.350   6.205   1.592  0.1020  0.0010 -0.2683
 5678TIP3    H138593   3.395   6.194   1.509 -1.3081 -2.0301 -0.7865
 5678TIP3    H238594   3.313   6.293   1.588 -0.3585 -0.2620 -1.9830
 5679TIP3   OH238595   1.622   5.765   0.929 -0.2950  0.1116  0.2674
 5679TIP3    H138596   1.591   5.747   1.018  0.4006 -1.9853  0.1145
 5679TIP3    H238597   1.543   5.761   0.875 -0.5298  0.1420  0.6041
 5680TIP3   OH238598   1.248   6.071   0.434 -0.2996 -0.0112 -0.0794
 5680TIP3    H138599   1.322   6.068   0.494 -0.5216  1.9275  0.3087
 5680TIP3    H238600   1.282   6.038   0.351  0.0103 -2.7513  1.0726
 5681TIP3   OH238601   6.801   4.392   7.119  0.5439  0.1792 -0.1517
 5681TIP3    H138602   6.868   4.391   7.051  0.7503  1.3920  0.0090
 5681TIP3    H238603   6.729   4.444   7.082  0.3683  0.2595  0.2855
 5682TIP3   OH238604   2.431   1.950   8.366  0.4293 -0.1739 -0.3780
 5682TIP3    H138605   2.519   1.914   8.372  0.2537 -0.8040 -1.4041
 5682TIP3    H238606   2.442   2.045   8.370  1.0318 -0.3019  0.8656
 5683TIP3   OH238607   0.969   3.147   1.824 -0.0849  0.3229  0.1748
 5683TIP3    H138608   0.922   3.182   1.748  0.7368  0.5390 -0.2353
 5683TIP3    H238609   0.964   3.052   1.813 -0.5604  0.3438  0.2125
 5684TIP3   OH238610   3.399   7.155   8.184  0.0713  0.1950 -0.5345
 5684TIP3    H138611   3.392   7.142   8.279  2.3818 -1.8411 -0.5840
 5684TIP3    H238612   3.330   7.099   8.147  0.8611 -1.0760 -0.1292
 5685TIP3   OH238613   4.016   3.878   2.114  0.4185 -0.2014 -0.3861
 5685TIP3    H138614   4.101   3.848   2.082  0.6720  1.5187 -1.3956
 5685TIP3    H238615   4.034   3.913   2.202  0.1180 -2.9044  0.8002
 5686TIP3   OH238616   4.186   3.402   6.728 -0.4741 -0.0921 -0.4862
 5686TIP3    H138617   4.204   3.386   6.635  1.5740 -0.6916 -0.0105
 5686TIP3    H238618   4.145   3.488   6.730  0.3391  0.3358 -1.8597
 5687TIP3   OH238619   6.103   5.340   7.964 -0.1094  0.2137  0.2084
 5687TIP3    H138620   6.159   5.396   7.910 -0.7918  1.6444  0.9422
 5687TIP3    H238621   6.047   5.402   8.012 -0.3366 -1.0746  1.6452
 5688TIP3   OH238622   1.700   0.648   8.247 -0.9264  0.1354  0.4158
 5688TIP3    H138623   1.688   0.737   8.215  0.9226  0.3219  0.2051
 5688TIP3    H238624   1.646   0.644   8.326 -0.7453  1.5704  0.6311
 5689TIP3   OH238625   2.889   6.097   0.861  0.4822  0.2410  0.2270
 5689TIP3    H138626   2.965   6.046   0.832 -0.7353 -1.2164 -0.4771
 5689TIP3    H238627   2.837   6.035   0.913 -0.6361  0.9936  0.0199
 5690TIP3   OH238628   1.387   3.945   8.204  1.0030  0.2200 -0.2747
 5690TIP3    H138629   1.373   3.993   8.286  1.5915  0.2480 -0.1941
 5690TIP3    H238630   1.299   3.913   8.181  0.6518  1.1209 -0.2030
 5691TIP3   OH238631   5.216   5.649   2.296 -0.6430 -0.3222 -0.3558
 5691TIP3    H138632   5.249   5.560   2.287 -0.1798  0.0947 -3.4928
 5691TIP3    H238633   5.294   5.704   2.285 -1.0959  0.5040  0.4886
 5692TIP3   OH238634   6.638   5.109   8.271 -0.3590  0.0491  0.4858
 5692TIP3    H138635   6.658   5.026   8.228  0.2993  1.3350 -1.8348
 5692TIP3    H238636   6.568   5.147   8.218 -0.1531  1.2872  1.0828
 5693TIP3   OH238637   1.788   4.254   8.360  0.6725  1.0277 -0.2983
 5693TIP3    H138638   1.833   4.185   8.409 -2.1666 -0.2003  0.6464
 5693TIP3    H238639   1.713   4.210   8.320  1.1368  2.7055 -3.1478
 5694TIP3   OH238640   1.923   3.684   1.768 -0.4207 -0.1715 -0.5242
 5694TIP3    H138641   1.832   3.682   1.738 -1.0574  0.4351  1.3032
 5694TIP3    H238642   1.968   3.620   1.712 -2.7551 -3.3730  1.0935
 5695TIP3   OH238643   0.311   6.971   0.334  0.3472 -0.7414  0.0619
 5695TIP3    H138644   0.310   6.918   0.414 -0.3868  1.6276  1.7087
 5695TIP3    H238645   0.310   7.061   0.366 -1.1835  0.2605 -2.6466
 5696TIP3   OH238646   6.101   4.205   1.644  0.2436 -0.2080  0.0539
 5696TIP3    H138647   6.082   4.234   1.734 -1.3462 -0.2921 -0.2305
 5696TIP3    H238648   6.157   4.274   1.608 -1.6326  1.4132  0.1334
 5697TIP3   OH238649   7.145   5.047   0.038 -0.0453  0.4782 -0.0933
 5697TIP3    H138650   7.181   4.989   0.105  1.0601  0.5771 -0.5894
 5697TIP3    H238651   7.078   5.098   0.084  0.1597  0.0005  0.7437
 5698TIP3   OH238652   3.090   5.245   8.346  0.6346  0.5844  0.4416
 5698TIP3    H138653   2.996   5.243   8.327  0.6395  0.2797  0.4378
 5698TIP3    H238654   3.098   5.205   8.432  0.8251  0.0226  0.1654
 5699TIP3   OH238655   2.354   4.606   2.538  0.1767 -0.5275  0.0737
 5699TIP3    H138656   2.426   4.620   2.599  1.8458  1.0811 -2.1989
 5699TIP3    H238657   2.386   4.539   2.478 -0.2568  0.1497 -0.9203
 5700TIP3   OH238658   3.160   3.426   2.193 -0.0948 -0.3145  0.0983
 5700TIP3    H138659   3.154   3.514   2.229 -0.9982 -0.9828  1.6514
 5700TIP3    H238660   3.253   3.411   2.180 -0.0252  1.3660 -1.4627
 5701TIP3   OH238661   3.698   3.528   1.893 -0.1713 -0.0436 -0.1972
 5701TIP3    H138662   3.653   3.591   1.949 -0.6080 -1.6201  1.2657
 5701TIP3    H238663   3.789   3.532   1.921 -0.0807  0.3679 -0.5360
 5702TIP3   OH238664   1.595   1.735   0.414 -0.2841  0.4829 -0.1752
 5702TIP3    H138665   1.571   1.717   0.505  0.3971 -2.0602 -0.4707
 5702TIP3    H238666   1.688   1.757   0.418 -0.0930 -0.2782 -0.3197
 5703TIP3   OH238667   6.067   3.037   1.697  0.5898 -0.5883 -0.6721
 5703TIP3    H138668   6.135   2.996   1.644  0.6761 -1.5534  0.1777
 5703TIP3    H238669   5.988   3.030   1.645  0.3142 -3.0993  0.0494
 5704TIP3   OH238670   0.740   5.966   6.986  0.4443 -0.2755  0.0963
 5704TIP3    H138671   0.802   6.011   6.930  0.5329 -0.5492 -0.0251
 5704TIP3    H238672   0.748   6.010   7.071  0.2825  0.1596 -0.1133
 5705TIP3   OH238673   5.243   4.269   1.340  0.5384  0.0140 -0.6553
 5705TIP3    H138674   5.297   4.305   1.410  0.1764  0.1173 -0.4252
 5705TIP3    H238675   5.208   4.187   1.376 -0.5483  0.6277 -0.2978
 5706TIP3   OH238676   3.579   2.032   6.394  0.5260 -0.3359 -0.0215
 5706TIP3    H138677   3.625   2.114   6.373  2.8720 -1.6898 -0.3475
 5706TIP3    H238678   3.555   1.996   6.309 -2.1251  0.8641  0.1770
 5707TIP3   OH238679   2.772   2.708   1.900 -0.2672  0.3315  0.4059
 5707TIP3    H138680   2.773   2.713   1.804 -2.0690 -0.4857  0.3293
 5707TIP3    H238681   2.683   2.734   1.924 -0.5148 -1.6883  1.7258
 5708TIP3   OH238682   4.573   0.324   7.033 -0.3915  0.4931  0.1589
 5708TIP3    H138683   4.630   0.311   7.108  0.4919  0.3263 -0.5320
 5708TIP3    H238684   4.563   0.420   7.027  1.6676  0.6620 -1.0665
 5709TIP3   OH238685   3.306   2.121   6.607  0.4674  0.4177  1.3654
 5709TIP3    H138686   3.274   2.114   6.517  1.0613 -1.0700  1.2628
 5709TIP3    H238687   3.235   2.086   6.660  0.2646  0.9573  1.4521
 5710TIP3   OH238688   2.124   5.585   2.080 -0.3822 -0.0258  0.2149
 5710TIP3    H138689   2.081   5.623   2.156  2.1046  0.2534  1.5494
 5710TIP3    H238690   2.082   5.500   2.068 -0.8564 -0.0387  1.8628
 5711TIP3   OH238691   1.737   3.847   1.570  0.3173 -0.5792  0.5319
 5711TIP3    H138692   1.789   3.877   1.496  1.7134 -1.3917  1.1538
 5711TIP3    H238693   1.717   3.926   1.620 -1.0739  0.0358 -0.9678
 5712TIP3   OH238694   6.209   5.667   1.126  0.0334 -0.2069  0.7132
 5712TIP3    H138695   6.187   5.576   1.146  1.0953 -0.6500 -0.0745
 5712TIP3    H238696   6.285   5.661   1.069 -1.4237  1.0947 -1.4404
 5713TIP3   OH238697   3.379   3.609   0.914  0.5338  0.1680 -0.8254
 5713TIP3    H138698   3.422   3.555   0.980 -0.7113 -2.3590 -1.9852
 5713TIP3    H238699   3.321   3.667   0.964  0.0720 -1.2811  0.3633
 5714TIP3   OH238700   0.604   4.162   1.412 -0.2590  0.5070 -0.3234
 5714TIP3    H138701   0.692   4.123   1.413 -0.1067  0.8178  2.1851
 5714TIP3    H238702   0.612   4.241   1.466 -2.2320  0.2111  0.4411
 5715TIP3   OH238703   4.549   6.220   1.022  0.2546 -0.8111 -0.5126
 5715TIP3    H138704   4.550   6.128   0.996  0.0672 -0.9233 -0.1328
 5715TIP3    H238705   4.538   6.269   0.940 -1.0635 -1.1853 -0.5648
 5716TIP3   OH238706   3.503   7.101   0.610 -0.5410 -0.0886 -0.3237
 5716TIP3    H138707   3.563   7.028   0.599  1.8735  1.3028  2.9326
 5716TIP3    H238708   3.547   7.175   0.567 -0.0429  0.8452  1.7393
 5717TIP3   OH238709   1.469   5.064   0.436 -0.5057  0.7692 -0.2474
 5717TIP3    H138710   1.552   5.099   0.404  2.9793 -3.1863  3.7319
 5717TIP3    H238711   1.462   4.978   0.394 -2.0648  0.5858  0.3463
 5718TIP3   OH238712   3.035   3.925   7.272 -0.0112 -0.1152 -0.4611
 5718TIP3    H138713   2.956   3.964   7.235  0.5691 -0.2909 -1.9253
 5718TIP3    H238714   3.021   3.830   7.265  1.1007 -0.1487 -2.4454
 5719TIP3   OH238715   2.160   5.987   1.516  0.0788 -0.3128  0.1739
 5719TIP3    H138716   2.188   6.049   1.583  1.3276 -1.3535  0.6325
 5719TIP3    H238717   2.133   6.042   1.442  1.4287  0.7626  0.4619
 5720TIP3   OH238718   1.595   0.562   6.223  0.1603 -0.1248 -0.0685
 5720TIP3    H138719   1.511   0.524   6.248  0.9524 -1.0418  1.3144
 5720TIP3    H238720   1.573   0.636   6.167 -1.6665  1.3796  2.5475
 5721TIP3   OH238721   2.345   4.746   1.643 -0.5436 -0.5566  0.1373
 5721TIP3    H138722   2.347   4.651   1.654 -0.4985 -0.4175  1.3282
 5721TIP3    H238723   2.388   4.760   1.558  0.6327 -1.5084  0.5507
 5722TIP3   OH238724   1.271   6.306   1.957 -0.1881 -0.4685 -0.1932
 5722TIP3    H138725   1.331   6.380   1.971  0.6210 -1.0194 -0.7116
 5722TIP3    H238726   1.226   6.296   2.041  1.1789 -0.6780  0.5390
 5723TIP3   OH238727   4.179   4.276   2.109 -0.0557  0.8771 -0.2411
 5723TIP3    H138728   4.173   4.335   2.184 -0.7936 -1.0008  1.2145
 5723TIP3    H238729   4.089   4.267   2.078  0.1299  0.9708 -0.8079
 5724TIP3   OH238730   2.122   4.786   7.951 -0.0016  0.1582  0.4309
 5724TIP3    H138731   2.105   4.709   8.005 -0.3868 -0.3949 -0.4629
 5724TIP3    H238732   2.108   4.860   8.009  1.5682 -0.4691  1.6405
 5725TIP3   OH238733   5.220   5.354   8.230  0.6571 -0.2724 -0.0695
 5725TIP3    H138734   5.201   5.362   8.323  2.7716  0.7278  0.2932
 5725TIP3    H238735   5.314   5.369   8.223  0.6143 -0.8699 -2.3042
 5726TIP3   OH238736   0.380   3.758   1.456 -0.7844 -0.0156 -0.3871
 5726TIP3    H138737   0.424   3.814   1.392 -1.4082 -0.4499 -1.2062
 5726TIP3    H238738   0.399   3.669   1.426  0.6093 -0.2632  1.1747
 5727TIP3   OH238739   2.613   6.562   1.571 -0.1580  0.2643 -0.3765
 5727TIP3    H138740   2.530   6.514   1.562  0.4160 -0.9551  0.6031
 5727TIP3    H238741   2.629   6.563   1.666  0.7090  0.8995 -0.5284
 5728TIP3   OH238742   4.842   6.361   0.219 -0.0815  0.3882  0.4223
 5728TIP3    H138743   4.826   6.313   0.300 -0.1651 -1.0493 -0.4398
 5728TIP3    H238744   4.912   6.313   0.175  0.9150  1.9347  0.2647
 5729TIP3   OH238745   1.261   0.668   6.477 -0.2720 -0.1903 -0.4359
 5729TIP3    H138746   1.239   0.746   6.527  0.2207 -1.3514  1.6227
 5729TIP3    H238747   1.259   0.698   6.386 -0.3244  2.1595  0.2884
 5730TIP3   OH238748   2.566   5.666   7.913  0.1629 -0.2865  0.4010
 5730TIP3    H138749   2.573   5.618   7.830 -0.7954  1.4844 -0.7611
 5730TIP3    H238750   2.584   5.601   7.980 -0.8334 -2.2014 -1.1173
 5731TIP3   OH238751   0.728   5.704   1.728  0.1571 -0.1349  0.0032
 5731TIP3    H138752   0.692   5.681   1.642  0.4590 -0.3720 -0.0619
 5731TIP3    H238753   0.818   5.669   1.726 -0.1236 -0.9094  0.7436
 5732TIP3   OH238754   0.243   2.282   7.203  0.4119  0.6304  0.7580
 5732TIP3    H138755   0.164   2.229   7.200  2.5333 -2.6096 -1.3790
 5732TIP3    H238756   0.304   2.232   7.257  2.7151  0.4167 -1.9034
 5733TIP3   OH238757   0.719   3.552   0.898 -0.4487 -0.3400 -0.2978
 5733TIP3    H138758   0.670   3.619   0.946  0.5099 -1.0853  1.7405
 5733TIP3    H238759   0.774   3.602   0.837 -1.4073  0.6225 -0.3850
 5734TIP3   OH238760   4.402   6.931   1.892  0.3114  0.2004 -0.1820
 5734TIP3    H138761   4.381   6.986   1.967  0.0293 -0.3286  0.1331
 5734TIP3    H238762   4.433   6.848   1.931 -1.2957 -0.6287 -0.6277
 5735TIP3   OH238763   2.179   0.044   0.535  0.4619  0.1008  0.4789
 5735TIP3    H138764   2.249  -0.021   0.527  0.5289  0.1235  0.8708
 5735TIP3    H238765   2.167   0.056   0.630  0.3325  0.5307  0.4118
 5736TIP3   OH238766   1.117   2.120   0.228 -0.0844  0.4173  0.2229
 5736TIP3    H138767   1.162   2.144   0.147 -1.7382  1.2266 -0.4711
 5736TIP3    H238768   1.187   2.094   0.288  1.0718 -1.5249 -1.8979
 5737TIP3   OH238769   0.950   5.336   8.451 -0.2716 -0.1451  0.0849
 5737TIP3    H138770   0.983   5.252   8.419 -2.2293 -1.2210  0.8221
 5737TIP3    H238771   0.997   5.401   8.399 -0.3218 -1.7468 -2.0490
 5738TIP3   OH238772   0.179   1.661   7.731  0.2837 -0.0643 -0.2127
 5738TIP3    H138773   0.268   1.638   7.758  0.6277 -1.4894 -2.4572
 5738TIP3    H238774   0.137   1.578   7.712 -0.7109  0.7525 -1.6509
 5739TIP3   OH238775   4.838   1.533   1.401  0.3974 -0.0179 -0.0756
 5739TIP3    H138776   4.891   1.601   1.359  0.2337 -0.0085 -0.2641
 5739TIP3    H238777   4.882   1.518   1.485 -0.6716  1.6819  0.8121
 5740TIP3   OH238778   6.890   5.616   1.179 -0.0251  0.4868 -0.1765
 5740TIP3    H138779   6.839   5.691   1.148  0.3414  1.0297  0.5137
 5740TIP3    H238780   6.850   5.594   1.263 -0.3289 -0.2937 -0.5220
 5741TIP3   OH238781   0.931   4.666   8.194  0.5609 -0.1680 -0.5508
 5741TIP3    H138782   1.000   4.624   8.247 -0.4258  1.8665  2.4908
 5741TIP3    H238783   0.973   4.743   8.157 -0.3235  1.8789  2.4768
 5742TIP3   OH238784   0.725   5.809   7.509 -0.4604 -0.4649  0.0078
 5742TIP3    H138785   0.750   5.898   7.484 -1.5084  0.0216  0.6485
 5742TIP3    H238786   0.735   5.757   7.429  1.3563 -0.0307 -0.0546
 5743TIP3   OH238787   7.082   0.521   0.958  0.0892 -0.2685  0.3410
 5743TIP3    H138788   7.167   0.516   1.001 -1.4225  0.2958  3.5076
 5743TIP3    H238789   7.035   0.589   1.006 -1.9643 -0.1511 -1.7407
 5744TIP3   OH238790   4.014   2.260   1.590  0.3077 -0.5508  0.4626
 5744TIP3    H138791   3.968   2.238   1.672  0.7549 -0.0428  0.8583
 5744TIP3    H238792   4.095   2.301   1.619  0.0079  0.5678 -0.2449
 5745TIP3   OH238793   2.112   5.320   1.847  0.0181 -0.3370 -0.2633
 5745TIP3    H138794   2.182   5.271   1.890  2.1309  3.1583  0.4400
 5745TIP3    H238795   2.048   5.337   1.916  1.1846  1.2533  0.4589
 5746TIP3   OH238796   4.259   4.842   1.994 -0.6056  0.4757 -0.2048
 5746TIP3    H138797   4.191   4.784   2.029 -0.4530  1.5125  1.8594
 5746TIP3    H238798   4.212   4.920   1.964 -0.3950  0.9220  0.6228
 5747TIP3   OH238799   3.197   5.019   0.635 -0.7143 -0.6095  0.0008
 5747TIP3    H138800   3.278   5.011   0.585  0.6700  0.1449  2.0397
 5747TIP3    H238801   3.146   5.084   0.587  0.7289  0.3645 -0.2534
 5748TIP3   OH238802   2.567   4.523   7.808  0.2442 -0.0083 -0.1244
 5748TIP3    H138803   2.565   4.563   7.895  2.3295 -0.2342  0.0511
 5748TIP3    H238804   2.480   4.484   7.798 -0.3252  0.7947  1.4830
 5749TIP3   OH238805   6.189   3.804   1.905  0.8827 -0.0647  0.2783
 5749TIP3    H138806   6.093   3.801   1.905  0.9220 -2.2390  0.3608
 5749TIP3    H238807   6.213   3.829   1.994  0.3946  0.1837  0.3393
 5750TIP3   OH238808   3.521   4.717   1.402  0.1516  0.5523  0.4388
 5750TIP3    H138809   3.600   4.759   1.438  1.3351  0.3343 -1.8371
 5750TIP3    H238810   3.550   4.628   1.380 -0.7928  0.4166 -0.2507
 5751TIP3   OH238811   0.346   1.245   0.014 -0.0765 -0.1788 -0.2902
 5751TIP3    H138812   0.377   1.284  -0.068 -0.3937 -0.2139 -0.4318
 5751TIP3    H238813   0.400   1.283   0.082 -1.3424  1.6212 -0.2660
 5752TIP3   OH238814   4.164   5.708   7.022 -0.1474  0.3882 -1.0773
 5752TIP3    H138815   4.148   5.754   6.939  0.1594 -1.3010 -2.0981
 5752TIP3    H238816   4.258   5.690   7.022 -0.1825  0.1945 -0.4615
 5753TIP3   OH238817   2.924   3.900   0.862  0.3438  0.3845 -0.0930
 5753TIP3    H138818   2.963   3.987   0.867  2.0693 -0.3177 -1.0625
 5753TIP3    H238819   2.871   3.903   0.782 -0.0457  0.6966  0.1689
 5754TIP3   OH238820   5.183   6.685   1.591  0.1502 -0.4033 -0.5862
 5754TIP3    H138821   5.092   6.705   1.613 -0.1049 -1.6964 -0.4292
 5754TIP3    H238822   5.215   6.631   1.663  1.1547  0.3445 -0.4644
 5755TIP3   OH238823   6.246   5.625   0.248 -0.1873 -0.0631  0.5339
 5755TIP3    H138824   6.313   5.565   0.280 -0.8352  0.6896  3.5586
 5755TIP3    H238825   6.260   5.630   0.154  2.4855 -1.7341  0.7917
 5756TIP3   OH238826   5.045   2.850   1.666 -0.5184  0.5194 -1.0546
 5756TIP3    H138827   5.072   2.897   1.745 -0.8438 -1.3226  0.1863
 5756TIP3    H238828   4.962   2.890   1.641 -1.0609  0.2519  0.3002
 5757TIP3   OH238829   5.879   5.458   8.128  0.4740 -0.4754 -0.3685
 5757TIP3    H138830   5.864   5.552   8.130  0.7273 -0.4453  0.0319
 5757TIP3    H238831   5.796   5.421   8.097  0.6002 -0.0701 -1.2128
 5758TIP3   OH238832   3.321   1.309   1.521  0.2111 -0.3687  0.1341
 5758TIP3    H138833   3.380   1.359   1.576 -0.1654 -0.2665  0.4453
 5758TIP3    H238834   3.300   1.231   1.572  0.7382 -0.8181 -0.3169
 5759TIP3   OH238835   2.007   6.645   7.833 -0.9112  0.3779 -0.1309
 5759TIP3    H138836   1.945   6.571   7.828 -0.3842 -0.0547 -0.3843
 5759TIP3    H238837   1.974   6.700   7.904 -1.7522  0.3013 -0.4578
 5760TIP3   OH238838   0.134   3.511   0.630  0.2280 -0.7870 -0.3513
 5760TIP3    H138839   0.078   3.453   0.580 -1.2455  0.7719 -0.5471
 5760TIP3    H238840   0.160   3.579   0.567 -2.6782  1.9113  1.2260
 5761TIP3   OH238841   1.690   0.381   0.498  0.2720  0.4670  0.1350
 5761TIP3    H138842   1.773   0.404   0.456 -0.4408 -0.6404 -1.9142
 5761TIP3    H238843   1.690   0.433   0.579  1.2384  3.4019 -1.6692
 5762TIP3   OH238844   2.646   6.414   8.064  0.4496  0.3370 -0.0474
 5762TIP3    H138845   2.723   6.414   8.007 -0.0742  1.7093 -0.8020
 5762TIP3    H238846   2.625   6.322   8.077  0.6433 -0.0229 -2.0308
 5763TIP3   OH238847   2.499   4.437   1.825  0.1547  0.4540 -0.1080
 5763TIP3    H138848   2.556   4.514   1.835 -3.5246  3.1095  1.6724
 5763TIP3    H238849   2.496   4.398   1.913 -0.8105  0.3521 -0.1879
 5764TIP3   OH238850   5.550   6.719   1.389  0.6827 -0.1266 -0.2870
 5764TIP3    H138851   5.501   6.761   1.460 -0.0113 -1.0459 -0.2111
 5764TIP3    H238852   5.641   6.744   1.404  0.1010  2.6232 -1.1372
 5765TIP3   OH238853   6.461   4.087   1.558 -0.7568  0.2481 -0.1177
 5765TIP3    H138854   6.388   4.036   1.592 -0.3209 -0.1528  0.2343
 5765TIP3    H238855   6.435   4.111   1.470 -1.0571 -0.4035 -0.2067
 5766TIP3   OH238856   6.421   6.392   1.087  0.5378  0.1027 -0.5361
 5766TIP3    H138857   6.414   6.296   1.091  0.5776  0.0339 -1.9031
 5766TIP3    H238858   6.414   6.420   1.179 -1.7120 -1.0502 -0.3212
 5767TIP3   OH238859   6.958   4.487   2.055 -0.1471  0.4686 -0.1767
 5767TIP3    H138860   6.863   4.493   2.051 -0.2223 -0.7986 -0.3878
 5767TIP3    H238861   6.982   4.536   2.133 -0.8586  1.9828 -0.8824
 5768TIP3   OH238862   3.935   5.114   0.808 -0.5704 -0.3237 -0.0601
 5768TIP3    H138863   3.845   5.102   0.839  0.4364 -1.1094  2.6872
 5768TIP3    H238864   3.988   5.062   0.868  1.5674 -1.4090 -2.7950
 5769TIP3   OH238865   5.987   5.932   0.466  0.4215  0.9325 -0.5654
 5769TIP3    H138866   5.991   6.012   0.414  0.5571  1.2109 -0.1376
 5769TIP3    H238867   5.904   5.891   0.442  1.3607  0.0774 -2.4039
 5770TIP3   OH238868   4.735   5.298   0.875 -0.2171 -0.1906 -0.1443
 5770TIP3    H138869   4.791   5.225   0.901  2.6091  1.5809 -0.9461
 5770TIP3    H238870   4.646   5.267   0.890  1.0081 -2.3685  3.2033
 5771TIP3   OH238871   0.951   0.584   8.433 -0.0721  0.1987 -0.0320
 5771TIP3    H138872   0.857   0.601   8.447  0.2816  1.3169  1.0384
 5771TIP3    H238873   0.955   0.490   8.416 -0.9331 -0.7376  4.2684
 5772TIP3   OH238874   5.012   0.073   7.034  0.0398  0.1379 -0.1341
 5772TIP3    H138875   4.997   0.167   7.039 -0.1968 -0.0108  2.8034
 5772TIP3    H238876   5.107   0.063   7.030  0.0449  0.4886 -1.1053
 5773TIP3   OH238877   5.460   5.619   1.799 -0.0028 -0.0684  0.2427
 5773TIP3    H138878   5.518   5.668   1.740  1.7237 -0.8462  1.2620
 5773TIP3    H238879   5.392   5.584   1.742  0.4899  0.9105 -0.9737
 5774TIP3   OH238880   5.502   7.093   8.384  0.3929 -0.1905 -0.2600
 5774TIP3    H138881   5.421   7.121   8.342 -0.1670 -1.3071  0.0816
 5774TIP3    H238882   5.537   7.024   8.328 -0.7441 -2.2206  1.4582
 5775TIP3   OH238883   6.195   6.167   0.878  0.6366  0.2803  0.1628
 5775TIP3    H138884   6.288   6.186   0.863  0.8706 -0.2362  0.9303
 5775TIP3    H238885   6.176   6.093   0.820 -0.0080  2.1027 -2.0421
 5776TIP3   OH238886   4.914   6.192   1.228  0.1573 -0.4757 -0.5571
 5776TIP3    H138887   4.963   6.144   1.161 -0.9450 -0.4939 -1.3622
 5776TIP3    H238888   4.836   6.138   1.244 -1.7441  1.6427 -2.3924
 5777TIP3   OH238889   3.340   6.614   0.725 -0.1553  0.1900 -0.3754
 5777TIP3    H138890   3.384   6.533   0.751 -0.6549  0.0466  0.0374
 5777TIP3    H238891   3.324   6.604   0.631  1.4958  0.6304 -0.7224
 5778TIP3   OH238892   4.770   5.229   2.221  0.0007 -0.2499 -0.6384
 5778TIP3    H138893   4.809   5.315   2.228 -3.0352  1.1365  0.2386
 5778TIP3    H238894   4.693   5.233   2.279 -1.1131 -2.9761 -1.8467
 5779TIP3   OH238895   6.538   3.942   1.203  0.1654  0.4176 -0.3136
 5779TIP3    H138896   6.551   3.853   1.236  0.7112  0.8845  0.7409
 5779TIP3    H238897   6.626   3.978   1.196  0.0514  0.4477 -1.9966
 5780TIP3   OH238898   5.439   5.813   2.170 -0.0273 -0.5969 -0.1150
 5780TIP3    H138899   5.396   5.898   2.166  0.8704 -0.2449 -2.5138
 5780TIP3    H238900   5.532   5.833   2.176  0.2138 -1.4074 -1.0801
 5781TIP3   OH238901   6.029   6.216   2.067 -0.1841  0.2004 -0.4455
 5781TIP3    H138902   6.000   6.142   2.120  1.1454 -0.3926 -0.5169
 5781TIP3    H238903   6.103   6.252   2.115  0.1183  0.5607 -1.1711
 5782TIP3   OH238904   4.371   5.074   2.081  0.3574 -0.1341  0.2630
 5782TIP3    H138905   4.356   4.986   2.047  0.2902 -0.0323  0.0323
 5782TIP3    H238906   4.284   5.115   2.082  0.5584  0.3093 -0.6674
 5783TIP3   OH238907   0.325   4.875   0.997  0.3865  0.2378 -0.3242
 5783TIP3    H138908   0.404   4.834   0.960 -0.1084 -3.6644  2.6527
 5783TIP3    H238909   0.354   4.962   1.025  3.7099 -1.1562  0.7999
 5784TIP3   OH238910   3.259   3.887   1.177 -0.0644  0.4921  0.8261
 5784TIP3    H138911   3.255   3.978   1.147  0.7325  0.3877  0.3770
 5784TIP3    H238912   3.223   3.837   1.103  0.5601  0.3542  0.6094
 5785TIP3   OH238913   0.018   5.744   8.000  0.1288 -0.0789 -0.5004
 5785TIP3    H138914   0.041   5.828   7.962  0.2928 -0.2891 -0.8636
 5785TIP3    H238915  -0.045   5.706   7.939 -0.5185  0.1004  0.0350
 5786TIP3   OH238916   6.627   5.893   0.936 -0.0637  0.0926 -0.8074
 5786TIP3    H138917   6.685   5.880   0.861  1.6996  2.2368  0.1163
 5786TIP3    H238918   6.623   5.988   0.946 -0.4493 -0.1587  1.6679
 5787TIP3   OH238919   3.649   2.288   7.558 -0.5086 -0.0699 -0.7135
 5787TIP3    H138920   3.692   2.316   7.639 -1.3440 -1.3743  0.2002
 5787TIP3    H238921   3.652   2.365   7.501 -0.7910  1.1775  0.9216
 5788TIP3   OH238922   7.066   0.457   1.765 -0.3260 -0.1695  0.0288
 5788TIP3    H138923   7.067   0.427   1.675  0.8603 -0.6325  0.1823
 5788TIP3    H238924   7.126   0.397   1.811 -1.1207 -0.1098  1.1670
 5789TIP3   OH238925   3.687   3.999   1.019 -1.0065  0.1345  0.2217
 5789TIP3    H138926   3.666   4.058   1.091  0.1601 -1.3117  1.7914
 5789TIP3    H238927   3.782   4.002   1.012 -1.1828  1.4157 -2.3132
 5790TIP3   OH238928   1.892   5.466   0.495 -0.0800 -0.1625  0.5785
 5790TIP3    H138929   1.914   5.474   0.402  2.6370 -1.6378  1.0481
 5790TIP3    H238930   1.919   5.549   0.534  1.3734 -0.5970  0.5140
 5791TIP3   OH238931   2.315   6.593   7.113  0.0333 -0.7516  0.2241
 5791TIP3    H138932   2.252   6.532   7.151  1.3580 -2.7954 -0.7451
 5791TIP3    H238933   2.385   6.599   7.179 -0.0138 -0.4020  0.2444
 5792TIP3   OH238934   4.077   5.154   6.624 -0.0592 -0.1383 -0.2911
 5792TIP3    H138935   4.055   5.119   6.538 -1.6388  3.0842 -1.2516
 5792TIP3    H238936   4.041   5.090   6.686 -2.8586 -0.2236 -1.9601
 5793TIP3   OH238937   3.628   3.452   1.643 -0.4387  0.1328  0.4546
 5793TIP3    H138938   3.648   3.359   1.639 -1.0752  0.0346 -0.4749
 5793TIP3    H238939   3.674   3.483   1.721 -0.3774 -0.9935  0.8742
 5794TIP3   OH238940   6.279   3.246   1.470  0.3863 -0.0889  0.3730
 5794TIP3    H138941   6.257   3.329   1.512 -1.8482 -1.0581  1.1956
 5794TIP3    H238942   6.355   3.266   1.416 -0.2012  2.5200  0.4549
 5795TIP3   OH238943   3.447   5.549   0.703 -0.1114  0.0003 -0.1696
 5795TIP3    H138944   3.415   5.505   0.781  0.2058 -0.3408 -0.2336
 5795TIP3    H238945   3.375   5.607   0.677  0.2323  0.9881  1.0463
 5796TIP3   OH238946   6.417   5.778   0.663 -0.2440  0.0287  0.3517
 5796TIP3    H138947   6.365   5.707   0.625 -2.2879  1.3376  0.5849
 5796TIP3    H238948   6.358   5.854   0.660  1.3166  1.3102  1.5964
 5797TIP3   OH238949   5.086   2.390   2.070 -0.6616  0.3510  0.1696
 5797TIP3    H138950   5.079   2.476   2.029 -0.1957  0.6878  0.7984
 5797TIP3    H238951   5.070   2.328   1.998 -0.6912  0.9512 -0.3439
 5798TIP3   OH238952   1.926   5.365   8.264 -0.3514 -0.0370  0.5131
 5798TIP3    H138953   1.866   5.435   8.236  1.2415  0.3041 -2.1463
 5798TIP3    H238954   1.991   5.360   8.195  2.9296 -0.1826  3.4863
 5799TIP3   OH238955   0.641   6.201   0.335 -0.1359 -0.2710 -0.1307
 5799TIP3    H138956   0.656   6.293   0.354  0.9001 -0.3246 -0.6797
 5799TIP3    H238957   0.654   6.157   0.419  3.6854 -0.4184 -0.7064
 5800TIP3   OH238958   4.655   6.786   0.288  0.5513  0.1579 -0.0770
 5800TIP3    H138959   4.601   6.789   0.367  1.5120 -0.3739  0.6060
 5800TIP3    H238960   4.743   6.766   0.319  0.6307 -1.7315 -1.4257
 5801TIP3   OH238961   3.004   4.768   0.688  0.4289 -0.2472 -0.5373
 5801TIP3    H138962   3.081   4.717   0.714  1.7684  0.9389 -2.0877
 5801TIP3    H238963   3.010   4.848   0.740 -0.5769 -0.7798  0.4170
 5802TIP3   OH238964   6.982   5.704   7.994 -0.2713  0.2385  0.2424
 5802TIP3    H138965   6.894   5.666   7.985  0.3191 -0.8022 -1.4249
 5802TIP3    H238966   7.022   5.654   8.065 -1.5261  1.7235  2.0309
 5803TIP3   OH238967   4.253   6.604   1.909  0.2469  0.3245 -0.3272
 5803TIP3    H138968   4.247   6.509   1.922 -0.8700  0.1509 -2.0320
 5803TIP3    H238969   4.163   6.635   1.913  0.7654  1.6706  2.4996
 5804TIP3   OH238970   6.396   5.691   0.931 -0.1340 -0.3106 -0.3692
 5804TIP3    H138971   6.473   5.747   0.924  0.7277 -1.3771  0.4196
 5804TIP3    H238972   6.352   5.700   0.846 -0.4267  2.1023  0.0020
 5805TIP3   OH238973   2.854   3.719   2.475  0.1252  0.2105 -0.2004
 5805TIP3    H138974   2.908   3.782   2.427 -1.1003  0.4928 -1.2473
 5805TIP3    H238975   2.785   3.771   2.515 -0.6018 -0.3995 -0.6446
 5806TIP3   OH238976   4.113   5.242   2.047 -0.7003 -0.0261  0.4882
 5806TIP3    H138977   4.090   5.328   2.013  0.0065  0.6521  1.6819
 5806TIP3    H238978   4.087   5.245   2.139 -0.3381 -0.9662  0.6254
 5807TIP3   OH238979   4.873   5.444   1.098 -1.2624  0.4139  0.3687
 5807TIP3    H138980   4.808   5.407   1.040  1.1231 -2.7947 -0.4108
 5807TIP3    H238981   4.929   5.498   1.042  0.4689 -1.9157 -0.1997
 5808TIP3   OH238982   1.039   4.503   1.264 -0.2621  0.2725  0.1953
 5808TIP3    H138983   1.087   4.516   1.182  0.5744  2.2439  0.9717
 5808TIP3    H238984   1.096   4.446   1.317 -0.8633 -1.1127 -0.6081
 5809TIP3   OH238985   6.102   3.379   6.454  0.3005 -0.1602 -0.6011
 5809TIP3    H138986   6.171   3.390   6.388  1.0563 -0.1913  0.1730
 5809TIP3    H238987   6.107   3.287   6.480  0.4946  0.0231  0.0251
 5810TIP3   OH238988   4.594   2.281   1.741 -0.2497  0.0828  0.1115
 5810TIP3    H138989   4.625   2.349   1.681  1.2954 -0.1188  0.6509
 5810TIP3    H238990   4.526   2.323   1.793 -0.6257  0.6594 -0.8338
 5811TIP3   OH238991   6.547   3.887   1.801  0.6559 -0.1937  0.2192
 5811TIP3    H138992   6.518   3.932   1.721  1.3993  0.7084  0.4551
 5811TIP3    H238993   6.517   3.943   1.872  0.6117 -0.6420  0.5572
 5812TIP3   OH238994   0.397   5.717   8.049  0.5203 -0.7340 -0.3099
 5812TIP3    H138995   0.405   5.799   8.097 -0.8888 -0.1711 -0.9806
 5812TIP3    H238996   0.323   5.672   8.090 -0.8334 -0.1513 -2.0203
 5813TIP3   OH238997   5.331   6.222   7.406  0.4162 -0.2646  0.2532
 5813TIP3    H138998   5.350   6.262   7.491 -2.5123 -0.4190  1.0447
 5813TIP3    H238999   5.305   6.132   7.427 -0.7287 -0.1894 -0.7577
 5814TIP3   OH239000   6.030   6.384   0.958 -0.1809 -0.4068  0.0907
 5814TIP3    H139001   5.976   6.351   1.030  0.1602  0.2046  0.6378
 5814TIP3    H239002   6.099   6.319   0.948 -1.2159 -1.3698 -0.8467
 5815TIP3   OH239003   0.628   4.463   7.382  0.8357 -0.7649 -0.2188
 5815TIP3    H139004   0.693   4.530   7.364 -0.4436  0.9150  1.2090
 5815TIP3    H239005   0.651   4.431   7.470 -0.3826  0.0363  0.4137
 5816TIP3   OH239006   3.417   4.443   2.406 -0.0216  0.3827  0.8096
 5816TIP3    H139007   3.501   4.407   2.379  0.5003  0.8108  1.8225
 5816TIP3    H239008   3.403   4.406   2.494 -1.3973 -0.5359  0.2169
 5817TIP3   OH239009   4.233   2.870   1.686  0.0008 -0.6028 -0.1233
 5817TIP3    H139010   4.226   2.832   1.774 -0.5735  0.9320  0.4997
 5817TIP3    H239011   4.323   2.902   1.681  0.2742 -1.3849 -0.3984
 5818TIP3   OH239012   4.961   6.685   1.415  0.1116 -0.0034 -0.2986
 5818TIP3    H139013   5.034   6.624   1.426 -1.0237 -1.3087  0.2914
 5818TIP3    H239014   4.978   6.728   1.332  1.2651 -0.6965 -0.4365
 5819TIP3   OH239015   6.200   3.482   1.603 -0.0683 -0.0397 -0.7759
 5819TIP3    H139016   6.110   3.457   1.583 -1.2169  2.6323  0.7941
 5819TIP3    H239017   6.202   3.489   1.698  1.7503  0.1019 -0.8132
 5820TIP3   OH239018   4.389   5.225   6.803 -0.4439 -0.8512 -0.5369
 5820TIP3    H139019   4.434   5.179   6.732  0.9788 -1.4977  0.7548
 5820TIP3    H239020   4.457   5.237   6.870 -1.1487  1.9106 -0.2746
 5821TIP3   OH239021   3.083   5.967   0.706 -0.4351 -0.6244 -0.0711
 5821TIP3    H139022   3.138   6.044   0.695  1.0035 -1.4454  1.2341
 5821TIP3    H239023   3.016   5.975   0.637 -0.3235  1.7718  0.0712
 5822TIP3   OH239024   1.425   5.721   7.886 -0.4643 -0.4041 -0.1752
 5822TIP3    H139025   1.473   5.767   7.817 -0.6092 -0.3500 -0.2404
 5822TIP3    H239026   1.339   5.765   7.888 -0.7220 -0.8870 -0.4689
 5823TIP3   OH239027   3.622   4.878   8.097 -0.1398 -0.4905  0.6587
 5823TIP3    H139028   3.695   4.910   8.045  0.8823 -1.9493  1.1782
 5823TIP3    H239029   3.564   4.954   8.106  0.0670  0.0282 -1.8814
 5824TIP3   OH239030   2.984   4.090   8.488 -0.4881  0.4591 -0.0736
 5824TIP3    H139031   2.891   4.115   8.486 -0.6736 -0.2419 -0.5687
 5824TIP3    H239032   3.005   4.082   8.581 -0.7310  1.3365  0.0595
 5825TIP3   OH239033   2.060   4.627   0.750  0.2270  0.5606 -0.4076
 5825TIP3    H139034   2.117   4.648   0.676  0.5887  1.4467  0.1134
 5825TIP3    H239035   2.058   4.708   0.802 -0.8205  0.2620  0.0238
 5826TIP3   OH239036   5.571   5.760   1.596 -0.1291 -1.2288  0.2333
 5826TIP3    H139037   5.578   5.756   1.501 -0.4975 -1.2357  0.2072
 5826TIP3    H239038   5.651   5.805   1.624 -1.4590  1.5307 -0.2844
 5827TIP3   OH239039   1.513   3.512   7.202  0.0597  0.3409  0.8829
 5827TIP3    H139040   1.542   3.484   7.289  0.9439 -1.2386  0.0993
 5827TIP3    H239041   1.544   3.443   7.143 -1.5360  0.8042 -0.5410
 5828TIP3   OH239042   5.055   5.210   0.755 -0.2644  0.0332  0.6018
 5828TIP3    H139043   4.971   5.254   0.766 -0.5385 -0.7244  1.6175
 5828TIP3    H239044   5.117   5.264   0.804 -0.3026  0.1959  0.4677
 5829TIP3   OH239045   4.709   0.227   0.728 -0.1961  0.2673 -0.3745
 5829TIP3    H139046   4.689   0.136   0.707 -0.6709  0.4718 -0.8424
 5829TIP3    H239047   4.669   0.242   0.813  0.6513 -0.2154  0.1104
 5830TIP3   OH239048   4.646   6.931   8.031 -0.7453 -0.2452  0.7586
 5830TIP3    H139049   4.568   6.902   7.983 -0.0639 -0.9784  0.0721
 5830TIP3    H239050   4.691   6.990   7.971 -0.3401 -0.4836  0.8263
 5831TIP3   OH239051   6.016   0.111   0.576 -0.4796 -0.1146  0.1256
 5831TIP3    H139052   6.048   0.020   0.573 -1.6748 -0.4953 -1.7506
 5831TIP3    H239053   6.041   0.148   0.491  0.3089  1.4574  1.0105
 5832TIP3   OH239054   1.720   3.498   1.703 -0.3831 -0.2094 -0.5893
 5832TIP3    H139055   1.714   3.404   1.684 -0.0265 -0.0042 -1.7281
 5832TIP3    H239056   1.636   3.518   1.746 -0.3291 -1.1087 -0.0430
 5833TIP3   OH239057   3.437   4.166   1.578 -1.1069  0.0826 -0.4555
 5833TIP3    H139058   3.407   4.247   1.618  0.3954  0.6312 -0.4134
 5833TIP3    H239059   3.482   4.120   1.649 -3.0721 -1.4058 -0.1234
 5834TIP3   OH239060   3.825   4.370   6.903 -0.1667  0.2614 -0.6594
 5834TIP3    H139061   3.733   4.398   6.894 -0.6138 -0.6499  0.9849
 5834TIP3    H239062   3.840   4.366   6.997  0.8465 -1.9715 -0.8980
 5835TIP3   OH239063   5.039   4.862   6.702 -0.1292 -0.2254 -0.3780
 5835TIP3    H139064   5.102   4.864   6.630 -0.5992 -0.6537 -0.8092
 5835TIP3    H239065   5.075   4.797   6.763 -1.1658 -2.0044 -1.5963
 5836TIP3   OH239066   5.434   5.255   2.337 -0.0384  0.0479  0.2061
 5836TIP3    H139067   5.340   5.269   2.333  0.2322  1.7172 -0.6151
 5836TIP3    H239068   5.461   5.296   2.420  0.2257  1.2728 -0.4694
 5837TIP3   OH239069   5.431   6.792   1.635 -0.3950  0.5584 -0.1081
 5837TIP3    H139070   5.338   6.768   1.628 -1.0270  2.8966  0.0723
 5837TIP3    H239071   5.460   6.754   1.718 -0.7103 -1.6347 -0.9549
 5838TIP3   OH239072   2.483   6.327   0.706  0.0689 -0.2201 -0.2390
 5838TIP3    H139073   2.552   6.386   0.735  0.4094 -0.2637 -0.9535
 5838TIP3    H239074   2.530   6.249   0.675 -0.3266 -0.4738 -0.2037
 5839TIP3   OH239075   5.336   6.612   0.719  0.2906  0.8816  0.0077
 5839TIP3    H139076   5.394   6.603   0.794 -1.1751  0.6330  1.1381
 5839TIP3    H239077   5.258   6.656   0.754 -1.7185 -2.0410 -0.6456
 5840TIP3   OH239078   3.630   4.395   1.949  0.0986  0.4574  0.3784
 5840TIP3    H139079   3.664   4.479   1.919  0.9369  0.4115  1.1990
 5840TIP3    H239080   3.707   4.342   1.964 -0.4271 -0.4292 -0.0191
 5841TIP3   OH239081   3.775   6.081   0.472 -0.3061 -0.1533  0.4608
 5841TIP3    H139082   3.790   6.068   0.566  0.2165 -2.4747  0.0738
 5841TIP3    H239083   3.756   5.994   0.438 -0.2175  0.6228 -1.6464
 5842TIP3   OH239084   6.960   4.809   0.190 -0.4438  0.5875 -0.6137
 5842TIP3    H139085   6.974   4.890   0.141 -0.8832  0.2372 -1.3255
 5842TIP3    H239086   6.967   4.835   0.282  2.9404  0.8084 -0.8485
 5843TIP3   OH239087   4.908   6.301   1.550  0.3640  0.0119  0.4200
 5843TIP3    H139088   4.821   6.301   1.511  0.5601 -0.8811 -0.0369
 5843TIP3    H239089   4.968   6.309   1.476  0.6856 -0.0236  0.6748
 5844TIP3   OH239090   0.980   2.181   1.300 -0.5376  0.0439 -0.1038
 5844TIP3    H139091   0.927   2.104   1.278 -2.2120  1.1105  0.0850
 5844TIP3    H239092   1.035   2.194   1.223 -2.6248  0.6199 -1.5630
 5845TIP3   OH239093   5.922   0.009   1.919  0.2819 -0.1506 -0.2751
 5845TIP3    H139094   5.828   0.001   1.903  0.1107  1.0342  0.0309
 5845TIP3    H239095   5.946  -0.069   1.969 -0.3850 -0.8421 -1.0384
 5846TIP3   OH239096   7.206   6.166   7.741  0.6546  0.2904 -0.4339
 5846TIP3    H139097   7.139   6.233   7.751 -0.1484 -0.3857 -1.1815
 5846TIP3    H239098   7.213   6.153   7.646  1.1221 -0.3592 -0.3174
 5847TIP3   OH239099   5.687   6.602   2.293  0.5477  0.5417  0.2863
 5847TIP3    H139100   5.757   6.537   2.301  0.9454  1.0627  1.0434
 5847TIP3    H239101   5.730   6.679   2.256 -0.2614 -0.1715 -2.2217
 5848TIP3   OH239102   4.553   4.298   2.227  0.0812 -0.1407 -0.7964
 5848TIP3    H139103   4.620   4.231   2.222 -0.0678 -0.2169 -1.7542
 5848TIP3    H239104   4.481   4.256   2.275  0.5969 -0.1469 -0.0139
 5849TIP3   OH239105   3.711   4.114   1.480  0.7051  0.3269  0.1953
 5849TIP3    H139106   3.655   4.041   1.455 -0.6879  1.3831  0.1324
 5849TIP3    H239107   3.717   4.108   1.576  0.5701  0.1480  0.1915
 5850TIP3   OH239108   3.757   6.939   1.653  0.0319 -0.5771 -0.3151
 5850TIP3    H139109   3.692   6.893   1.601  0.3664  0.3670 -1.6122
 5850TIP3    H239110   3.834   6.943   1.596 -0.2762  2.3037 -0.6165
 5851TIP3   OH239111   0.629   6.484   7.917 -0.5881 -0.2366 -0.3658
 5851TIP3    H139112   0.688   6.409   7.918  0.0585  0.1930 -2.6226
 5851TIP3    H239113   0.543   6.448   7.895 -1.2668 -0.8983  3.1914
 5852TIP3   OH239114   4.903   4.413   2.179 -0.4687 -0.2382  0.2228
 5852TIP3    H139115   4.915   4.420   2.085 -0.8663 -1.2676  0.0865
 5852TIP3    H239116   4.870   4.499   2.206 -1.5171 -0.3180 -0.7646
 5853TIP3   OH239117   5.942   6.213   0.399 -0.5113  0.8880 -0.5169
 5853TIP3    H139118   5.881   6.267   0.449  0.7633  2.8276 -1.0052
 5853TIP3    H239119   5.986   6.274   0.340  2.7128 -0.2191  0.5900
 5854TIP3   OH239120   5.712   0.477   2.047 -0.3853 -0.5347  0.1744
 5854TIP3    H139121   5.785   0.442   1.995 -0.0372  0.8859 -0.2932
 5854TIP3    H239122   5.728   0.571   2.052 -3.1763  0.0854 -1.5436
 5855TIP3   OH239123   3.376   1.663   1.458 -0.2018 -0.0143  0.1721
 5855TIP3    H139124   3.414   1.672   1.371 -1.1622 -1.6804 -0.4621
 5855TIP3    H239125   3.451   1.667   1.517  0.8124 -1.5827 -0.9323
 5856TIP3   OH239126   0.502   3.294   1.440  0.1935  0.0914  0.4158
 5856TIP3    H139127   0.439   3.269   1.507  1.3130 -2.4446  0.5820
 5856TIP3    H239128   0.456   3.281   1.357 -0.7936  2.0802  0.6341
 5857TIP3   OH239129   4.992   1.445   6.610  0.0374  0.0856 -0.0079
 5857TIP3    H139130   5.069   1.499   6.629 -0.1624  0.5620 -0.5611
 5857TIP3    H239131   4.990   1.438   6.515 -1.8300  1.8857 -0.1324
 5858TIP3   OH239132   2.426   3.895   7.483  0.4069  0.4939 -0.2453
 5858TIP3    H139133   2.374   3.919   7.406  0.4302  0.6675 -0.2071
 5858TIP3    H239134   2.452   3.804   7.466  0.3472  0.5051 -0.4059
 5859TIP3   OH239135   2.941   7.020   0.885 -0.4781 -0.4423  0.4856
 5859TIP3    H139136   2.849   7.047   0.886 -0.3933 -0.0194 -0.9739
 5859TIP3    H239137   2.974   7.041   0.972 -2.0044 -1.4765  1.3364
 5860TIP3   OH239138   0.259   4.603   0.482 -0.4653  0.2382 -0.6035
 5860TIP3    H139139   0.311   4.596   0.562 -1.3266  2.6056  0.2099
 5860TIP3    H239140   0.322   4.587   0.412  0.4747 -1.0331  0.4923
 5861TIP3   OH239141   1.916   4.684   1.996  0.5173 -0.0310  0.1778
 5861TIP3    H139142   1.999   4.636   2.003 -0.1764 -1.3445 -0.4027
 5861TIP3    H239143   1.849   4.618   2.014 -0.4669  0.6444 -0.9722
 5862TIP3   OH239144   1.560   6.940   8.482  0.1883  0.5168 -0.2831
 5862TIP3    H139145   1.481   6.887   8.478  0.0023  0.7073  0.7383
 5862TIP3    H239146   1.547   6.997   8.558  1.4394  0.3206  0.0923
 5863TIP3   OH239147   5.612   5.448   1.474  0.1596  0.2155 -0.3587
 5863TIP3    H139148   5.554   5.390   1.523 -0.8619  2.8671  1.7213
 5863TIP3    H239149   5.607   5.532   1.521  3.2291  1.3917 -2.0049
 5864TIP3   OH239150   5.785   4.973   0.773  0.0628 -0.0016 -0.2392
 5864TIP3    H139151   5.748   5.010   0.853 -0.8887 -0.0724 -0.6343
 5864TIP3    H239152   5.791   5.047   0.713  0.9728  0.0916 -0.0368
 5865TIP3   OH239153   5.100   7.115   2.376  0.5035 -0.0437 -0.2911
 5865TIP3    H139154   5.036   7.184   2.359  0.9707  0.3182 -0.6029
 5865TIP3    H239155   5.185   7.157   2.360  0.9139  0.0031  1.8308
 5866TIP3   OH239156   3.663   4.508   1.120 -0.4598  0.5847 -0.5995
 5866TIP3    H139157   3.662   4.497   1.215  0.7008  1.1321 -0.5168
 5866TIP3    H239158   3.728   4.445   1.089 -1.5059 -0.2645 -1.1381
 5867TIP3   OH239159   4.173   4.475   7.067 -1.1509  0.5239 -0.0262
 5867TIP3    H139160   4.251   4.529   7.075 -1.1201  1.0738 -3.3231
 5867TIP3    H239161   4.202   4.386   7.085  0.3778  0.6744 -1.6094
 5868TIP3   OH239162   0.979   5.967   8.423 -0.4706 -0.1577  0.3694
 5868TIP3    H139163   1.050   6.017   8.465 -0.4772  0.7266 -0.6552
 5868TIP3    H239164   0.899   5.997   8.467 -0.3873  0.0822  0.3560
 5869TIP3   OH239165   1.678   2.237   6.671  0.0886  0.1386  0.3682
 5869TIP3    H139166   1.649   2.283   6.592  0.2235  1.9676  1.3496
 5869TIP3    H239167   1.716   2.305   6.726  0.7880 -1.2512  1.6556
 5870TIP3   OH239168   4.042   3.122   1.685 -0.3242  0.3988 -0.1097
 5870TIP3    H139169   4.137   3.124   1.696 -0.3487 -1.6010  0.6682
 5870TIP3    H239170   4.029   3.078   1.601 -0.5793 -0.1931  0.2381
 5871TIP3   OH239171   4.515   3.135   7.015  0.1325  0.9635  0.5051
 5871TIP3    H139172   4.589   3.194   7.001  1.7403 -0.3179  3.1983
 5871TIP3    H239173   4.471   3.170   7.092 -0.6971  0.3610  0.3092
 5872TIP3   OH239174   3.337   3.405   0.749  0.3672  0.3422 -0.0492
 5872TIP3    H139175   3.361   3.481   0.802  0.1852 -0.3775  1.1051
 5872TIP3    H239176   3.288   3.441   0.676  0.4463  1.3528  0.3864
 5873TIP3   OH239177   4.034   1.852   2.397 -0.1267  0.2429  0.0467
 5873TIP3    H139178   3.963   1.909   2.367 -2.4396  0.0114  4.5124
 5873TIP3    H239179   4.020   1.769   2.352 -2.5014  0.3557  0.5167
 5874TIP3   OH239180   2.135   0.616   6.774 -0.6252  0.2001  0.3201
 5874TIP3    H139181   2.100   0.535   6.736  1.6272 -0.4465 -0.5077
 5874TIP3    H239182   2.121   0.682   6.707  1.1737 -0.4280 -0.7421
 5875TIP3   OH239183   6.442   6.480   6.434  0.4422 -0.0967 -0.1517
 5875TIP3    H139184   6.534   6.471   6.411  0.6782 -2.3177  1.4982
 5875TIP3    H239185   6.395   6.427   6.369  0.5948 -1.3245  0.7191
 5876TIP3   OH239186   6.034   5.080   0.961  0.5972 -0.0898 -0.7753
 5876TIP3    H139187   5.951   5.054   0.921  0.6889  0.5963 -1.4172
 5876TIP3    H239188   6.044   5.021   1.036 -1.1878  0.7548  0.1671
 5877TIP3   OH239189   3.246   3.653   1.815  0.2569 -0.1932 -0.5634
 5877TIP3    H139190   3.263   3.582   1.754  0.1334 -0.7716  0.0656
 5877TIP3    H239191   3.301   3.633   1.891 -0.0361  0.1959 -0.2467
 5878TIP3   OH239192   4.045   5.840   7.292 -0.1787 -0.0538 -0.3560
 5878TIP3    H139193   4.094   5.901   7.237 -0.5169 -0.5721 -1.2372
 5878TIP3    H239194   4.099   5.761   7.296  0.2734  0.3002  0.8091
 5879TIP3   OH239195   4.541   4.423   1.983  0.0453  0.1575  0.0556
 5879TIP3    H139196   4.538   4.398   2.075 -1.5044  0.5405  0.1216
 5879TIP3    H239197   4.572   4.513   1.983  2.7339 -0.7185  0.0042
 5880TIP3   OH239198   2.198   2.159   1.344  0.3891  0.6917  0.0014
 5880TIP3    H139199   2.241   2.242   1.363 -0.7864  1.0806  1.0148
 5880TIP3    H239200   2.173   2.124   1.429  0.1465 -0.3167 -0.4689
 5881TIP3   OH239201   5.154   4.341   2.249 -0.3495  0.1840 -0.0097
 5881TIP3    H139202   5.065   4.370   2.232 -0.8429  0.4247  2.8413
 5881TIP3    H239203   5.152   4.246   2.234 -0.7078  0.4106 -1.4072
 5882TIP3   OH239204   5.308   4.767   0.822 -0.1783 -0.2923  0.1158
 5882TIP3    H139205   5.268   4.852   0.805  2.7770  0.9714 -0.6902
 5882TIP3    H239206   5.310   4.724   0.737 -0.0814 -0.4933  0.2191
 5883TIP3   OH239207   7.134   1.981   1.737 -0.1089  0.1495 -0.1313
 5883TIP3    H139208   7.130   2.015   1.827  1.1426  1.2268 -0.4600
 5883TIP3    H239209   7.049   2.003   1.699  0.3066  2.0290 -0.0106
 5884TIP3   OH239210   6.272   5.072   0.833 -0.3368 -0.3350 -0.1033
 5884TIP3    H139211   6.352   5.027   0.863 -0.0832 -1.8235 -2.8177
 5884TIP3    H239212   6.206   5.048   0.897  0.5284 -2.1753  0.1416
 5885TIP3   OH239213   5.245   5.384   1.190  0.1539  0.0061  0.3050
 5885TIP3    H139214   5.267   5.298   1.153 -0.2145 -0.0642  0.2466
 5885TIP3    H239215   5.251   5.444   1.116 -1.2153 -0.2371 -0.0207
 5886TIP3   OH239216   3.987   1.855   2.664 -0.4058 -0.0192 -0.0522
 5886TIP3    H139217   4.008   1.888   2.577  0.5370  3.3405  1.3765
 5886TIP3    H239218   3.905   1.899   2.687  0.5261  0.8633  1.6368
 5887TIP3   OH239219   2.643   3.374   0.945  0.3078  0.2242  0.3280
 5887TIP3    H139220   2.569   3.344   0.893 -0.7381  0.2065  1.7757
 5887TIP3    H239221   2.641   3.320   1.024  1.7802  0.3234  0.4547
 5888TIP3   OH239222   6.821   3.222   1.699  0.3134 -0.1440  0.0520
 5888TIP3    H139223   6.853   3.282   1.766 -1.8194  0.3927  0.6273
 5888TIP3    H239224   6.765   3.160   1.746  0.8309 -1.3197 -0.8498
 5889TIP3   OH239225   0.049   6.172   7.173  0.0323  0.1087 -0.0769
 5889TIP3    H139226   0.121   6.143   7.117 -1.2435 -2.4465 -0.4434
 5889TIP3    H239227  -0.014   6.209   7.112  0.0824  0.3610  0.0237
 5890TIP3   OH239228   4.407   6.249   0.241  0.3026 -0.4111 -0.6913
 5890TIP3    H139229   4.471   6.294   0.297  0.5140 -1.1361 -0.3417
 5890TIP3    H239230   4.413   6.295   0.157  1.1265 -0.3327 -0.5985
 5891TIP3   OH239231   3.624   6.481   1.198  0.3465 -0.1511 -0.2859
 5891TIP3    H139232   3.589   6.491   1.287 -0.6734 -0.9463 -0.5937
 5891TIP3    H239233   3.558   6.431   1.151  0.5721  0.8155 -1.6861
 5892TIP3   OH239234   2.221   4.025   0.600  0.7364  0.3830  0.0621
 5892TIP3    H139235   2.171   4.013   0.681  0.3980  0.5419 -0.1196
 5892TIP3    H239236   2.164   3.989   0.532  1.0792  0.1229 -0.0879
 5893TIP3   OH239237   6.202   6.285   1.580 -0.5132 -0.0642 -0.4113
 5893TIP3    H139238   6.209   6.250   1.492 -0.3561 -0.5148 -0.2198
 5893TIP3    H239239   6.194   6.380   1.568 -1.1066 -0.1823 -0.9300
 5894TIP3   OH239240   6.379   5.900   1.249  0.3362  0.3721  0.4999
 5894TIP3    H139241   6.351   5.909   1.340  0.1718 -1.0123  0.6082
 5894TIP3    H239242   6.319   5.834   1.212 -0.1914  1.5895 -0.8650
 5895TIP3   OH239243   0.623   6.137   7.208 -0.1029 -0.4979 -0.0529
 5895TIP3    H139244   0.544   6.086   7.228  0.7880 -1.8733  0.0799
 5895TIP3    H239245   0.596   6.198   7.139 -2.1964  1.5691  2.5089
 5896TIP3   OH239246   5.931   1.487   2.120  0.2423 -0.0980  0.0102
 5896TIP3    H139247   5.903   1.556   2.060  0.7629 -0.0934 -0.2282
 5896TIP3    H239248   5.872   1.414   2.102 -2.4221  1.3589  2.5082
 5897TIP3   OH239249   6.854   6.777   6.904  0.3562  0.0190  0.0291
 5897TIP3    H139250   6.824   6.694   6.868 -1.7318 -0.6896  3.1699
 5897TIP3    H239251   6.802   6.843   6.859 -1.1269 -0.7193  0.6504
 5898TIP3   OH239252   5.649   7.194   1.337 -0.0654  0.7663 -0.9056
 5898TIP3    H139253   5.742   7.175   1.344 -0.1540  1.0194  1.4015
 5898TIP3    H239254   5.610   7.114   1.302  0.8963  0.3318 -0.9798
 5899TIP3   OH239255   7.071   6.652   1.660 -0.3470  0.2761 -0.5868
 5899TIP3    H139256   7.081   6.562   1.628  2.2877 -0.3427  1.7678
 5899TIP3    H239257   7.017   6.643   1.739 -2.1023  1.0919 -1.6731
 5900TIP3   OH239258   4.288   5.695   8.211 -0.5690  0.0567  0.0358
 5900TIP3    H139259   4.264   5.702   8.119 -0.8287  0.8781  0.1577
 5900TIP3    H239260   4.374   5.653   8.211 -0.6372 -0.0874 -0.5708
 5901TIP3   OH239261   4.616   5.592   0.743  0.1690  0.0549  0.6701
 5901TIP3    H139262   4.531   5.554   0.767 -1.2541  1.2085 -2.3472
 5901TIP3    H239263   4.666   5.518   0.708 -0.9356  0.0453 -0.9381
 5902TIP3   OH239264   2.527   2.192   2.038  0.3997  0.7130 -0.1554
 5902TIP3    H139265   2.530   2.168   1.945  0.3114  0.2256 -0.0342
 5902TIP3    H239266   2.483   2.277   2.039  0.2422  0.6396 -0.5446
 5903TIP3   OH239267   6.926   4.648   0.905  0.2849  0.1158 -0.3669
 5903TIP3    H139268   6.841   4.626   0.868  0.8184 -0.8014 -1.0743
 5903TIP3    H239269   6.919   4.741   0.929 -0.8695  0.0670 -0.5039
 5904TIP3   OH239270   2.372   0.530   7.496 -0.4676  0.5283  0.2955
 5904TIP3    H139271   2.392   0.443   7.532  1.1352  0.0158 -1.7248
 5904TIP3    H239272   2.303   0.513   7.431 -0.2946  0.8042  0.0436
 5905TIP3   OH239273   1.409   4.288   0.625 -0.2028 -0.2588  0.4598
 5905TIP3    H139274   1.438   4.325   0.542  1.3604 -0.4959  0.8822
 5905TIP3    H239275   1.466   4.330   0.690 -0.5085 -1.0843  1.2618
 5906TIP3   OH239276   3.544   4.029   0.539  0.1567 -0.5412  0.1687
 5906TIP3    H139277   3.587   4.095   0.594 -1.3200  0.4437  0.1569
 5906TIP3    H239278   3.544   3.950   0.593  0.3754 -0.0794  0.8546
 5907TIP3   OH239279   5.992   3.970   2.160 -0.1682 -0.7049 -0.1600
 5907TIP3    H139280   6.060   3.906   2.137 -0.2011 -0.3320 -1.3606
 5907TIP3    H239281   5.924   3.918   2.204  0.1717 -1.3607 -0.3970
 5908TIP3   OH239282   4.078   4.569   1.213 -0.2110  0.6142 -0.1255
 5908TIP3    H139283   4.104   4.539   1.299 -0.4675  0.6644 -0.0314
 5908TIP3    H239284   4.124   4.653   1.202  0.7478  0.0464 -0.5155
 5909TIP3   OH239285   4.672   2.893   2.296 -0.1168 -0.2054 -0.2122
 5909TIP3    H139286   4.763   2.915   2.319  0.2264 -0.1024 -1.6146
 5909TIP3    H239287   4.642   2.968   2.246 -1.4612  0.3868  1.4259
 5910TIP3   OH239288   3.040   3.810   1.822 -0.5172  0.6323 -0.0190
 5910TIP3    H139289   3.073   3.899   1.815 -0.2432  0.6252  0.9702
 5910TIP3    H239290   3.119   3.756   1.822 -0.8015  0.1572 -3.4945
 5911TIP3   OH239291   4.690   0.572   7.860 -0.7991 -0.4383  0.6052
 5911TIP3    H139292   4.719   0.502   7.802 -1.6864 -1.0911  0.9551
 5911TIP3    H239293   4.598   0.553   7.878 -0.4583 -0.4191  2.4772
 5912TIP3   OH239294   0.724   3.343   8.126  0.3590  0.3582 -0.2139
 5912TIP3    H139295   0.655   3.297   8.078 -0.8564 -0.9950  2.7681
 5912TIP3    H239296   0.800   3.338   8.068 -1.0008 -1.3969 -1.9127
 5913TIP3   OH239297   3.122   4.627   8.405  0.3735  0.6220 -0.0916
 5913TIP3    H139298   3.126   4.593   8.316 -0.3936 -3.1115  1.1833
 5913TIP3    H239299   3.197   4.587   8.450 -0.7194  0.3420  1.5519
 5914TIP3   OH239300   0.300   5.817   1.009  0.9284 -0.0988 -0.1113
 5914TIP3    H139301   0.232   5.884   0.999 -0.2158 -1.2347 -0.1744
 5914TIP3    H239302   0.277   5.751   0.943  1.5507 -0.9400  0.5055
 5915TIP3   OH239303   6.634   5.285   0.422  0.1813 -0.2283 -0.2973
 5915TIP3    H139304   6.574   5.337   0.368  0.9353  0.0219 -0.9113
 5915TIP3    H239305   6.721   5.313   0.394  0.5860 -0.0685  1.0878
 5916TIP3   OH239306   2.732   5.214   0.721 -0.3101  0.1079  0.5229
 5916TIP3    H139307   2.731   5.296   0.770 -1.3463 -0.6370  1.7921
 5916TIP3    H239308   2.643   5.179   0.731  0.0219 -0.9883 -0.2902
 5917TIP3   OH239309   7.037   5.677   6.877  0.0487 -0.6297  0.7366
 5917TIP3    H139310   7.053   5.771   6.869  0.7820 -0.6910  1.4382
 5917TIP3    H239311   7.058   5.657   6.968 -2.0628 -1.1112  1.1365
 5918TIP3   OH239312   1.517   4.234   1.877 -0.0570 -0.1461 -0.6148
 5918TIP3    H139313   1.422   4.238   1.866 -0.3261 -1.0292  1.2986
 5918TIP3    H239314   1.533   4.257   1.968  1.5193 -0.6688 -0.7274
 5919TIP3   OH239315   2.530   4.499   1.067 -0.1446  0.0614 -0.4785
 5919TIP3    H139316   2.459   4.439   1.090  0.4910 -0.3537  0.4151
 5919TIP3    H239317   2.588   4.499   1.144  0.4353  0.9666 -0.9057
 5920TIP3   OH239318   4.965   5.065   2.051  0.5704 -0.1845 -0.3600
 5920TIP3    H139319   5.014   5.018   2.120  0.7641  0.9126  0.2565
 5920TIP3    H239320   4.896   5.112   2.098 -0.0785 -0.4290 -1.0582
 5921TIP3   OH239321   5.504   0.631   0.600  0.3471 -0.0885 -0.2365
 5921TIP3    H139322   5.505   0.673   0.686 -0.9054  0.3346 -0.4174
 5921TIP3    H239323   5.555   0.689   0.544  1.0872 -0.3173  0.1933
 5922TIP3   OH239324   4.423   6.184   1.749 -0.4405  0.7196  0.4800
 5922TIP3    H139325   4.498   6.186   1.807 -0.3727 -0.0054  0.4288
 5922TIP3    H239326   4.445   6.117   1.683 -0.5339  1.4905 -0.3468
 5923TIP3   OH239327   1.718   1.800   1.471  0.1488 -0.4283  0.1030
 5923TIP3    H139328   1.655   1.741   1.429 -1.4037  1.8294 -0.8661
 5923TIP3    H239329   1.793   1.801   1.412 -1.1854  1.1088 -1.6668
 5924TIP3   OH239330   6.139   4.720   1.518  0.3406 -0.1254 -0.4692
 5924TIP3    H139331   6.174   4.742   1.432 -0.9505  0.2669 -0.8990
 5924TIP3    H239332   6.137   4.803   1.566 -0.5289 -0.0551 -0.6326
 5925TIP3   OH239333   3.182   6.268   8.296 -0.8726 -1.0284 -0.1095
 5925TIP3    H139334   3.261   6.272   8.242 -0.3694 -3.8506  0.3362
 5925TIP3    H239335   3.174   6.356   8.333  1.4355 -0.3852 -1.0629
 5926TIP3   OH239336   4.525   0.283   1.682 -0.3164 -0.0745  0.7922
 5926TIP3    H139337   4.546   0.200   1.640 -0.9585 -0.4746  1.2595
 5926TIP3    H239338   4.510   0.344   1.609 -1.7085 -0.8337  0.4176
 5927TIP3   OH239339   3.567   5.368   0.322 -0.1296 -0.1405  0.2243
 5927TIP3    H139340   3.589   5.279   0.350 -0.4480 -0.1500  0.4535
 5927TIP3    H239341   3.622   5.384   0.246  2.7054  0.8536  2.4145
 5928TIP3   OH239342   7.252   1.349   1.251 -0.0999 -0.3741 -0.2131
 5928TIP3    H139343   7.297   1.310   1.176  0.6493 -1.2147  0.6534
 5928TIP3    H239344   7.283   1.440   1.252  1.8059 -1.0109  0.5160
 5929TIP3   OH239345   5.380   5.584   2.064  0.4011  0.7492  0.3371
 5929TIP3    H139346   5.426   5.574   1.981  4.3401 -0.4893  2.5755
 5929TIP3    H239347   5.386   5.678   2.083 -1.1627  1.1665 -1.0537
 5930TIP3   OH239348   3.666   6.008   1.498  0.0139 -0.2647 -0.2245
 5930TIP3    H139349   3.681   5.942   1.429  0.7701  1.0202 -1.3101
 5930TIP3    H239350   3.596   6.064   1.463 -0.3534 -0.2453  0.5285
 5931TIP3   OH239351   2.229   6.210   1.744 -0.2242 -0.3756  0.7492
 5931TIP3    H139352   2.280   6.141   1.787 -0.0302 -0.5483  0.2461
 5931TIP3    H239353   2.228   6.282   1.808 -0.9146 -1.0489  1.5036
 5932TIP3   OH239354   5.328   5.442   0.155  0.1746  0.0132 -0.1522
 5932TIP3    H139355   5.262   5.481   0.097 -1.5936 -1.0087  1.1339
 5932TIP3    H239356   5.401   5.504   0.153 -0.9772  1.3757 -1.2840
 5933TIP3   OH239357   6.600   5.469   8.317  0.3606  0.0147  0.0498
 5933TIP3    H139358   6.565   5.410   8.384  1.6715 -0.5880  0.2136
 5933TIP3    H239359   6.573   5.430   8.234 -1.1897  0.7112  0.2011
 5934TIP3   OH239360   3.000   5.271   2.006  0.2327 -0.2323 -0.5266
 5934TIP3    H139361   3.036   5.327   2.075 -1.1903  1.2985 -0.9836
 5934TIP3    H239362   2.930   5.222   2.049  0.0950 -0.1110 -0.6124
 5935TIP3   OH239363   5.030   6.228   0.073  0.1838 -0.8844 -0.5188
 5935TIP3    H139364   5.062   6.192   0.156  1.2321 -1.7634 -1.2847
 5935TIP3    H239365   5.108   6.263   0.031 -0.3508 -0.4187 -1.1191
 5936TIP3   OH239366   3.308   1.494   6.772  0.7953 -0.4821 -0.3925
 5936TIP3    H139367   3.349   1.409   6.789  1.0920 -0.4736 -1.0577
 5936TIP3    H239368   3.375   1.559   6.792  0.2545 -0.3555  1.0643
 5937TIP3   OH239369   5.103   6.042   1.961  0.6748  0.2225 -0.2146
 5937TIP3    H139370   5.152   6.067   2.039  1.4796  1.0765 -0.9887
 5937TIP3    H239371   5.131   6.104   1.893  0.7313 -1.1378 -1.4593
 5938TIP3   OH239372   4.566   4.791   1.715  0.0151 -0.4667  0.7306
 5938TIP3    H139373   4.627   4.749   1.655  0.5880 -0.1201  1.0653
 5938TIP3    H239374   4.605   4.877   1.733 -0.9847  0.0911  0.2943
 5939TIP3   OH239375   4.587   6.501   0.315  0.1425 -0.0243 -0.7426
 5939TIP3    H139376   4.680   6.478   0.304 -0.0958 -1.0904 -0.5457
 5939TIP3    H239377   4.583   6.595   0.294  1.6140  0.5087  1.1505
 5940TIP3   OH239378   4.649   5.822   7.014 -0.6336  0.1188  0.4863
 5940TIP3    H139379   4.600   5.860   6.941  0.5082  0.0384 -0.3438
 5940TIP3    H239380   4.587   5.820   7.087 -1.7383  0.3561 -0.4397
 5941TIP3   OH239381   3.075   3.601   7.335  0.5918  0.0038 -0.0706
 5941TIP3    H139382   3.058   3.582   7.427 -1.5838  2.4404  0.0655
 5941TIP3    H239383   3.170   3.602   7.328  0.7874  0.8296  2.3732
 5942TIP3   OH239384   3.505   4.270   1.009  0.0521  0.3056 -0.1850
 5942TIP3    H139385   3.477   4.264   1.101  0.4254  1.6601  0.0283
 5942TIP3    H239386   3.601   4.274   1.014  0.0658  0.4815 -0.6295
 5943TIP3   OH239387   3.652   5.389   1.236  0.0349  0.1057  0.2898
 5943TIP3    H139388   3.592   5.457   1.205  1.7141  0.1528 -3.1706
 5943TIP3    H239389   3.716   5.437   1.290 -2.0530  0.2833  2.7122
 5944TIP3   OH239390   7.227   6.993   0.243 -0.0134 -0.2602 -0.7892
 5944TIP3    H139391   7.286   6.923   0.272  0.3543  1.4460  2.7774
 5944TIP3    H239392   7.279   7.072   0.248 -1.5687  0.8041 -1.1130
 5945TIP3   OH239393   5.040   1.840   1.606  0.0128 -0.1748 -0.0598
 5945TIP3    H139394   5.077   1.899   1.671  2.0195  0.4482 -1.7005
 5945TIP3    H239395   4.950   1.823   1.635  1.3328 -1.1300  3.6528
 5946TIP3   OH239396   2.637   2.071   1.381 -0.0870 -0.0520 -0.7579
 5946TIP3    H139397   2.711   2.130   1.373 -0.7601  1.1263  1.3904
 5946TIP3    H239398   2.576   2.099   1.312  0.3286  0.6507 -0.8369
 5947TIP3   OH239399   6.619   6.569   8.040 -0.3674 -0.1539  0.3390
 5947TIP3    H139400   6.555   6.539   8.105 -0.0324 -2.0335 -0.1441
 5947TIP3    H239401   6.632   6.662   8.059 -0.9041 -0.4768  2.4122
 5948TIP3   OH239402   5.165   5.248   2.285 -0.5062  0.2781  0.5479
 5948TIP3    H139403   5.092   5.298   2.249 -0.0353 -0.5835 -1.6841
 5948TIP3    H239404   5.130   5.160   2.296  0.1686 -0.1173 -0.4485
 5949TIP3   OH239405   6.596   4.854   1.420 -0.0408 -0.0635 -0.1410
 5949TIP3    H139406   6.670   4.893   1.465  0.4336 -0.8955 -0.1958
 5949TIP3    H239407   6.606   4.760   1.433 -1.0106 -0.1870 -0.2630
 5950TIP3   OH239408   5.197   7.258   1.872  0.0482 -0.1451  0.7390
 5950TIP3    H139409   5.280   7.233   1.912  0.2286 -1.7000 -0.5784
 5950TIP3    H239410   5.220   7.286   1.784 -0.6866  0.6688  0.7913
 5951TIP3   OH239411   0.540   0.281   0.364 -0.5935 -0.3539 -0.1700
 5951TIP3    H139412   0.564   0.202   0.412 -3.2594 -0.7165  0.6646
 5951TIP3    H239413   0.465   0.253   0.310 -0.2966  1.1081 -1.3489
 5952TIP3   OH239414   0.764   6.318   2.009  0.2792 -0.0055  0.4404
 5952TIP3    H139415   0.705   6.308   2.083  0.8747 -0.9496  0.7971
 5952TIP3    H239416   0.830   6.380   2.039  0.3086 -0.0981  0.5650
 5953TIP3   OH239417   2.483   6.085   0.958 -0.2170 -0.2178 -0.8408
 5953TIP3    H139418   2.440   6.001   0.943  0.0813 -0.6579  0.6697
 5953TIP3    H239419   2.425   6.132   1.018  1.1019 -0.6143  0.8040
 5954TIP3   OH239420   0.613   0.068   8.423  1.0420 -0.0844 -0.0571
 5954TIP3    H139421   0.677   0.068   8.352  1.1900  1.1464  0.0640
 5954TIP3    H239422   0.615   0.158   8.457 -0.8519 -0.0056 -0.1420
 5955TIP3   OH239423   0.817   4.440   1.031 -0.1391  0.9104 -0.6995
 5955TIP3    H139424   0.873   4.424   0.954  1.0748  0.9284  0.1628
 5955TIP3    H239425   0.795   4.352   1.063  4.1029  0.7551  2.2903
 5956TIP3   OH239426   0.181   7.236   1.564 -0.0770 -0.0780  0.3381
 5956TIP3    H139427   0.087   7.221   1.575 -0.5105  1.2585 -1.3348
 5956TIP3    H239428   0.212   7.159   1.515 -0.1389 -0.9015  1.5779
 5957TIP3   OH239429   7.216   2.423   8.000  0.4893 -0.0033  0.6879
 5957TIP3    H139430   7.220   2.335   8.038 -1.1010  0.1974  1.3601
 5957TIP3    H239431   7.144   2.418   7.937  0.1108  0.9332  1.0469
 5958TIP3   OH239432   0.794   5.988   2.176 -0.6011 -0.3959  0.0948
 5958TIP3    H139433   0.735   6.029   2.240 -0.3868  0.4912 -0.2714
 5958TIP3    H239434   0.825   6.060   2.123 -0.1936 -1.0423 -0.5471
 5959TIP3   OH239435   0.240   3.627   0.963  0.4197 -0.0910  0.2562
 5959TIP3    H139436   0.161   3.617   1.017 -0.3326 -1.4212 -1.0533
 5959TIP3    H239437   0.227   3.710   0.917  0.1670  0.1001  0.6664
 5960TIP3   OH239438   6.684   4.123   2.033 -0.2782  0.5253  0.0588
 5960TIP3    H139439   6.748   4.053   2.047  0.5533  1.2895  0.0550
 5960TIP3    H239440   6.717   4.171   1.957 -1.6996 -0.0485 -0.9422
 5961TIP3   OH239441   4.729   5.159   0.505 -0.0070  0.0935 -0.3889
 5961TIP3    H139442   4.674   5.126   0.433 -0.5699  1.0074 -0.3823
 5961TIP3    H239443   4.736   5.085   0.565  0.2649 -0.6001 -1.2673
 5962TIP3   OH239444   2.660   6.687   6.112 -0.3997  0.1928  0.1916
 5962TIP3    H139445   2.593   6.753   6.127 -0.1908  0.4849 -0.1631
 5962TIP3    H239446   2.725   6.703   6.181 -0.1153  0.6627 -0.1830
 5963TIP3   OH239447   0.668   4.825   8.471 -0.1711  0.4949 -0.1025
 5963TIP3    H139448   0.575   4.820   8.491  0.3676 -0.9424  2.2948
 5963TIP3    H239449   0.698   4.906   8.514  0.0841 -0.2094  1.0911
 5964TIP3   OH239450   7.072   4.220   1.674  0.2425 -0.2829  0.5465
 5964TIP3    H139451   6.992   4.232   1.624 -0.0682 -0.8142  0.9067
 5964TIP3    H239452   7.044   4.228   1.766  0.2291 -2.4519  0.7623
 5965TIP3   OH239453   7.295   5.343   7.917 -0.4443 -0.9356 -0.0171
 5965TIP3    H139454   7.309   5.251   7.895  2.7632 -0.4979 -0.0947
 5965TIP3    H239455   7.239   5.377   7.848  1.7064 -1.8822 -2.3208
 5966TIP3   OH239456   1.898   3.666   8.000 -0.0564  0.6066  0.0534
 5966TIP3    H139457   1.904   3.728   7.927 -0.4538 -1.8674 -2.1427
 5966TIP3    H239458   1.804   3.653   8.012  0.0138  0.8562  0.9057
 5967TIP3   OH239459   5.291   4.952   1.517 -0.4896 -0.1424 -0.1413
 5967TIP3    H139460   5.386   4.945   1.504 -0.4556  0.5421 -0.2928
 5967TIP3    H239461   5.273   5.046   1.510 -1.1092 -0.2200  0.3914
 5968TIP3   OH239462   0.152   6.339   2.317 -0.0338  0.3536 -0.1570
 5968TIP3    H139463   0.212   6.294   2.257 -0.3308 -1.5432  0.9125
 5968TIP3    H239464   0.073   6.355   2.265  0.7938  1.4076 -1.1099
 5969TIP3   OH239465   4.002   4.760   2.138  0.0708 -0.3206 -0.5406
 5969TIP3    H139466   3.970   4.825   2.201  2.9281  0.9923 -0.3706
 5969TIP3    H239467   3.940   4.688   2.144 -0.9457  0.7211  2.1701
 5970TIP3   OH239468   0.047   5.449   1.361 -0.3800 -1.1444  0.2346
 5970TIP3    H139469  -0.035   5.408   1.333  0.4355 -1.6621 -1.4719
 5970TIP3    H239470   0.115   5.399   1.316  0.9358 -1.2035  2.2102
 5971TIP3   OH239471   0.234   2.430   0.841  0.3162 -0.1479 -0.2491
 5971TIP3    H139472   0.234   2.502   0.778  1.3590 -0.1063 -0.2138
 5971TIP3    H239473   0.310   2.377   0.817  0.2092 -0.6172  0.4223
 5972TIP3   OH239474   6.161   3.512   2.328  0.1325  0.1892 -0.9206
 5972TIP3    H139475   6.247   3.475   2.349  0.4038  1.1676 -0.3197
 5972TIP3    H239476   6.103   3.436   2.325  0.2641 -0.1156  2.4171
 5973TIP3   OH239477   6.700   6.569   2.192  0.5977 -0.2810  0.3719
 5973TIP3    H139478   6.627   6.527   2.238  1.6063 -1.6574  0.7866
 5973TIP3    H239479   6.763   6.497   2.177  1.1035  0.5165 -1.5147
 5974TIP3   OH239480   2.663   2.120   0.416  0.2632  0.5676 -0.1472
 5974TIP3    H139481   2.688   2.032   0.447 -1.8387  0.1391  0.4016
 5974TIP3    H239482   2.672   2.115   0.321  0.6331 -0.0807 -0.0842
 5975TIP3   OH239483   0.188   6.238   0.280  0.0734  0.0828 -0.5356
 5975TIP3    H139484   0.198   6.333   0.286  0.3442  0.0677 -0.7259
 5975TIP3    H239485   0.168   6.210   0.369 -1.7367  0.5167 -0.8019
 5976TIP3   OH239486   6.927   0.949   7.708  0.1790 -0.3448 -0.3863
 5976TIP3    H139487   6.963   0.863   7.687  1.3620  0.1548 -0.4534
 5976TIP3    H239488   6.992   0.990   7.765  0.5229  1.1885 -1.7967
 5977TIP3   OH239489   4.581   3.948   1.156 -0.9923  0.2153 -0.2826
 5977TIP3    H139490   4.585   3.926   1.249  0.8185 -0.2177 -0.4554
 5977TIP3    H239491   4.568   4.043   1.155 -2.5980  0.0162  0.4101
 5978TIP3   OH239492   6.839   4.741   2.240  0.2699  0.2732 -1.3100
 5978TIP3    H139493   6.805   4.692   2.165  0.9894 -0.6518 -1.0327
 5978TIP3    H239494   6.910   4.687   2.274 -0.1056  0.6403  0.0941
 5979TIP3   OH239495   0.613   0.635   0.130  0.1357  0.4503  0.2468
 5979TIP3    H139496   0.546   0.591   0.076 -0.3935  1.2229  0.2565
 5979TIP3    H239497   0.649   0.702   0.072  1.0791 -0.1164  0.1683
 5980TIP3   OH239498   1.637   4.810   0.956  0.6061 -0.6842 -0.0689
 5980TIP3    H139499   1.686   4.738   0.916 -1.4039 -2.3181  0.3429
 5980TIP3    H239500   1.569   4.831   0.892  0.5349  0.1399  0.2766
 5981TIP3   OH239501   6.537   5.441   1.856 -0.3627 -0.1828 -0.1004
 5981TIP3    H139502   6.594   5.366   1.869  0.8053  1.0602  2.3268
 5981TIP3    H239503   6.542   5.489   1.939  0.3631  3.5143 -2.1686
 5982TIP3   OH239504   4.472   6.409   8.480 -0.6030 -0.5243  0.8582
 5982TIP3    H139505   4.526   6.374   8.409 -1.7220  0.6669 -0.6422
 5982TIP3    H239506   4.522   6.484   8.513 -0.6590 -0.3076  0.4568
 5983TIP3   OH239507   0.569   5.549   7.287  0.3887  0.7613  0.3187
 5983TIP3    H139508   0.510   5.505   7.347  1.3755  0.5586  1.1586
 5983TIP3    H239509   0.521   5.626   7.257  0.2045  1.3403  2.0390
 5984TIP3   OH239510   0.090   3.965   7.679 -0.1065  0.3019 -0.5436
 5984TIP3    H139511   0.128   4.050   7.701  0.0088  0.1527 -0.1614
 5984TIP3    H239512   0.111   3.952   7.587 -0.9938  1.1506 -0.8797
 5985TIP3   OH239513   1.837   6.931   6.828 -0.4704  0.6204  0.0700
 5985TIP3    H139514   1.829   7.006   6.770  0.6910  1.0600  0.4481
 5985TIP3    H239515   1.830   6.968   6.916 -1.5554  0.0547  0.2194
 5986TIP3   OH239516   4.182   4.998   8.360 -0.0706 -0.6581  0.4319
 5986TIP3    H139517   4.136   5.065   8.411  1.1340 -0.4715  1.2857
 5986TIP3    H239518   4.114   4.935   8.336 -1.6582  2.0105 -2.3067
 5987TIP3   OH239519   0.045   1.593   1.174 -0.2908  0.4795  0.0123
 5987TIP3    H139520   0.056   1.652   1.248 -1.3026 -0.0806  0.6118
 5987TIP3    H239521   0.133   1.580   1.140  0.3908 -0.6517  2.1789
 5988TIP3   OH239522   7.257   5.181   1.492 -0.3412  0.0557  0.4711
 5988TIP3    H139523   7.294   5.108   1.542  0.0540 -0.4248 -0.5048
 5988TIP3    H239524   7.306   5.258   1.521 -0.3278 -0.1670  1.0428
 5989TIP3   OH239525   0.907   3.617   1.789 -0.1296  0.1219  0.0414
 5989TIP3    H139526   0.917   3.535   1.740 -0.5866 -0.1225  0.3503
 5989TIP3    H239527   0.828   3.657   1.753 -0.0616  0.2975  0.0842
 5990TIP3   OH239528   1.700   0.885   1.141 -0.0194  0.3209  0.0142
 5990TIP3    H139529   1.749   0.913   1.218 -2.1651 -0.6365  1.7989
 5990TIP3    H239530   1.610   0.876   1.173 -1.2433  1.3689 -2.9753
 5991TIP3   OH239531   2.087   5.906   1.081  0.3147 -0.3313 -0.4649
 5991TIP3    H139532   2.041   5.943   1.006  0.7069  0.3811 -0.3560
 5991TIP3    H239533   2.034   5.931   1.156  1.5434  1.5899 -0.2141
 5992TIP3   OH239534   1.066   3.819   7.399  0.2993 -0.4707  0.0634
 5992TIP3    H139535   1.007   3.830   7.325  2.8620  1.3994 -1.8122
 5992TIP3    H239536   1.080   3.907   7.433  1.0623 -1.0213  1.2542
 5993TIP3   OH239537   1.691   6.254   0.418 -0.5852 -0.3293  0.4301
 5993TIP3    H139538   1.651   6.323   0.470  1.2098  2.0777 -1.2960
 5993TIP3    H239539   1.766   6.225   0.470 -0.2614  0.3166  0.3249
 5994TIP3   OH239540   0.749   5.368   0.958 -0.2594 -0.3286 -0.0712
 5994TIP3    H139541   0.736   5.277   0.931  0.6327 -0.3216 -0.5427
 5994TIP3    H239542   0.758   5.363   1.053  0.2467 -0.7872 -0.1393
 5995TIP3   OH239543   5.842   0.458   1.374  0.2219 -0.0982  0.3826
 5995TIP3    H139544   5.749   0.467   1.393  0.4271 -1.6180  2.2672
 5995TIP3    H239545   5.871   0.547   1.354 -0.7390  1.1655  4.1609
 5996TIP3   OH239546   5.746   1.106   1.706  0.4937  0.3009  0.4321
 5996TIP3    H139547   5.802   1.182   1.723 -1.0035  1.7912 -1.1298
 5996TIP3    H239548   5.674   1.114   1.768  1.6026 -1.2176  1.9445
 5997TIP3   OH239549   3.513   3.748   0.394  0.0293  0.4229 -0.2450
 5997TIP3    H139550   3.583   3.812   0.387 -2.0969  3.0953  1.5054
 5997TIP3    H239551   3.485   3.754   0.486 -2.2243 -0.8007 -0.8203
 5998TIP3   OH239552   5.135   0.639   0.860  0.7204  0.7368 -0.1484
 5998TIP3    H139553   5.053   0.628   0.811  0.9215  0.4901 -0.4285
 5998TIP3    H239554   5.162   0.550   0.882  0.4031  0.8745  0.7897
 5999TIP3   OH239555   6.754   2.938   2.529 -0.2133  0.6186 -0.1373
 5999TIP3    H139556   6.745   2.844   2.509  0.9293  0.9477 -2.2437
 5999TIP3    H239557   6.679   2.956   2.585 -1.0843 -1.3254 -0.6032
 6000TIP3   OH239558   6.183   3.765   2.213 -0.1481  0.0580  0.2751
 6000TIP3    H139559   6.138   3.681   2.221  0.9820 -0.7085 -1.1821
 6000TIP3    H239560   6.275   3.742   2.202  0.0160  1.4227 -1.4308
 6001TIP3   OH239561   4.970   5.736   2.235 -0.2031 -0.1153 -0.3320
 6001TIP3    H139562   4.957   5.822   2.195 -1.3641 -0.8304 -1.5117
 6001TIP3    H239563   5.063   5.735   2.260 -0.6220  2.2632  1.5728
 6002TIP3   OH239564   1.927   1.005   7.743  0.0081  0.1201 -0.1509
 6002TIP3    H139565   2.022   1.020   7.747  0.1424 -0.5580 -0.7166
 6002TIP3    H239566   1.917   0.929   7.686 -0.9016  0.3734 -0.3377
 6003TIP3   OH239567   5.420   6.301   7.663  0.5674  0.3684  0.6845
 6003TIP3    H139568   5.466   6.361   7.723 -2.4703  1.7836  1.7250
 6003TIP3    H239569   5.344   6.271   7.713 -0.4793 -0.7046 -1.4778
 6004TIP3   OH239570   0.055   6.015   0.996 -0.5582  0.2887 -0.2470
 6004TIP3    H139571   0.100   6.046   1.074  0.5376 -1.0584 -0.3174
 6004TIP3    H239572  -0.034   6.050   1.003 -0.9902 -1.2033  2.4642
 6005TIP3   OH239573   6.225   5.081   6.867  0.8727 -0.5137  0.2434
 6005TIP3    H139574   6.267   5.156   6.909 -1.0231  0.4825  0.4474
 6005TIP3    H239575   6.162   5.050   6.933 -0.5700 -0.3087 -1.0043
 6006TIP3   OH239576   0.333   2.617   0.018  0.0625 -0.3954 -0.2776
 6006TIP3    H139577   0.290   2.686  -0.033  0.1632  0.8127  1.2417
 6006TIP3    H239578   0.261   2.567   0.057 -0.0117 -1.2184 -1.4366
 6007TIP3   OH239579   0.873   4.067   1.357  0.2059 -0.2326 -0.7672
 6007TIP3    H139580   0.889   3.978   1.390 -0.5158  0.5083  1.7575
 6007TIP3    H239581   0.916   4.123   1.421  1.8537  1.2208 -3.1052
 6008TIP3   OH239582   0.485   1.803   8.035  0.1946  0.1385 -0.5746
 6008TIP3    H139583   0.456   1.894   8.027  1.3905  0.5602 -0.2380
 6008TIP3    H239584   0.405   1.754   8.057 -0.3469  1.1965 -0.1312
 6009TIP3   OH239585   4.906   4.890   1.840 -0.2991 -0.1259  0.6797
 6009TIP3    H139586   4.963   4.814   1.848  0.5330  0.3406 -0.6564
 6009TIP3    H239587   4.941   4.953   1.903 -0.0959 -0.2981  0.7416
 6010TIP3   OH239588   2.040   5.999   0.819 -0.3469 -0.0453 -0.4647
 6010TIP3    H139589   1.973   6.024   0.755  1.5317 -0.6804 -2.7462
 6010TIP3    H239590   2.085   5.925   0.778 -0.6626 -2.0485  2.6828
 6011TIP3   OH239591   3.054   0.696   1.572 -0.0631 -0.7115 -0.7504
 6011TIP3    H139592   3.084   0.663   1.656  0.8093  0.6574 -0.5069
 6011TIP3    H239593   2.962   0.720   1.587  0.3049  0.2566  0.0497
 6012TIP3   OH239594   6.777   5.293   1.934  0.2880 -0.1548  0.5852
 6012TIP3    H139595   6.867   5.304   1.906  0.0024 -2.4465 -1.4618
 6012TIP3    H239596   6.783   5.256   2.022  1.2763  2.0756  1.4883
 6013TIP3   OH239597   7.265   6.597   7.612  0.2294 -0.3846 -0.0329
 6013TIP3    H139598   7.347   6.624   7.654 -0.3688 -0.6465  1.3388
 6013TIP3    H239599   7.281   6.608   7.518  0.3796  3.5863  0.3822
 6014TIP3   OH239600   5.770   3.822   2.418 -0.8433 -0.0968 -0.0314
 6014TIP3    H139601   5.717   3.795   2.492 -0.4939 -0.7531 -0.0126
 6014TIP3    H239602   5.708   3.859   2.355 -1.1377  0.4503  0.5861
 6015TIP3   OH239603   0.938   3.546   0.220  0.6372 -0.5066  0.3756
 6015TIP3    H139604   0.920   3.453   0.234  0.2038 -0.1849  1.9420
 6015TIP3    H239605   0.883   3.592   0.282 -0.0027  0.8759 -1.1669
 6016TIP3   OH239606   1.462   0.207   6.981 -0.2501 -0.1620 -0.0785
 6016TIP3    H139607   1.436   0.177   6.894  0.4358 -1.8869  0.2989
 6016TIP3    H239608   1.555   0.226   6.973 -0.2253 -0.1444  0.2357
 6017TIP3   OH239609   4.129   4.169   1.370  0.2161  0.2650 -0.5291
 6017TIP3    H139610   4.206   4.113   1.358  0.1652  0.1077 -0.1081
 6017TIP3    H239611   4.056   4.107   1.375  0.2226  0.3464  0.4958
 6018TIP3   OH239612   4.583   5.544   1.068  0.3614 -0.0518 -0.4113
 6018TIP3    H139613   4.529   5.473   1.032  1.3912 -1.5179  0.8379
 6018TIP3    H239614   4.599   5.518   1.159  0.2691  2.1103  0.2376
 6019TIP3   OH239615   6.098   4.644   0.970  0.0924 -0.0553  0.2001
 6019TIP3    H139616   6.133   4.690   0.894  0.5835  1.8512  1.5333
 6019TIP3    H239617   6.019   4.600   0.938  1.0818 -0.4774 -1.7168
 6020TIP3   OH239618   6.500   1.031   0.939 -0.0013 -0.2353 -0.5273
 6020TIP3    H139619   6.520   1.091   0.866 -1.7099  0.8770 -0.1055
 6020TIP3    H239620   6.545   0.950   0.916 -0.9491 -0.0863 -3.1023
 6021TIP3   OH239621   1.343   5.529   7.704  0.1294 -0.0694 -0.4675
 6021TIP3    H139622   1.357   5.581   7.783  0.7222  0.4085 -0.8902
 6021TIP3    H239623   1.257   5.557   7.672 -0.3211 -0.5964  0.2587
 6022TIP3   OH239624   0.666   5.171   2.247  0.1154 -0.3043  0.1827
 6022TIP3    H139625   0.586   5.223   2.243  1.1615  1.2930 -0.4396
 6022TIP3    H239626   0.636   5.080   2.250 -1.6892  0.1279 -3.0152
 6023TIP3   OH239627   0.461   5.850   0.383 -0.0636 -0.2618 -0.0926
 6023TIP3    H139628   0.550   5.863   0.417 -0.5959  1.2206  0.7818
 6023TIP3    H239629   0.439   5.934   0.341 -0.9549 -0.7113 -0.5406
 6024TIP3   OH239630   0.717   4.194   0.102  0.8130 -0.0582  0.3590
 6024TIP3    H139631   0.737   4.216   0.011  0.6355 -0.1850  0.2909
 6024TIP3    H239632   0.711   4.279   0.146 -1.0145  0.0881 -0.1507
 6025TIP3   OH239633   5.983   4.804   1.236  0.2163  0.2779 -0.5632
 6025TIP3    H139634   5.939   4.757   1.307  0.6109  1.1612  0.2740
 6025TIP3    H239635   5.947   4.893   1.240  2.3138  1.1021  0.3475
 6026TIP3   OH239636   1.421   3.132   6.842  0.0679 -0.6989  0.1289
 6026TIP3    H139637   1.427   3.193   6.769 -1.1202 -0.1721  0.4720
 6026TIP3    H239638   1.329   3.134   6.868  0.3262 -1.4888  1.1164
 6027TIP3   OH239639   6.892   5.342   6.491  0.0111 -0.5996  0.2532
 6027TIP3    H139640   6.874   5.422   6.442 -2.8801 -1.5505 -0.3566
 6027TIP3    H239641   6.871   5.271   6.431  0.7188 -1.8247  1.4080
 6028TIP3   OH239642   1.602   1.597   8.180  0.5102  0.6325  0.1032
 6028TIP3    H139643   1.521   1.638   8.148 -0.0172 -0.4272  0.0538
 6028TIP3    H239644   1.581   1.569   8.269 -0.4350 -2.9455 -1.1270
 6029TIP3   OH239645   6.905   4.509   8.366  0.2520  0.1984  0.0185
 6029TIP3    H139646   6.988   4.464   8.348 -1.5963 -3.6891  0.6740
 6029TIP3    H239647   6.903   4.519   8.461  1.1613  2.8219 -0.2027
 6030TIP3   OH239648   0.856   4.420   1.729 -0.1564 -0.5719  0.2420
 6030TIP3    H139649   0.860   4.372   1.811 -1.8812  0.4820  0.9848
 6030TIP3    H239650   0.879   4.510   1.752  0.2993 -0.4580 -0.6160
 6031TIP3   OH239651   1.175   1.475   0.031 -0.0972 -0.0167 -0.4136
 6031TIP3    H139652   1.255   1.470   0.083 -0.6146 -2.1123  0.2309
 6031TIP3    H239653   1.177   1.562  -0.007  1.4839  0.7083  1.2302
 6032TIP3   OH239654   1.966   4.890   1.096 -0.2558  0.2959  0.0155
 6032TIP3    H139655   1.938   4.950   1.165  0.1930 -1.3456  1.6736
 6032TIP3    H239656   1.918   4.809   1.114  1.5014 -0.8374 -0.2921
 6033TIP3   OH239657   0.225   2.625   1.164 -0.4859  0.6490  0.3149
 6033TIP3    H139658   0.185   2.712   1.165 -3.0625 -0.4857  2.5512
 6033TIP3    H239659   0.289   2.627   1.236 -0.3743  0.7781  0.2110
 6034TIP3   OH239660   4.478   0.998   0.188  0.4957  0.2548 -0.1014
 6034TIP3    H139661   4.423   1.043   0.125  1.0134  1.2737  0.1754
 6034TIP3    H239662   4.417   0.949   0.243  0.1136 -1.6059 -2.1333
 6035TIP3   OH239663   4.927   5.452   7.854 -0.2330 -0.4232 -0.1515
 6035TIP3    H139664   4.910   5.362   7.827 -0.0036 -0.2348 -0.9584
 6035TIP3    H239665   4.972   5.444   7.938  2.9125 -1.2319 -1.8108
 6036TIP3   OH239666   2.978   3.441   1.400  0.1878  0.0838  0.5723
 6036TIP3    H139667   3.067   3.411   1.379 -0.8247 -2.2425 -0.6215
 6036TIP3    H239668   2.958   3.400   1.484 -0.4601 -0.9899 -0.0963
 6037TIP3   OH239669   1.301   6.388   8.474 -0.2311  0.2372  0.3966
 6037TIP3    H139670   1.248   6.434   8.410 -1.1341 -0.4456  0.6546
 6037TIP3    H239671   1.283   6.433   8.557 -0.5123 -0.0741  0.5070
 6038TIP3   OH239672   6.204   5.776   0.463  0.4909 -0.3139 -0.5724
 6038TIP3    H139673   6.111   5.798   0.457  1.0604  2.1195 -0.7827
 6038TIP3    H239674   6.222   5.728   0.382 -0.3763 -0.0200 -0.9481
 6039TIP3   OH239675   5.875   5.695   0.195  0.7023  0.2359 -0.1470
 6039TIP3    H139676   5.804   5.673   0.135  0.1212  0.0782  0.6025
 6039TIP3    H239677   5.908   5.611   0.227 -1.6350  0.3765  2.8501
 6040TIP3   OH239678   1.450   3.552   1.758 -0.0127  0.1511 -0.1953
 6040TIP3    H139679   1.398   3.632   1.750  0.3388  0.5533  1.4305
 6040TIP3    H239680   1.404   3.500   1.823  0.6391 -0.2750 -0.0746
 6041TIP3   OH239681   1.546   7.066   7.812 -0.3115 -0.0280 -0.0057
 6041TIP3    H139682   1.532   6.989   7.757  1.2092 -0.5235  0.2652
 6041TIP3    H239683   1.618   7.112   7.770  0.8444 -0.3875  1.5074
 6042TIP3   OH239684   2.999   5.645   0.216  0.5468  0.2202 -0.4925
 6042TIP3    H139685   2.927   5.582   0.228  0.0734  0.7322 -0.6348
 6042TIP3    H239686   3.028   5.630   0.126  1.6451 -1.0562  0.0680
 6043TIP3   OH239687   5.999   6.592   1.261 -0.1248 -0.0396 -0.4621
 6043TIP3    H139688   6.013   6.683   1.285 -0.3760 -0.1606  0.1645
 6043TIP3    H239689   6.063   6.575   1.192  1.6060 -0.0701  1.1026
 6044TIP3   OH239690   1.628   5.808   1.640 -0.7905 -0.1409 -0.2317
 6044TIP3    H139691   1.711   5.848   1.666 -1.7164  0.8138  1.3500
 6044TIP3    H239692   1.566   5.880   1.637 -1.6465 -0.8930 -1.1275
 6045TIP3   OH239693   3.449   4.317   0.762  0.2140  0.0002 -0.1368
 6045TIP3    H139694   3.469   4.281   0.848 -0.2964  0.5191  0.2011
 6045TIP3    H239695   3.378   4.379   0.778  0.4329  0.4411 -0.8602
 6046TIP3   OH239696   0.834   4.406   7.575  0.1611  0.1824  0.4876
 6046TIP3    H139697   0.903   4.438   7.633 -2.9460  1.6844  3.5407
 6046TIP3    H239698   0.838   4.311   7.583  0.4155  0.3282  2.4854
 6047TIP3   OH239699   6.173   6.183   1.331 -0.0227  0.1042  0.0012
 6047TIP3    H139700   6.089   6.188   1.285 -0.5995  1.0551  1.1338
 6047TIP3    H239701   6.238   6.183   1.261 -0.9781 -1.1216 -0.9088
 6048TIP3   OH239702   0.416   5.843   2.328  0.2879 -0.0230 -0.1030
 6048TIP3    H139703   0.358   5.854   2.403  0.4107 -0.5421  0.0727
 6048TIP3    H239704   0.445   5.931   2.306  0.0410  0.1564  0.2920
 6049TIP3   OH239705   3.680   7.055   7.250  0.2582 -0.6142 -0.4164
 6049TIP3    H139706   3.668   6.964   7.223 -0.6417 -0.3349 -0.9895
 6049TIP3    H239707   3.772   7.060   7.278  0.4847 -1.5472 -0.9645
 6050TIP3   OH239708   6.979   1.918   0.521 -0.5983 -0.7631 -0.0877
 6050TIP3    H139709   7.032   1.967   0.459 -0.9797 -4.0115 -3.0769
 6050TIP3    H239710   6.893   1.910   0.479 -1.1124 -2.3339  1.1904
 6051TIP3   OH239711   4.396   4.175   6.916 -0.4002 -0.0775 -0.2537
 6051TIP3    H139712   4.417   4.268   6.912  1.1070 -0.2224  2.9891
 6051TIP3    H239713   4.319   4.170   6.973  0.0589 -0.8856  0.3102
 6052TIP3   OH239714   7.006   6.446   7.767 -0.1855  0.6570  0.2660
 6052TIP3    H139715   7.073   6.514   7.765  0.6975 -0.2179 -1.1401
 6052TIP3    H239716   6.986   6.434   7.860  0.5823  1.9292  0.6031
 6053TIP3   OH239717   0.345   4.156   0.732 -0.1314  0.1751 -0.3608
 6053TIP3    H139718   0.255   4.131   0.750  0.4401 -1.2096  0.6518
 6053TIP3    H239719   0.350   4.249   0.756 -1.0896  0.0603  0.2898
 6054TIP3   OH239720   0.972   5.113   2.684  0.4859  0.6877  0.0628
 6054TIP3    H139721   0.912   5.152   2.620 -0.8384 -1.9102 -0.3484
 6054TIP3    H239722   0.928   5.124   2.768  0.9241  1.6198  0.1710
 6055TIP3   OH239723   6.517   2.133   1.815  0.5322 -0.0905 -0.0830
 6055TIP3    H139724   6.446   2.107   1.756  1.5594  0.1411 -1.4578
 6055TIP3    H239725   6.573   2.055   1.821 -0.6623 -0.8024  2.2843
 6056TIP3   OH239726   2.196   2.784   1.180  1.2465 -0.1276 -0.2075
 6056TIP3    H139727   2.271   2.737   1.216  1.3673  0.2181 -0.0068
 6056TIP3    H239728   2.124   2.720   1.182  1.2184 -0.0721  0.7617
 6057TIP3   OH239729   6.985   3.742   1.593  0.5981 -0.3382 -0.4081
 6057TIP3    H139730   7.026   3.825   1.617  3.5788 -1.9552  0.3827
 6057TIP3    H239731   7.001   3.685   1.668 -1.9164 -1.4870 -0.6920
 6058TIP3   OH239732   4.829   7.129   8.347  0.2817 -0.0695 -0.1543
 6058TIP3    H139733   4.920   7.099   8.344  0.1903 -0.2536 -1.1460
 6058TIP3    H239734   4.825   7.185   8.425  1.2858  0.0757 -0.2016
 6059TIP3   OH239735   6.522   6.410   2.373 -0.0462  0.0299  0.7069
 6059TIP3    H139736   6.514   6.315   2.386  0.2704  0.2290  2.4938
 6059TIP3    H239737   6.485   6.448   2.452  1.0753  1.3769  0.5977
 6060TIP3   OH239738   2.051   5.072   0.152 -0.1077 -0.2360  0.2463
 6060TIP3    H139739   2.069   4.981   0.128  1.1147 -0.1561  0.8243
 6060TIP3    H239740   2.002   5.066   0.233  0.4374 -0.3737  0.5691
 6061TIP3   OH239741   3.228   3.097   8.317 -0.2795 -0.1758 -0.1279
 6061TIP3    H139742   3.310   3.119   8.273 -0.0202 -0.9804 -0.0455
 6061TIP3    H239743   3.236   3.135   8.404 -0.6875  1.1969 -0.6746
 6062TIP3   OH239744   0.959   5.675   8.022  0.1926 -0.1125  0.3322
 6062TIP3    H139745   0.889   5.737   8.039  0.1648 -0.5231  1.6904
 6062TIP3    H239746   0.939   5.640   7.935 -1.0025  0.1392  0.4975
 6063TIP3   OH239747   6.230   5.941   2.135  0.3604 -0.1307 -0.0140
 6063TIP3    H139748   6.274   5.942   2.220  1.3649  1.0544 -0.5430
 6063TIP3    H239749   6.138   5.927   2.157  0.1996  2.8411  1.5032
 6064TIP3   OH239750   7.197   5.335   7.550 -0.0320  0.2489  0.2651
 6064TIP3    H139751   7.162   5.383   7.625  0.9155 -0.0434  0.9047
 6064TIP3    H239752   7.208   5.401   7.482  1.5070  1.0072  1.2213
 6065TIP3   OH239753   6.362   4.163   2.320  0.0988 -0.1040  0.1495
 6065TIP3    H139754   6.332   4.097   2.382 -1.0631  1.7765  1.6680
 6065TIP3    H239755   6.440   4.201   2.361 -1.1408  1.7081  0.9045
 6066TIP3   OH239756   0.498   3.845   7.915  0.1097 -0.4086  0.5469
 6066TIP3    H139757   0.592   3.837   7.905  0.2528 -1.0013  2.2047
 6066TIP3    H239758   0.470   3.900   7.842  1.7330 -0.1927  0.0801
 6067TIP3   OH239759   7.022   4.148   1.319  0.0084  0.3053 -0.2701
 6067TIP3    H139760   7.095   4.152   1.257 -0.2540  2.3263 -0.5061
 6067TIP3    H239761   7.001   4.055   1.326  1.6724 -0.1794 -1.2876
 6068TIP3   OH239762   2.225   2.400   8.409 -0.2692 -0.7249  0.4744
 6068TIP3    H139763   2.248   2.412   8.317 -0.8729 -1.0268  0.2852
 6068TIP3    H239764   2.142   2.353   8.408 -0.9657  0.4474  1.1521
 6069TIP3   OH239765   6.801   5.446   0.073  0.6482 -0.3230  0.0462
 6069TIP3    H139766   6.766   5.378   0.015  1.3547  0.2273 -1.0267
 6069TIP3    H239767   6.726   5.503   0.090  0.5542 -0.2085 -0.7257
 6070TIP3   OH239768   0.043   4.321   0.069  0.7326 -0.1292  0.1417
 6070TIP3    H139769   0.028   4.288  -0.020  0.3799  0.4347 -0.0095
 6070TIP3    H239770   0.045   4.416   0.060  0.2687 -0.0543  0.8079
 6071TIP3   OH239771   7.153   5.491   0.707  0.1015  0.4766 -0.0982
 6071TIP3    H139772   7.065   5.490   0.743 -0.5102  1.0780 -1.5418
 6071TIP3    H239773   7.145   5.447   0.622  0.9571  1.5290 -0.7445
 6072TIP3   OH239774   6.712   4.960   6.313 -0.2575  0.1044 -0.4276
 6072TIP3    H139775   6.782   5.019   6.285 -1.1297  1.5429  0.3912
 6072TIP3    H239776   6.752   4.873   6.310  0.9392  0.6872 -1.9600
 6073TIP3   OH239777   6.949   0.264   0.949  0.2455  0.0623  0.0373
 6073TIP3    H139778   6.990   0.351   0.949  0.5911 -0.0774  1.9359
 6073TIP3    H239779   6.961   0.232   0.860  3.0291  0.6346  0.1461
 6074TIP3   OH239780   3.370   3.611   6.910 -0.0610 -0.2578  0.7179
 6074TIP3    H139781   3.411   3.649   6.832  0.2536 -0.8953  0.5652
 6074TIP3    H239782   3.317   3.539   6.876  1.0860 -1.3616  1.2034
 6075TIP3   OH239783   6.758   6.322   7.591 -0.1250 -0.5870  0.4907
 6075TIP3    H139784   6.677   6.309   7.641 -1.2682  0.3173 -1.0813
 6075TIP3    H239785   6.746   6.268   7.513  0.0867  0.7832 -0.5113
 6076TIP3   OH239786   3.599   5.820   0.660 -0.1526  0.4405 -0.2410
 6076TIP3    H139787   3.620   5.799   0.569 -1.3345  0.8487 -0.6185
 6076TIP3    H239788   3.559   5.741   0.694  0.2759  0.2933 -0.0727
 6077TIP3   OH239789   7.232   3.812   1.815 -0.1484 -0.6857  0.4208
 6077TIP3    H139790   7.195   3.877   1.755  1.2152 -0.1993  0.0775
 6077TIP3    H239791   7.159   3.754   1.836 -1.0348  0.1069 -0.4203
 6078TIP3   OH239792   1.031   4.501   7.387  0.0013  0.0526  1.1825
 6078TIP3    H139793   1.065   4.586   7.414  1.4193  0.0991 -0.5971
 6078TIP3    H239794   0.936   4.507   7.399  0.0693  1.9631  0.8550
 6079TIP3   OH239795   6.162   4.138   1.980 -0.0302 -0.3248 -0.1786
 6079TIP3    H139796   6.224   4.067   1.961 -1.4034 -1.2299 -1.3868
 6079TIP3    H239797   6.116   4.109   2.059  1.5774  0.6925  1.1535
 6080TIP3   OH239798   6.998   4.588   1.183 -0.2675 -0.7022  0.1046
 6080TIP3    H139799   6.939   4.515   1.201  0.4973 -1.6484 -1.1669
 6080TIP3    H239800   6.964   4.627   1.103 -0.2932 -0.0609  0.4270
 6081TIP3   OH239801   5.927   3.853   6.709 -0.1516 -0.1667  0.0592
 6081TIP3    H139802   5.925   3.809   6.623 -1.0610 -1.8479  0.9094
 6081TIP3    H239803   6.006   3.820   6.751 -0.4465 -0.4394  0.4096
 6082TIP3   OH239804   5.443   5.300   0.399 -0.6151  0.0359  0.2562
 6082TIP3    H139805   5.518   5.333   0.349 -0.2513 -0.5995  0.3787
 6082TIP3    H239806   5.369   5.352   0.367 -0.2209  0.2861 -0.2686
 6083TIP3   OH239807   2.996   3.174   1.286 -0.2012 -0.0034 -0.3481
 6083TIP3    H139808   2.973   3.195   1.377 -0.5214 -2.6467  0.2315
 6083TIP3    H239809   3.088   3.199   1.278 -0.2311  0.4433  0.6400
 6084TIP3   OH239810   6.157   7.246   1.277 -0.0552 -0.1500  0.4033
 6084TIP3    H139811   6.196   7.186   1.214 -2.5078 -0.2203 -1.1240
 6084TIP3    H239812   6.126   7.320   1.224 -0.0753  0.8916  1.8252
 6085TIP3   OH239813   6.954   4.219   1.925  0.1357  0.3409  0.3716
 6085TIP3    H139814   6.958   4.299   1.977  2.0564  0.0377  0.7055
 6085TIP3    H239815   6.945   4.148   1.989  0.9979  0.0851  0.2098
 6086TIP3   OH239816   6.378   4.284   1.816  0.6710  0.5850  0.6152
 6086TIP3    H139817   6.294   4.328   1.802  0.3663  0.3856  1.7999
 6086TIP3    H239818   6.381   4.216   1.748  1.6014  3.0569 -1.8954
 6087TIP3   OH239819   6.135   6.211   0.120 -0.1670  0.4364  0.1316
 6087TIP3    H139820   6.136   6.124   0.081 -0.3488  0.4748  0.0410
 6087TIP3    H239821   6.225   6.243   0.109 -0.0958  0.2513  0.1872
 6088TIP3   OH239822   5.550   5.856   7.427 -0.0669  0.3109  0.5532
 6088TIP3    H139823   5.482   5.811   7.477 -1.0190  1.4774  0.3300
 6088TIP3    H239824   5.599   5.907   7.492  0.2898 -0.1399  0.6426
 6089TIP3   OH239825   6.035   6.662   1.940  0.1800 -0.0883 -0.9042
 6089TIP3    H139826   6.010   6.753   1.957  0.9686 -0.2076  1.0554
 6089TIP3    H239827   6.002   6.644   1.852 -1.9166  1.3996 -0.4660
 6090TIP3   OH239828   5.434   5.098   0.620 -1.0033  0.4427  0.3458
 6090TIP3    H139829   5.477   5.136   0.543  0.8652 -2.0312  0.1140
 6090TIP3    H239830   5.355   5.057   0.585 -0.9453  0.6422 -0.0222
 6091TIP3   OH239831   4.144   0.178   1.013  0.3795  0.2458 -0.2387
 6091TIP3    H139832   4.096   0.234   0.951 -0.1730  1.1571  1.0054
 6091TIP3    H239833   4.115   0.089   0.992 -1.2618  0.7175 -0.0378
 6092TIP3   OH239834   7.171   4.389   0.961  0.1419  0.1323  0.2268
 6092TIP3    H139835   7.175   4.316   1.023  0.3405 -0.0807 -0.0378
 6092TIP3    H239836   7.101   4.445   0.996  0.6099  0.2844  0.9294
 6093TIP3   OH239837   1.021   5.943   1.659  0.3733 -0.0483 -0.3877
 6093TIP3    H139838   1.041   5.907   1.745  0.3837  0.2622 -0.2594
 6093TIP3    H239839   0.957   6.013   1.676  0.9022  0.4854 -0.5502
 6094TIP3   OH239840   6.826   5.672   2.249 -0.1121 -0.5837  0.4474
 6094TIP3    H139841   6.910   5.625   2.257  0.6997  0.6551 -0.7269
 6094TIP3    H239842   6.760   5.605   2.270  1.0950 -1.8780  0.2244
 6095TIP3   OH239843   1.852   3.823   0.113 -1.1844  0.1281 -0.4550
 6095TIP3    H139844   1.907   3.814   0.036 -0.7657 -1.2257 -0.0023
 6095TIP3    H239845   1.777   3.875   0.082 -0.1044  1.2223 -1.2798
 6096TIP3   OH239846   0.559   3.067   8.154 -0.5629 -0.2529 -0.1973
 6096TIP3    H139847   0.615   3.095   8.227 -0.1698  0.2561 -0.6953
 6096TIP3    H239848   0.617   3.067   8.078 -1.3671  0.8343 -0.8249
 6097TIP3   OH239849   1.690   6.593   0.906  0.8541 -0.3888  0.0018
 6097TIP3    H139850   1.635   6.515   0.899 -0.5243  0.5645  0.0808
 6097TIP3    H239851   1.726   6.604   0.818  0.6803 -0.8514 -0.1309
 6098TIP3   OH239852   2.628   4.822   7.851  0.3214 -0.2090 -0.3917
 6098TIP3    H139853   2.652   4.733   7.828 -1.5962 -0.6895 -0.6444
 6098TIP3    H239854   2.543   4.836   7.808  0.5281  1.6830 -0.2482
 6099TIP3   OH239855   5.563   3.906   1.941  0.7616 -0.1475 -0.1893
 6099TIP3    H139856   5.579   3.812   1.947  1.1558 -0.0928 -0.3638
 6099TIP3    H239857   5.501   3.915   1.868  0.4960 -0.2968  0.0179
 6100TIP3   OH239858   7.242   6.528   0.465  0.1529 -0.2654  0.2892
 6100TIP3    H139859   7.181   6.506   0.536 -0.4531  0.9077  0.1445
 6100TIP3    H239860   7.322   6.480   0.487 -0.5399 -1.1613  0.9300
 6101TIP3   OH239861   0.792   5.215   0.297 -0.6691  0.0221  0.1937
 6101TIP3    H139862   0.804   5.127   0.261  0.8506  0.7516 -1.1690
 6101TIP3    H239863   0.772   5.269   0.220  0.5762  1.2364  0.7126
 6102TIP3   OH239864   4.140   6.032   0.019 -0.1952 -0.0894 -0.4108
 6102TIP3    H139865   4.147   6.128   0.024 -3.8017  0.2910 -1.7058
 6102TIP3    H239866   4.164   6.012  -0.072 -0.0537 -0.3789 -0.3093
 6103TIP3   OH239867   6.038   4.129   1.145 -0.1094  0.2981 -0.4542
 6103TIP3    H139868   5.947   4.113   1.169 -0.2345  0.9553 -0.4749
 6103TIP3    H239869   6.089   4.079   1.209 -0.4815  0.0250 -0.3708
 6104TIP3   OH239870   6.308   6.441   0.762 -0.0589  0.0418 -0.3182
 6104TIP3    H139871   6.278   6.405   0.678 -0.1391 -0.7974  0.0651
 6104TIP3    H239872   6.291   6.371   0.825  1.3491  0.1205  0.1553
 6105TIP3   OH239873   0.264   4.947   0.575 -0.0119 -0.3483  0.1833
 6105TIP3    H139874   0.201   4.988   0.516 -0.1931  0.5295  0.9888
 6105TIP3    H239875   0.313   5.020   0.613 -0.1922 -0.8746  1.4555
 6106TIP3   OH239876   4.075   5.908   1.969  0.1624 -0.4715  0.0753
 6106TIP3    H139877   4.108   5.902   1.880  1.1117  0.1799  0.3836
 6106TIP3    H239878   4.108   5.991   2.003 -1.2247 -0.1127  0.6255
 6107TIP3   OH239879   1.989   3.826   8.343  0.2933 -0.2114 -0.0986
 6107TIP3    H139880   2.067   3.801   8.393 -0.3396 -0.5152  0.7572
 6107TIP3    H239881   1.979   3.920   8.360  0.4946 -0.1665 -0.2321
 6108TIP3   OH239882   0.430   7.162   0.684 -0.3361 -0.1037 -0.6563
 6108TIP3    H139883   0.355   7.215   0.712  0.0530 -0.1733  0.5605
 6108TIP3    H239884   0.479   7.145   0.765  0.4265 -0.9424 -1.2795
 6109TIP3   OH239885   6.922   6.031   1.280  0.3474  0.3009 -0.4151
 6109TIP3    H139886   6.927   5.996   1.191  2.5202 -0.1853 -0.1364
 6109TIP3    H239887   7.011   6.021   1.315  0.1910  2.9889  0.8722
 6110TIP3   OH239888   5.091   1.093   1.636 -0.1241 -0.3695 -0.1883
 6110TIP3    H139889   5.070   1.005   1.604  1.1382 -0.2282 -1.4532
 6110TIP3    H239890   5.152   1.078   1.709  0.7537 -0.5192 -0.9461
 6111TIP3   OH239891   1.467   6.245   7.966 -0.1167  0.7493 -0.6673
 6111TIP3    H139892   1.421   6.329   7.973  3.4519  2.8182 -0.8965
 6111TIP3    H239893   1.483   6.235   7.872  0.7709  0.5911 -0.5055
 6112TIP3   OH239894   1.806   1.188   1.263 -0.1840  0.1160  0.8555
 6112TIP3    H139895   1.813   1.200   1.168  2.5007 -0.3371  0.9503
 6112TIP3    H239896   1.884   1.230   1.298 -0.4163 -0.9756  2.7435
 6113TIP3   OH239897   0.671   1.106   0.092  0.4905 -0.0389 -0.0205
 6113TIP3    H139898   0.608   1.060   0.036  0.8098 -0.9760  0.3783
 6113TIP3    H239899   0.753   1.103   0.043  0.5358  0.0213  0.0529
 6114TIP3   OH239900   0.754   6.230   1.227 -0.0223  0.3259  0.3730
 6114TIP3    H139901   0.765   6.221   1.322 -2.6282  2.1742  0.8856
 6114TIP3    H239902   0.780   6.320   1.208  0.5143 -0.0430 -0.7123
 6115TIP3   OH239903   0.761   4.557   7.812  0.2892 -0.0143 -0.0104
 6115TIP3    H139904   0.790   4.513   7.892  0.1802 -1.5112 -0.7760
 6115TIP3    H239905   0.701   4.495   7.771  0.2450  0.7940 -1.1849
 6116TIP3   OH239906   1.621   6.305   1.091 -0.3058  0.0837 -0.3107
 6116TIP3    H139907   1.671   6.376   1.133  0.2524 -1.4207  1.6278
 6116TIP3    H239908   1.573   6.265   1.163 -2.6357  0.1210 -1.8261
 6117TIP3   OH239909   6.914   6.631   1.917  0.2656  0.0121 -0.6601
 6117TIP3    H139910   6.968   6.700   1.956 -1.3611  0.0731  1.5446
 6117TIP3    H239911   6.944   6.551   1.959  0.3040 -0.2713 -1.2308
 6118TIP3   OH239912   3.150   6.074   1.035  0.3763 -0.1502  0.3159
 6118TIP3    H139913   3.214   6.078   1.106 -0.5175 -1.0985  1.1854
 6118TIP3    H239914   3.065   6.088   1.078 -0.2522 -1.5706 -0.4135
 6119TIP3   OH239915   1.938   1.231   0.336  0.2001 -0.1899 -0.0019
 6119TIP3    H139916   1.949   1.181   0.417  0.9643 -0.2227 -0.1268
 6119TIP3    H239917   1.846   1.216   0.312 -0.3630  0.7479  1.4651
 6120TIP3   OH239918   0.206   4.780   1.321  0.7388  0.2409 -0.2214
 6120TIP3    H139919   0.142   4.849   1.302 -1.3166 -1.3629  0.5854
 6120TIP3    H239920   0.290   4.824   1.320 -0.6448  3.1252  1.8055
 6121TIP3   OH239921   4.783   4.163   2.166 -0.0657  0.2790  0.2094
 6121TIP3    H139922   4.838   4.238   2.187  1.3106 -1.0909  1.7133
 6121TIP3    H239923   4.844   4.098   2.130 -1.1473 -0.3016 -0.6070
 6122TIP3   OH239924   7.067   6.159   0.870  0.3884  0.2391 -0.5550
 6122TIP3    H139925   7.065   6.165   0.775  2.1065 -1.8236 -0.7680
 6122TIP3    H239926   7.025   6.075   0.890  1.3272 -0.0158  0.3858
 6123TIP3   OH239927   7.106   5.123   2.570  0.0341 -0.2763 -0.3279
 6123TIP3    H139928   7.130   5.088   2.655 -1.7177 -0.2142  0.2246
 6123TIP3    H239929   7.011   5.112   2.565  0.3327 -2.1360 -3.1262
 6124TIP3   OH239930   1.001   5.477   6.996 -0.4376  0.1895 -0.1258
 6124TIP3    H139931   1.034   5.503   6.909  0.8928 -0.0300  0.2945
 6124TIP3    H239932   1.069   5.507   7.056 -0.5139 -1.2295  0.6790
 6125TIP3   OH239933   4.556   1.212   1.007 -0.8580 -0.0943  0.2334
 6125TIP3    H139934   4.591   1.124   0.992  0.8448  0.5002  0.5909
 6125TIP3    H239935   4.616   1.251   1.071 -1.7125  1.2555  0.2286
 6126TIP3   OH239936   2.798   2.120   8.355  0.2984 -0.4893  0.3557
 6126TIP3    H139937   2.759   2.032   8.349 -3.2777  0.8485  2.6463
 6126TIP3    H239938   2.810   2.146   8.263 -1.6950 -2.0560 -0.3977
 6127TIP3   OH239939   0.910   5.168   1.105  0.0439  0.1629  0.4028
 6127TIP3    H139940   0.943   5.079   1.106 -1.4155 -0.4191 -1.0690
 6127TIP3    H239941   0.827   5.163   1.152  0.6016  1.0239  1.5002
 6128TIP3   OH239942   6.308   4.939   1.381 -0.3026 -0.0126  0.6038
 6128TIP3    H139943   6.404   4.947   1.381 -0.2421 -0.5151 -1.8433
 6128TIP3    H239944   6.277   5.025   1.409  0.8357  0.5493  0.1871
 6129TIP3   OH239945   2.476   4.277   0.428 -0.3780 -0.1296  0.1514
 6129TIP3    H139946   2.528   4.357   0.425  1.2055 -1.1632 -0.9686
 6129TIP3    H239947   2.424   4.285   0.508  2.0606  0.5818  1.7199
 6130TIP3   OH239948   5.539   6.716   7.747 -0.1555 -0.8697 -0.7753
 6130TIP3    H139949   5.459   6.721   7.694 -0.1622  0.2337 -0.6550
 6130TIP3    H239950   5.603   6.768   7.698  0.0545 -0.4819 -0.0809
 6131TIP3   OH239951   2.073   4.728   1.700 -1.0436 -0.5423  0.0200
 6131TIP3    H139952   2.161   4.762   1.719 -1.3679  1.1985 -1.4616
 6131TIP3    H239953   2.063   4.654   1.760  1.0789 -0.2061  0.8507
 6132TIP3   OH239954   0.135   3.808   2.145 -0.0855 -0.1591 -1.0467
 6132TIP3    H139955   0.062   3.862   2.175  0.1838  0.2343 -1.0973
 6132TIP3    H239956   0.171   3.770   2.226 -0.0329  0.0442 -0.9750
 6133TIP3   OH239957   6.309   6.323   7.834 -0.3534 -0.2654 -0.6958
 6133TIP3    H139958   6.256   6.256   7.791  0.0503 -0.1068 -1.4590
 6133TIP3    H239959   6.368   6.274   7.891 -0.7812 -0.4932 -0.4566
 6134TIP3   OH239960   3.356   5.535   7.516 -0.2385  0.6362  0.0859
 6134TIP3    H139961   3.316   5.556   7.431 -1.0405 -0.3997  0.1888
 6134TIP3    H239962   3.441   5.577   7.513  0.0461  0.0034 -1.5454
 6135TIP3   OH239963   0.337   7.181   7.495 -0.1365  0.0329 -0.1352
 6135TIP3    H139964   0.299   7.097   7.519  0.4535 -0.2848 -0.3058
 6135TIP3    H239965   0.427   7.160   7.469 -0.0644  0.6806 -0.4147
 6136TIP3   OH239966   0.628   0.539   0.384  0.3949  0.4132 -0.4518
 6136TIP3    H139967   0.620   0.593   0.306  3.9869 -0.8362 -1.8042
 6136TIP3    H239968   0.590   0.455   0.360  1.6348 -0.0186 -0.9410
 6137TIP3   OH239969   1.120   5.144   1.855 -0.2545  0.1308 -0.1967
 6137TIP3    H139970   1.055   5.100   1.910 -1.9775 -0.1508 -2.4268
 6137TIP3    H239971   1.200   5.094   1.868 -0.7080 -0.1185  1.8014
 6138TIP3   OH239972   5.563   0.365   8.050 -0.4304 -0.0872  0.1120
 6138TIP3    H139973   5.551   0.392   7.959 -3.0141  3.5076  1.4249
 6138TIP3    H239974   5.478   0.330   8.077  0.2656 -0.9727  1.2273
 6139TIP3   OH239975   5.873   0.735   6.691  0.2195  0.4308  0.1601
 6139TIP3    H139976   5.831   0.776   6.615 -1.2894 -0.3539  0.5457
 6139TIP3    H239977   5.957   0.703   6.657  0.4147  1.7853 -0.6943
 6140TIP3   OH239978   2.670   4.971   1.006 -1.0659  0.1939 -0.2175
 6140TIP3    H139979   2.659   4.909   1.079  1.0493  0.3043  0.2181
 6140TIP3    H239980   2.636   4.924   0.930 -1.6871 -0.5901  0.5247
 6141TIP3   OH239981   6.924   1.367   1.808 -0.3727 -0.1176  0.3111
 6141TIP3    H139982   6.856   1.337   1.747 -0.0138 -0.5512  0.1277
 6141TIP3    H239983   7.006   1.336   1.770 -0.2073 -0.9754  1.3776
 6142TIP3   OH239984   0.293   1.465   0.629 -0.4279  0.1540 -0.1580
 6142TIP3    H139985   0.358   1.528   0.597 -0.8491  0.7452  0.1309
 6142TIP3    H239986   0.260   1.422   0.550 -0.6902  0.8438 -0.4301
 6143TIP3   OH239987   0.097   4.032   0.670 -0.5440  0.6343 -0.1598
 6143TIP3    H139988   0.120   4.007   0.581 -0.1717  1.8087 -0.4033
 6143TIP3    H239989   0.006   4.062   0.664 -0.7764 -0.0276  0.0083
 6144TIP3   OH239990   1.744   0.105   0.149  0.1770 -0.0291 -0.6823
 6144TIP3    H139991   1.779   0.124   0.236  0.6232 -1.2163 -0.5884
 6144TIP3    H239992   1.773   0.178   0.094  2.0793 -0.5571 -0.4185
 6145TIP3   OH239993   0.510   2.200   7.369  0.4036  0.3277  0.1845
 6145TIP3    H139994   0.578   2.268   7.364  1.1261 -0.3604  0.6091
 6145TIP3    H239995   0.445   2.237   7.429  1.4308  0.1179  1.4603
 6146TIP3   OH239996   1.308   1.078   6.310  0.2867  0.1893  0.1596
 6146TIP3    H139997   1.261   1.011   6.262  0.5154  1.4240 -1.8639
 6146TIP3    H239998   1.400   1.067   6.283  0.4571  0.7409  0.4946
 6147TIP3   OH239999   2.193   1.147   0.774  0.2561  0.3551 -0.1000
 6147TIP3    H140000   2.234   1.117   0.693  1.1506 -1.0479  0.8518
 6147TIP3    H240001   2.166   1.237   0.755 -0.7883 -0.4093 -2.3924
 6148TIP3   OH240002   0.021   6.905   2.045 -0.0772  0.5259  0.1049
 6148TIP3    H140003   0.027   6.810   2.054 -0.2304  0.4624 -0.4191
 6148TIP3    H240004   0.050   6.939   2.129 -3.0374 -0.0679  1.4343
 6149TIP3   OH240005   2.400   7.043   0.536  0.8407 -0.7562  0.1332
 6149TIP3    H140006   2.465   7.111   0.557 -0.0155  0.0502  0.2022
 6149TIP3    H240007   2.392   7.048   0.441 -0.7274  0.6559  0.3163
 6150TIP3   OH240008   1.503   6.218   7.186  0.0551  0.1569  0.1448
 6150TIP3    H140009   1.506   6.163   7.107 -0.9757 -0.8177  0.7672
 6150TIP3    H240010   1.556   6.294   7.164 -0.6221  0.1264 -1.6864
 6151TIP3   OH240011   2.500   0.208   8.050  0.2360 -0.2304 -0.3193
 6151TIP3    H140012   2.586   0.194   8.010  0.3953 -1.8159  0.5132
 6151TIP3    H240013   2.458   0.122   8.044 -0.9640  0.3289  0.0496
 6152TIP3   OH240014   2.868   0.582   1.274 -0.2731  0.7384  0.0108
 6152TIP3    H140015   2.840   0.673   1.274 -0.3264  0.7320 -1.0703
 6152TIP3    H240016   2.796   0.534   1.315 -0.4005  1.1393  0.2547
 6153TIP3   OH240017   4.192   5.354   8.203  0.5620  0.7102 -0.1340
 6153TIP3    H140018   4.126   5.303   8.249  1.6915 -0.5097  0.1599
 6153TIP3    H240019   4.264   5.363   8.266  1.5107  0.2884 -1.1380
 6154TIP3   OH240020   3.582   0.387   1.468  0.3542 -0.1905 -0.0567
 6154TIP3    H140021   3.642   0.357   1.536  0.0110  2.4084  1.4604
 6154TIP3    H240022   3.518   0.442   1.515 -1.9890 -1.2275 -1.9392
 6155TIP3   OH240023   1.368   0.063   6.754 -0.1219  0.4411  0.2962
 6155TIP3    H140024   1.362  -0.002   6.824 -0.9467  1.3369  1.0642
 6155TIP3    H240025   1.461   0.084   6.749  0.1898 -0.9690 -0.1283
 6156TIP3   OH240026   2.451   6.875   0.727  0.3198  0.1181  0.5514
 6156TIP3    H140027   2.409   6.948   0.682  0.3432 -0.2376 -0.0515
 6156TIP3    H240028   2.399   6.799   0.701  1.6214 -0.3944 -0.5617
 6157TIP3   OH240029   2.516   0.722   1.246 -0.0666  0.0060 -0.0224
 6157TIP3    H140030   2.597   0.772   1.251  0.3895 -0.7667  0.5362
 6157TIP3    H240031   2.545   0.630   1.241 -0.8863 -0.2209 -0.8186
 6158TIP3   OH240032   2.413   0.988   6.583  0.1075 -0.0516  0.3027
 6158TIP3    H140033   2.437   1.035   6.503 -1.3762 -0.5018 -0.4186
 6158TIP3    H240034   2.334   1.033   6.614 -0.0269 -0.6612  0.8452
 6159TIP3   OH240035   7.193   5.650   7.514 -0.7043 -0.3782 -0.0950
 6159TIP3    H140036   7.182   5.713   7.443  0.1539 -2.0404 -1.7345
 6159TIP3    H240037   7.153   5.693   7.590  0.8993  2.6303 -0.8568
 6160TIP3   OH240038   2.348   7.301   1.890  0.3928 -0.3425  0.1142
 6160TIP3    H140039   2.383   7.223   1.933 -0.7258  0.1528  1.9925
 6160TIP3    H240040   2.367   7.372   1.951 -2.5922  0.1495  0.5633
 6161TIP3   OH240041   1.476   5.284   6.513  0.4263 -0.7422  0.7371
 6161TIP3    H140042   1.490   5.209   6.456 -1.6376 -1.6595  1.4052
 6161TIP3    H240043   1.536   5.269   6.587  2.3921 -0.0410 -0.6929
 6162TIP3   OH240044   1.017   6.598   0.070 -0.5750  0.3382 -0.1408
 6162TIP3    H140045   1.012   6.681   0.022  0.3480 -0.0023 -0.8283
 6162TIP3    H240046   0.982   6.533   0.009 -1.2308  0.2010  0.3717
 6163TIP3   OH240047   2.055   6.972   0.986 -0.3171 -0.6534 -0.1261
 6163TIP3    H140048   2.100   6.891   1.011  0.0199 -0.7557 -1.0547
 6163TIP3    H240049   2.077   6.985   0.894 -1.4693 -0.2224 -0.3578
 6164TIP3   OH240050   2.400   0.844   8.479 -0.0375 -0.3025 -0.2539
 6164TIP3    H140051   2.368   0.924   8.439  1.1066  0.2011 -0.1657
 6164TIP3    H240052   2.338   0.777   8.451 -1.2722  0.6938  0.0650
 6165TIP3   OH240053   1.276   1.157   7.793 -0.0183  0.4315 -0.0341
 6165TIP3    H140054   1.334   1.224   7.758 -0.7942  1.0707 -0.1194
 6165TIP3    H240055   1.191   1.201   7.801 -0.0349  0.0901  1.9411
 6166TIP3   OH240056   3.384   5.106   0.940 -0.5907  0.2073 -0.2933
 6166TIP3    H140057   3.437   5.032   0.912  1.1695  1.9742 -1.7677
 6166TIP3    H240058   3.363   5.087   1.032  4.4512  0.4581  1.0580
 6167TIP3   OH240059   3.259   4.167   0.293 -0.7760 -0.0592 -0.2176
 6167TIP3    H140060   3.306   4.157   0.377 -0.7477 -0.7621 -0.3136
 6167TIP3    H240061   3.326   4.201   0.233 -0.5173 -0.5643 -0.2217
 6168TIP3   OH240062   2.622   3.836   0.870 -0.1164  0.3828  0.2695
 6168TIP3    H140063   2.604   3.919   0.914 -3.3686  1.2831 -2.5060
 6168TIP3    H240064   2.674   3.861   0.794 -0.8943 -0.1181 -0.4376
 6169TIP3   OH240065   4.305   6.940   0.691  0.7460  0.3014  0.1242
 6169TIP3    H140066   4.266   7.027   0.678 -0.0463  0.2032  1.8263
 6169TIP3    H240067   4.237   6.889   0.734  1.2146 -1.1823 -0.8463
 6170TIP3   OH240068   1.475   7.147   1.496  0.9623 -0.2288  0.6861
 6170TIP3    H140069   1.398   7.092   1.482  2.2272 -1.4763 -1.6333
 6170TIP3    H240070   1.521   7.107   1.570  0.2951 -0.4865  0.9642
 6171TIP3   OH240071   5.417   0.505   0.011  0.2966 -0.4959 -0.4133
 6171TIP3    H140072   5.464   0.489   0.093 -0.6173 -0.8921  0.0409
 6171TIP3    H240073   5.339   0.451   0.018  0.5173 -1.0111 -1.8263
 6172TIP3   OH240074   2.349   4.817   7.799  0.4180 -0.6492 -0.0363
 6172TIP3    H140075   2.312   4.771   7.724  0.9595 -1.0208 -0.0756
 6172TIP3    H240076   2.278   4.819   7.863  0.2549 -1.1652 -0.1963
 6173TIP3   OH240077   0.446   0.053   1.296 -0.3797 -0.0481 -0.9080
 6173TIP3    H140078   0.359   0.016   1.310 -0.3820 -0.5672 -2.2182
 6173TIP3    H240079   0.462   0.107   1.373 -1.4514 -0.7363 -0.1898
 6174TIP3   OH240080   2.579   2.109   1.786  0.9491  0.2201  0.0537
 6174TIP3    H140081   2.556   2.029   1.739  0.2434  0.0491  0.6707
 6174TIP3    H240082   2.646   2.151   1.732  0.5922 -0.2794 -0.7833
 6175TIP3   OH240083   4.529   5.186   1.536 -0.0326  0.1656  0.1773
 6175TIP3    H140084   4.591   5.129   1.581 -1.4518 -1.6249 -0.0732
 6175TIP3    H240085   4.456   5.195   1.597 -0.7835 -0.1006 -0.6733
 6176TIP3   OH240086   1.858   6.301   0.222 -0.2338 -0.1465 -0.4738
 6176TIP3    H140087   1.781   6.276   0.273 -0.3754  0.8576 -0.1866
 6176TIP3    H240088   1.823   6.357   0.152  0.2905  0.7148 -0.0536
 6177TIP3   OH240089   2.094   0.353   0.988 -0.1698  0.0080  0.7132
 6177TIP3    H140090   2.079   0.417   1.058 -2.4697 -0.8579  1.0506
 6177TIP3    H240091   2.062   0.397   0.909  0.2613  0.0841  0.5775
 6178TIP3   OH240092   0.375   0.756   2.364  0.5353 -0.3171  0.3242
 6178TIP3    H140093   0.352   0.849   2.369  2.1409  0.0656  1.1138
 6178TIP3    H240094   0.349   0.720   2.449 -0.8831 -0.8027 -0.2965
 6179TIP3   OH240095   0.031   7.231   1.042  0.4071  0.4183 -0.6150
 6179TIP3    H140096  -0.033   7.287   0.998 -0.9919  1.1094  2.1651
 6179TIP3    H240097   0.097   7.293   1.076 -1.4582  0.6013  2.9894
 6180TIP3   OH240098   6.635   4.939   0.665 -0.8598  0.1897 -0.4646
 6180TIP3    H140099   6.563   4.998   0.646 -1.9783 -1.1705 -0.5049
 6180TIP3    H240100   6.683   4.981   0.736 -0.8522  1.7879 -1.4030
 6181TIP3   OH240101   5.620   1.357   1.075  0.2312 -0.7997 -0.4981
 6181TIP3    H140102   5.602   1.266   1.101  3.7614 -1.1580  1.0143
 6181TIP3    H240103   5.560   1.409   1.128  0.7039 -2.0833  1.3758
 6182TIP3   OH240104   6.989   0.621   0.669 -0.8706  0.8729  0.3301
 6182TIP3    H140105   6.920   0.559   0.648  0.2170 -0.3514  0.3404
 6182TIP3    H240106   6.946   0.688   0.722 -1.2060 -2.0824  3.9350
 6183TIP3   OH240107   2.317   6.617   0.814  0.1021 -0.1437 -0.2453
 6183TIP3    H140108   2.334   6.605   0.720  2.0139 -1.2178  0.2072
 6183TIP3    H240109   2.342   6.534   0.853 -0.6355  0.3206  1.2491
 6184TIP3   OH240110   0.638   7.176   0.247 -0.3996 -0.2391  0.1649
 6184TIP3    H140111   0.584   7.218   0.314 -1.6471 -1.1635 -0.2411
 6184TIP3    H240112   0.717   7.229   0.243 -0.9249  0.6508  1.3699
 6185TIP3   OH240113   6.243   5.600   7.514 -0.2506  0.4037  0.3316
 6185TIP3    H140114   6.254   5.692   7.490  1.1514  0.1579 -0.0545
 6185TIP3    H240115   6.151   5.592   7.539 -0.7043  1.6209 -0.8601
 6186TIP3   OH240116   2.750   6.698   1.246 -0.6096  0.1661 -0.2024
 6186TIP3    H140117   2.742   6.775   1.189  1.1838  0.6502  0.1337
 6186TIP3    H240118   2.662   6.663   1.253 -1.2359  1.4545 -1.4116
 6187TIP3   OH240119   1.493   4.566   1.709  0.3952  0.1926  0.1402
 6187TIP3    H140120   1.406   4.576   1.670  0.2435  0.0985  0.4541
 6187TIP3    H240121   1.500   4.637   1.773  0.3744 -0.0723  0.4360
 6188TIP3   OH240122   4.073   0.865   0.865 -0.0549 -0.1707  0.0728
 6188TIP3    H140123   3.988   0.822   0.855 -0.1386 -0.5710  2.3136
 6188TIP3    H240124   4.061   0.927   0.937  1.3008  0.3992 -0.1762
 6189TIP3   OH240125   6.515   1.191   7.722 -0.5825  0.7469  0.0930
 6189TIP3    H140126   6.428   1.184   7.761 -0.5017 -1.9731 -0.0619
 6189TIP3    H240127   6.575   1.193   7.796 -0.7778  3.8723  0.2358
 6190TIP3   OH240128   1.099   4.637   1.676  0.3122 -0.0524  0.5891
 6190TIP3    H140129   1.148   4.581   1.617 -0.7773 -0.9813  0.5550
 6190TIP3    H240130   1.130   4.613   1.763 -2.4111 -3.0538  0.8423
 6191TIP3   OH240131   0.469   0.757   7.164  0.1837 -0.4188 -0.1037
 6191TIP3    H140132   0.564   0.755   7.173  0.1440 -2.4351  0.0863
 6191TIP3    H240133   0.454   0.756   7.069  0.3411  1.6543 -0.1851
 6192TIP3   OH240134   0.485   0.539   1.677 -0.1433 -0.0868  0.0400
 6192TIP3    H140135   0.565   0.487   1.676 -0.4313 -0.6394  2.4258
 6192TIP3    H240136   0.495   0.599   1.603  1.2405 -1.9475 -1.3371
 6193TIP3   OH240137   1.528   5.598   1.126 -0.5907  0.0660 -0.1416
 6193TIP3    H140138   1.531   5.536   1.199 -1.9791  1.1185  0.8062
 6193TIP3    H240139   1.540   5.684   1.166  0.4693  0.5030 -1.3632
 6194TIP3   OH240140   0.716   2.305   1.041 -0.0336  0.2004  0.5404
 6194TIP3    H140141   0.707   2.210   1.043 -0.6740  0.2428 -0.1484
 6194TIP3    H240142   0.763   2.327   1.121  3.3837 -1.0254 -1.0356
 6195TIP3   OH240143   1.806   6.163   0.817 -0.4595 -0.3207  0.2550
 6195TIP3    H140144   1.825   6.250   0.780 -0.9827  0.4395  1.7145
 6195TIP3    H240145   1.815   6.103   0.743  1.1882  0.8147 -0.5202
 6196TIP3   OH240146   6.178   0.773   1.851  0.3683 -0.1455 -0.1889
 6196TIP3    H140147   6.250   0.785   1.789  0.6197 -0.0108  0.1319
 6196TIP3    H240148   6.102   0.756   1.796  0.3766  1.0510 -0.5741
 6197TIP3   OH240149   1.790   0.096   1.318 -0.2839 -0.4027 -0.0623
 6197TIP3    H140150   1.827   0.184   1.312  1.3220 -1.0166  0.5435
 6197TIP3    H240151   1.697   0.110   1.335 -0.1979  1.1709 -0.8317
 6198TIP3   OH240152   0.713   6.791   7.437 -0.5607 -0.5108  0.2948
 6198TIP3    H140153   0.796   6.829   7.409 -0.7365  0.8231  1.5689
 6198TIP3    H240154   0.735   6.740   7.515 -1.1809  1.1233  1.5639
 6199TIP3   OH240155   1.779   3.084   8.194 -0.7194  0.0333 -0.0967
 6199TIP3    H140156   1.766   3.176   8.219 -1.0540 -0.2742  0.8952
 6199TIP3    H240157   1.868   3.065   8.221 -0.4419  0.2450 -0.8672
 6200TIP3   OH240158   1.082   4.279   8.013  0.0652 -0.6084  0.0154
 6200TIP3    H140159   1.171   4.296   7.983  0.8292 -1.6424  1.5793
 6200TIP3    H240160   1.071   4.185   8.003 -1.0965 -0.3899 -0.7898
 6201TIP3   OH240161   0.008   5.874   6.953  0.0304  0.3611  0.4108
 6201TIP3    H140162   0.098   5.851   6.928 -0.6553 -1.4452 -0.5010
 6201TIP3    H240163  -0.030   5.909   6.872 -0.6242 -0.6243  0.2770
 6202TIP3   OH240164   2.697   7.176   2.151 -0.4781  0.0832 -0.0973
 6202TIP3    H140165   2.749   7.097   2.164 -0.9911 -0.0621  1.1310
 6202TIP3    H240166   2.755   7.248   2.176 -0.3196  0.0298 -0.3145
 6203TIP3   OH240167   2.783   4.490   7.358  0.0676  0.2110 -0.0445
 6203TIP3    H140168   2.820   4.460   7.441 -0.7565 -1.6304 -0.3118
 6203TIP3    H240169   2.693   4.514   7.379 -0.4014 -1.0507 -0.5389
 6204TIP3   OH240170   5.848   6.833   2.184 -0.6745  0.1301  0.5083
 6204TIP3    H140171   5.825   6.911   2.234 -3.3888 -0.9516  1.0441
 6204TIP3    H240172   5.937   6.813   2.210  0.2891  3.3374 -0.0420
 6205TIP3   OH240173   3.138   4.457   2.374  0.1717 -0.8416  0.6623
 6205TIP3    H140174   3.156   4.365   2.356 -0.3279 -0.8694  0.2745
 6205TIP3    H240175   3.221   4.494   2.403  1.9239 -0.0364 -4.8678
 6206TIP3   OH240176   2.942   5.051   7.695  0.5207  0.3225  0.1206
 6206TIP3    H140177   3.034   5.057   7.669  0.5384  1.7886  0.4728
 6206TIP3    H240178   2.900   5.126   7.652 -0.6499 -0.7728 -0.6437
 6207TIP3   OH240179   1.419   3.988   7.365  0.0362  0.6061  0.2364
 6207TIP3    H140180   1.372   3.955   7.288  1.1603 -0.4896  0.0023
 6207TIP3    H240181   1.479   4.054   7.330  0.0666  0.5998  0.2764
 6208TIP3   OH240182   0.520   5.127   7.864  0.6214 -0.4345  0.4981
 6208TIP3    H140183   0.450   5.064   7.875  0.3653 -0.5064 -1.3248
 6208TIP3    H240184   0.598   5.084   7.898 -0.3449 -0.0319  3.3217
 6209TIP3   OH240185   0.881   2.091   7.807 -0.4058  0.0779 -0.1730
 6209TIP3    H140186   0.818   2.161   7.791 -0.0010  0.4505 -0.1471
 6209TIP3    H240187   0.932   2.086   7.726  0.6176  0.9051  0.4105
 6210TIP3   OH240188   1.779   3.356   8.268  0.1218  0.4045  0.1024
 6210TIP3    H140189   1.755   3.437   8.223  1.2071  0.8033  0.2362
 6210TIP3    H240190   1.759   3.374   8.360  1.7145  1.0371  0.3276
 6211TIP3   OH240191   5.183   5.860   6.932 -0.1159  0.3883  0.0132
 6211TIP3    H140192   5.196   5.908   6.850 -0.3163 -0.5953 -0.6055
 6211TIP3    H240193   5.095   5.823   6.924 -0.2358  0.4978  0.7875
 6212TIP3   OH240194   3.466   1.430   1.710  0.5469 -0.1892 -0.2153
 6212TIP3    H140195   3.523   1.496   1.671  1.6612 -2.2043 -2.1123
 6212TIP3    H240196   3.484   1.434   1.803  3.3820 -0.3387 -0.7069
 6213TIP3   OH240197   7.115   0.504   7.595 -0.3530 -0.1506  0.5065
 6213TIP3    H140198   7.117   0.594   7.628 -0.8616  0.3544 -0.8184
 6213TIP3    H240199   7.066   0.455   7.661 -2.7825  1.1818 -0.2620
 6214TIP3   OH240200   6.527   2.309   1.070  0.2792 -0.3248  0.6103
 6214TIP3    H140201   6.470   2.292   0.995  1.0496  0.2013 -0.1123
 6214TIP3    H240202   6.467   2.324   1.143 -0.4518 -3.3746  0.6843
 6215TIP3   OH240203   2.125   6.176   6.472  0.0027  0.0359  0.1618
 6215TIP3    H140204   2.141   6.153   6.380  0.7540 -2.1171  0.7947
 6215TIP3    H240205   2.128   6.092   6.518 -0.3271  1.1024  2.1570
 6216TIP3   OH240206   7.099   5.633   2.281  0.6668 -0.1404  0.3874
 6216TIP3    H140207   7.124   5.669   2.366 -1.7224  1.0747  0.6313
 6216TIP3    H240208   7.079   5.710   2.228 -2.7744 -0.9752  0.3442
 6217TIP3   OH240209   2.937   0.286   1.150  0.2444 -0.1361 -0.0562
 6217TIP3    H140210   2.888   0.298   1.232 -2.5789 -0.6740 -1.6040
 6217TIP3    H240211   2.972   0.197   1.157  1.6625  0.5039  1.3757
 6218TIP3   OH240212   1.412   6.255   1.368 -0.2563  0.6248 -0.1145
 6218TIP3    H140213   1.488   6.280   1.420 -0.5582  1.1305  0.0811
 6218TIP3    H240214   1.345   6.231   1.433  0.1403 -1.0272 -0.2962
 6219TIP3   OH240215   3.122   0.758   8.113  0.2206 -0.1202 -0.1462
 6219TIP3    H140216   3.087   0.768   8.202 -0.4449  1.2109 -0.5471
 6219TIP3    H240217   3.054   0.792   8.056  1.4023  0.7723 -1.0614
 6220TIP3   OH240218   0.287   0.905   1.575 -0.0320  0.2418 -0.3781
 6220TIP3    H140219   0.205   0.931   1.616  0.8546  1.9176  0.3829
 6220TIP3    H240220   0.271   0.912   1.481 -1.9522 -3.2289 -0.3933
 6221TIP3   OH240221   0.861   0.383   2.234 -0.2100  0.2617 -0.4242
 6221TIP3    H140222   0.806   0.307   2.217 -0.0705  0.3352 -1.1803
 6221TIP3    H240223   0.945   0.347   2.262 -0.7369  0.1471  1.0980
 6222TIP3   OH240224   1.145   1.022   1.924 -0.0265  0.2613  0.5165
 6222TIP3    H140225   1.123   1.074   2.001  0.4004 -0.1607  0.9267
 6222TIP3    H240226   1.199   0.951   1.958  0.4870  0.2938 -0.2292
 6223TIP3   OH240227   0.206   0.831   2.136  0.0386  0.4184  0.4787
 6223TIP3    H140228   0.163   0.773   2.199 -0.2463  0.6623  0.5071
 6223TIP3    H240229   0.149   0.908   2.131 -0.4893 -0.0337 -0.8455
 6224TIP3   OH240230   0.313   1.216   1.700 -0.0471  0.4686  0.3773
 6224TIP3    H140231   0.378   1.176   1.643  0.2393 -0.9409  1.6517
 6224TIP3    H240232   0.243   1.245   1.641  0.5440 -0.3436 -0.7429
 6225TIP3   OH240233   2.189   5.841   0.625  0.1420  0.0184 -0.5312
 6225TIP3    H140234   2.266   5.878   0.582 -0.4172 -0.3506 -1.8655
 6225TIP3    H240235   2.162   5.769   0.568 -1.4280  0.3999 -0.2840
 6226TIP3   OH240236   5.242   0.685   7.040  0.1043  0.2996 -0.0018
 6226TIP3    H140237   5.178   0.729   7.096 -1.1530  1.6190 -2.3927
 6226TIP3    H240238   5.202   0.685   6.953  2.0949 -1.5128 -0.9642
 6227TIP3   OH240239   3.045   7.272   1.528 -0.4614 -0.6574  0.0411
 6227TIP3    H140240   2.969   7.239   1.480  1.0660 -0.0049 -2.9615
 6227TIP3    H240241   3.083   7.338   1.471  0.6938  1.1750  2.8046
 6228TIP3   OH240242   6.691   6.701   7.541  0.3018  0.3219  0.2014
 6228TIP3    H140243   6.729   6.766   7.483  0.0867 -0.6623 -1.0713
 6228TIP3    H240244   6.597   6.720   7.539  0.3717  0.7308  0.7894
 6229TIP3   OH240245   0.103   3.830   7.939  0.1727 -0.5669  0.1076
 6229TIP3    H140246   0.088   3.880   7.859 -0.2011 -0.2428  0.3703
 6229TIP3    H240247   0.079   3.740   7.917 -1.3848 -0.2157  0.2615
 6230TIP3   OH240248   7.041   6.983   7.602 -0.3815  0.1019  0.2950
 6230TIP3    H140249   6.979   7.042   7.647 -0.8070  0.2165 -0.4376
 6230TIP3    H240250   7.127   7.021   7.620 -0.4705 -0.3375  1.7430
 6231TIP3   OH240251   6.890   1.640   7.742 -0.4679 -0.1437  0.3889
 6231TIP3    H140252   6.825   1.570   7.750  1.2732 -1.9976 -1.1114
 6231TIP3    H240253   6.951   1.608   7.676  1.5662  1.8858  1.2344
 6232TIP3   OH240254   1.749   6.079   2.453  0.0366 -0.1981 -0.0828
 6232TIP3    H140255   1.757   6.029   2.372 -0.8043 -2.1642  0.9870
 6232TIP3    H240256   1.839   6.091   2.483  0.2905 -0.4660 -0.7395
 6233TIP3   OH240257   5.814   0.227   1.182  0.5134 -0.4947  0.7315
 6233TIP3    H140258   5.847   0.290   1.245 -0.3355  0.3102  0.3726
 6233TIP3    H240259   5.726   0.205   1.213  0.4692 -0.8330  0.3766
 6234TIP3   OH240260   1.486   0.958   0.379 -0.2926  0.1348  0.9819
 6234TIP3    H140261   1.512   0.973   0.470 -0.5907  1.8978  0.7911
 6234TIP3    H240262   1.568   0.946   0.332  0.0997  3.0925  0.8316
 6235TIP3   OH240263   2.121   5.965   0.099 -0.3746  0.2890 -0.2722
 6235TIP3    H140264   2.183   5.911   0.148 -0.7089 -0.8348 -1.0812
 6235TIP3    H240265   2.173   6.040   0.069 -0.7583  2.5530  4.2089
 6236TIP3   OH240266   4.494   4.721   0.680  0.2380 -0.2415  0.2104
 6236TIP3    H140267   4.526   4.659   0.745  0.7865  0.7299  0.8731
 6236TIP3    H240268   4.560   4.790   0.677 -1.0837  1.0766  0.5766
 6237TIP3   OH240269   4.733   4.453   6.980  0.1902  0.0312 -0.3589
 6237TIP3    H140270   4.809   4.436   7.035 -0.6718 -0.9388  0.5616
 6237TIP3    H240271   4.709   4.544   7.001  1.4987  0.5771 -1.1807
 6238TIP3   OH240272   0.486   7.200   1.621 -0.2686  0.2297 -0.5406
 6238TIP3    H140273   0.401   7.182   1.581  0.5633 -1.0199 -1.7885
 6238TIP3    H240274   0.488   7.144   1.699 -1.4425  1.8490  0.6852
 6239TIP3   OH240275   6.194   6.855   1.364 -0.2016  0.2885  0.3801
 6239TIP3    H140276   6.238   6.927   1.409 -1.1424  0.4509  1.0520
 6239TIP3    H240277   6.264   6.811   1.316  0.7233  0.4688  1.5316
 6240TIP3   OH240278   1.369   1.380   0.471  0.0257 -0.1583 -0.0941
 6240TIP3    H140279   1.332   1.460   0.509  0.7278 -1.1502  2.8131
 6240TIP3    H240280   1.463   1.388   0.486  0.1302 -1.3789 -0.0553
 6241TIP3   OH240281   0.894   5.020   1.999  0.5499  0.1803 -0.5245
 6241TIP3    H140282   0.909   5.085   2.067  1.0271  0.1457 -0.5929
 6241TIP3    H240283   0.958   4.951   2.017 -0.1361 -0.4055 -0.2855
 6242TIP3   OH240284   3.706   3.710   0.977  0.0142  0.0030  0.2180
 6242TIP3    H140285   3.620   3.699   1.017  0.7261  0.6352  1.9384
 6242TIP3    H240286   3.727   3.802   0.990  1.6019 -0.4754  1.1103
 6243TIP3   OH240287   2.764   1.793   0.383 -0.3890 -0.1854 -0.1073
 6243TIP3    H140288   2.831   1.844   0.337 -0.7432  0.4798  0.1051
 6243TIP3    H240289   2.792   1.702   0.373  0.5344  0.0865 -0.0361
 6244TIP3   OH240290   0.467   0.717   7.894 -0.2331 -0.1024 -0.2354
 6244TIP3    H140291   0.537   0.706   7.830  0.0333  2.8410 -0.4999
 6244TIP3    H240292   0.511   0.716   7.979 -0.0862  0.0526 -0.3100
 6245TIP3   OH240293   0.509   3.413   6.631 -0.0080  0.7421  0.2948
 6245TIP3    H140294   0.443   3.431   6.564 -1.2985  1.8642  1.8265
 6245TIP3    H240295   0.491   3.323   6.659  1.8027 -0.4461 -2.2298
 6246TIP3   OH240296   2.608   0.979   1.029  0.4319  0.0478 -0.1185
 6246TIP3    H140297   2.679   1.013   0.974  1.1812 -2.0166 -0.4711
 6246TIP3    H240298   2.578   0.901   0.982  0.7495 -1.4728  2.1696
 6247TIP3   OH240299   1.185   5.876   1.077  0.0073  0.0575  0.1019
 6247TIP3    H140300   1.203   5.785   1.099 -1.5180 -0.6655 -1.5318
 6247TIP3    H240301   1.117   5.903   1.140  1.5745  0.5940  1.6172
 6248TIP3   OH240302   1.506   7.096   2.071  0.1952 -0.8219 -0.0814
 6248TIP3    H140303   1.545   7.122   2.154  0.1795 -1.5465  0.1547
 6248TIP3    H240304   1.419   7.136   2.071  0.6595  0.2262 -0.3086
 6249TIP3   OH240305   3.424   3.279   6.875 -0.2017  0.2374  0.3274
 6249TIP3    H140306   3.365   3.215   6.834  0.2217 -0.8031  1.3092
 6249TIP3    H240307   3.491   3.296   6.809 -0.5315 -0.0412 -0.0820
 6250TIP3   OH240308   2.975   3.734   1.466  0.3865 -0.6105  0.0340
 6250TIP3    H140309   3.032   3.810   1.474  0.2961 -0.5495  0.1009
 6250TIP3    H240310   3.034   3.659   1.465  0.3907 -0.6296  1.3633
 6251TIP3   OH240311   1.534   1.693   0.078  0.8515 -0.3090  0.0328
 6251TIP3    H140312   1.596   1.663   0.144  1.1464 -0.3011 -0.2367
 6251TIP3    H240313   1.463   1.733   0.128  0.2425 -1.8303  0.4058
 6252TIP3   OH240314   1.243   7.018   1.428 -0.2504  0.5413 -0.4756
 6252TIP3    H140315   1.218   6.926   1.425  1.9345 -0.0899 -0.6616
 6252TIP3    H240316   1.167   7.063   1.464 -0.3388 -1.7583  2.4123
 6253TIP3   OH240317   7.187   1.521   7.260  0.3328 -0.3531  0.6195
 6253TIP3    H140318   7.101   1.562   7.251  0.1322 -1.0730 -0.9425
 6253TIP3    H240319   7.169   1.436   7.301  0.2787 -0.5487  0.1951
 6254TIP3   OH240320   2.760   1.045   1.537 -0.0179  0.1700  1.0445
 6254TIP3    H140321   2.839   1.006   1.499 -0.1559  1.4432 -0.6109
 6254TIP3    H240322   2.770   1.032   1.631  1.0318 -1.7622  0.6832
 6255TIP3   OH240323   7.111   1.093   6.959  0.1215  0.2968 -0.9211
 6255TIP3    H140324   7.026   1.103   6.915 -1.4876  0.3854  2.0971
 6255TIP3    H240325   7.114   1.001   6.986  0.9061  0.3335 -0.8772
 6256TIP3   OH240326   2.460   1.396   6.944  0.1750 -0.2166  0.7493
 6256TIP3    H140327   2.365   1.386   6.952 -0.0095  1.5958  1.0553
 6256TIP3    H240328   2.486   1.443   7.023  1.5061 -1.7262  1.2290
 6257TIP3   OH240329   1.065   2.877   8.419 -0.0557 -0.2067  0.0469
 6257TIP3    H140330   1.095   2.967   8.406  1.1260 -0.6491 -0.2999
 6257TIP3    H240331   1.075   2.835   8.334  0.1438 -0.8900  0.4031
 6258TIP3   OH240332   6.224   1.987   1.336 -1.2862  0.1638 -0.2981
 6258TIP3    H140333   6.132   1.994   1.361 -1.5924  1.4735 -1.6909
 6258TIP3    H240334   6.231   2.039   1.256  0.4804 -0.6613 -0.7086
 6259TIP3   OH240335   2.589   5.550   7.655  0.0499 -0.1236 -0.3013
 6259TIP3    H140336   2.654   5.513   7.596  0.0582  1.4397 -1.3258
 6259TIP3    H240337   2.535   5.476   7.682 -0.6873 -0.7119 -3.2185
 6260TIP3   OH240338   4.555   5.717   0.489 -0.1594  0.2188  0.7824
 6260TIP3    H140339   4.604   5.789   0.450  1.7562 -1.3924  0.1592
 6260TIP3    H240340   4.594   5.704   0.575  1.4441 -1.8959 -0.2048
 6261TIP3   OH240341   0.866   5.803   0.467  0.3403  0.0353  0.4777
 6261TIP3    H140342   0.781   5.804   0.512 -0.2964 -1.7313 -0.6037
 6261TIP3    H240343   0.865   5.721   0.417  3.0597 -0.4212  1.1259
 6262TIP3   OH240344   3.625   6.068   0.147 -0.3042  0.1423  0.6861
 6262TIP3    H140345   3.585   6.039   0.230  0.7054 -1.8196  0.5097
 6262TIP3    H240346   3.581   6.016   0.080  0.4169  0.1741  0.1915
 6263TIP3   OH240347   2.197   7.115   1.574  0.6163 -0.4553  0.3688
 6263TIP3    H140348   2.139   7.170   1.626  1.8437  1.7155 -0.4806
 6263TIP3    H240349   2.158   7.028   1.579 -0.9200  0.2975  2.4400
 6264TIP3   OH240350   3.185   6.212   0.685  0.1533  0.2094 -0.0539
 6264TIP3    H140351   3.188   6.241   0.776 -0.7161  0.9062 -0.2405
 6264TIP3    H240352   3.266   6.245   0.647  0.2686  0.3816  0.3333
 6265TIP3   OH240353   1.007   0.093   0.453  0.8997 -0.4921  0.9568
 6265TIP3    H140354   0.993   0.006   0.492  0.3595 -0.4060  0.9516
 6265TIP3    H240355   0.971   0.154   0.518 -0.3787 -0.3669  0.1372
 6266TIP3   OH240356   1.091   5.932   1.385  0.2438  0.2546  0.2533
 6266TIP3    H140357   1.066   5.930   1.477  1.3286  0.2273  0.5565
 6266TIP3    H240358   1.060   5.849   1.350  1.3083 -0.4731  1.0041
 6267TIP3   OH240359   1.422   5.867   2.563 -0.0648 -0.5196  0.2196
 6267TIP3    H140360   1.513   5.859   2.535  0.2833  0.1686  1.1132
 6267TIP3    H240361   1.414   5.806   2.636  0.2579  0.8991  1.4723
 6268TIP3   OH240362   1.687   5.407   2.620 -0.2081 -0.3590  0.9248
 6268TIP3    H140363   1.657   5.327   2.578 -2.0839  0.1320  1.2602
 6268TIP3    H240364   1.783   5.404   2.613 -0.4081 -0.7815 -2.4198
 6269TIP3   OH240365   3.794   3.034   7.049  0.3351  0.5595 -0.1957
 6269TIP3    H140366   3.786   2.941   7.071 -0.2086  1.0440  1.7465
 6269TIP3    H240367   3.779   3.038   6.955 -0.9219 -1.1774 -0.0892
 6270TIP3   OH240368   6.793   5.098   0.845  0.3632 -0.0022 -0.6840
 6270TIP3    H140369   6.725   5.088   0.912 -0.6458 -0.0417 -1.6838
 6270TIP3    H240370   6.873   5.118   0.893 -0.6624  1.4802  0.4503
 6271TIP3   OH240371   2.096   5.486   1.403 -0.3534  0.2135  0.2806
 6271TIP3    H140372   2.052   5.556   1.355  0.8211 -0.2527 -1.5095
 6271TIP3    H240373   2.073   5.406   1.355  1.2842 -0.1891  0.1539
 6272TIP3   OH240374   2.839   7.211   7.942 -0.0828 -0.4190  0.0854
 6272TIP3    H140375   2.914   7.169   7.901  0.0913  1.2202 -1.3112
 6272TIP3    H240376   2.786   7.139   7.976 -0.4028 -1.8423 -3.2936
 6273TIP3   OH240377   6.844   4.717   7.185  0.0409  0.2267 -0.4267
 6273TIP3    H140378   6.848   4.626   7.212  0.4771  0.7370  1.2698
 6273TIP3    H240379   6.874   4.716   7.094 -1.6333 -1.5349 -0.9899
 6274TIP3   OH240380   5.378   0.525   1.458 -0.4800 -0.8254  0.0753
 6274TIP3    H140381   5.387   0.614   1.492 -1.1672  0.2369 -2.4354
 6274TIP3    H240382   5.442   0.519   1.388 -0.8331 -2.1214 -0.1481
 6275TIP3   OH240383   5.073   1.005   0.721 -0.6561  0.0874  0.4690
 6275TIP3    H140384   5.044   1.024   0.810 -1.0886  0.5783  0.2271
 6275TIP3    H240385   5.166   1.025   0.721 -0.8194  0.8651  0.6009
 6276TIP3   OH240386   0.629   0.186   0.808 -0.3368 -0.2330 -0.5206
 6276TIP3    H140387   0.689   0.128   0.761 -1.1458 -1.9054  0.4418
 6276TIP3    H240388   0.685   0.238   0.865  0.3734 -0.2949 -1.1623
 6277TIP3   OH240389   4.096   6.842   0.888  0.0589  0.5085  0.0465
 6277TIP3    H140390   4.049   6.764   0.918 -0.4100  0.0981 -1.6448
 6277TIP3    H240391   4.152   6.867   0.961 -1.3277 -0.1797  1.3785
 6278TIP3   OH240392   1.674   6.895   1.933 -0.9673  0.2417  0.0361
 6278TIP3    H140393   1.618   6.945   1.993  0.8963  1.9284  0.4265
 6278TIP3    H240394   1.714   6.962   1.876  1.3253 -0.8244  0.3433
 6279TIP3   OH240395   1.408   5.228   1.701 -0.5281  0.3233  0.0766
 6279TIP3    H140396   1.483   5.283   1.725 -1.5363  1.5464  0.4721
 6279TIP3    H240397   1.407   5.159   1.767  1.3045 -0.7410 -0.9595
 6280TIP3   OH240398   2.466   0.305   8.348 -0.4879 -0.5268  0.1492
 6280TIP3    H140399   2.389   0.258   8.379 -0.8981 -0.2387 -0.4180
 6280TIP3    H240400   2.484   0.268   8.262  0.5235 -1.1878  0.6389
 6281TIP3   OH240401   3.699   4.194   1.206  0.0397  0.2997 -0.8124
 6281TIP3    H140402   3.689   4.155   1.292 -2.1749  0.5860 -0.9206
 6281TIP3    H240403   3.765   4.263   1.218  2.1903 -1.8127 -0.1085
 6282TIP3   OH240404   0.345   0.297   0.700  0.0747 -0.4111  0.4441
 6282TIP3    H140405   0.306   0.210   0.712  1.2132 -0.6939  2.5251
 6282TIP3    H240406   0.439   0.279   0.691  0.0587  0.4491 -1.5181
 6283TIP3   OH240407   2.238   1.932   1.997 -0.1041 -0.1143 -0.3846
 6283TIP3    H140408   2.316   1.879   1.980  1.6359  1.5049  2.2149
 6283TIP3    H240409   2.181   1.875   2.047  0.8612 -0.2307  0.5976
 6284TIP3   OH240410   3.713   0.624   0.673 -0.1464  0.5317 -0.5651
 6284TIP3    H140411   3.716   0.678   0.594  0.8615  0.5289 -0.5265
 6284TIP3    H240412   3.799   0.585   0.679 -0.6689 -0.5782 -0.2278
 6285TIP3   OH240413   5.013   5.410   1.595 -0.1721 -0.2656  0.1893
 6285TIP3    H140414   5.015   5.352   1.671  0.8703 -0.1612  0.2502
 6285TIP3    H240415   4.978   5.356   1.525 -0.8875 -0.4446  0.6803
 6286TIP3   OH240416   6.648   7.018   1.265 -0.2208 -0.3175  0.5170
 6286TIP3    H140417   6.600   7.002   1.184  0.4523 -1.4332  0.3305
 6286TIP3    H240418   6.582   7.050   1.326 -1.1400 -1.5698  0.1883
 6287TIP3   OH240419   2.856   6.231   1.843 -0.3756  0.2014 -0.2377
 6287TIP3    H140420   2.938   6.198   1.808 -0.4795 -0.7431  0.3820
 6287TIP3    H240421   2.876   6.253   1.934 -1.0169 -0.8719  0.1758
 6288TIP3   OH240422   6.914   5.993   7.570 -0.2328 -0.1033  0.0961
 6288TIP3    H140423   7.000   6.020   7.536 -0.1506 -1.3431 -0.7088
 6288TIP3    H240424   6.851   6.042   7.518 -0.0141  1.5369  1.3281
 6289TIP3   OH240425   1.954   5.556   1.707 -0.0151  0.0796  0.0143
 6289TIP3    H140426   1.969   5.646   1.679  0.0988  0.0858  0.0952
 6289TIP3    H240427   1.863   5.556   1.738  0.2829  0.4001  0.9128
 6290TIP3   OH240428   3.745   5.045   0.199  0.9583 -0.8712 -0.0805
 6290TIP3    H140429   3.746   5.133   0.160 -2.2453 -0.9699 -0.5016
 6290TIP3    H240430   3.758   4.986   0.125  3.4440 -0.8031  0.2455
 6291TIP3   OH240431   1.280   0.865   2.423  0.5946 -0.6465 -0.7168
 6291TIP3    H140432   1.338   0.799   2.461  1.2550  0.2104 -0.2079
 6291TIP3    H240433   1.211   0.876   2.487  1.1398  0.0303 -0.2349
 6292TIP3   OH240434   2.010   6.122   2.528  0.2081 -0.6250 -0.1593
 6292TIP3    H140435   2.049   6.034   2.533 -0.1063 -0.8627 -1.6915
 6292TIP3    H240436   2.084   6.182   2.536  0.5149 -1.0313  0.0812
 6293TIP3   OH240437   2.285   5.813   0.259  0.0424  0.2544 -0.2706
 6293TIP3    H140438   2.222   5.793   0.329 -1.1223 -0.0981 -1.4036
 6293TIP3    H240439   2.354   5.862   0.303 -0.3733 -0.4833  1.2547
 6294TIP3   OH240440   0.041   5.406   1.956 -0.0492 -0.4225  0.0069
 6294TIP3    H140441   0.066   5.492   1.922 -0.7879  0.5016  1.7329
 6294TIP3    H240442   0.113   5.381   2.014 -0.0966 -0.7312 -0.0632
 6295TIP3   OH240443   0.182   1.018   0.708  0.7712 -0.5407  0.5603
 6295TIP3    H140444   0.203   0.938   0.755  0.6137 -1.1596 -0.4169
 6295TIP3    H240445   0.244   1.083   0.743  4.6087 -2.3782 -2.3799
 6296TIP3   OH240446   0.516   6.773   8.210 -0.5526 -0.1769 -0.0351
 6296TIP3    H140447   0.421   6.757   8.214 -0.6830  0.6108  0.0342
 6296TIP3    H240448   0.527   6.860   8.248  0.0863  0.1783 -1.0386
 6297TIP3   OH240449   2.034   1.513   7.665 -0.3024 -0.1657  0.2131
 6297TIP3    H140450   1.987   1.579   7.716 -1.9478 -0.9093 -0.2974
 6297TIP3    H240451   2.117   1.502   7.711 -0.4014  1.5446  0.8525
 6298TIP3   OH240452   7.176   4.593   8.082  0.4867 -0.0141  0.4372
 6298TIP3    H140453   7.153   4.538   8.156  0.5647 -0.4005  0.1759
 6298TIP3    H240454   7.268   4.616   8.095  0.4588  0.0375  0.5378
 6299TIP3   OH240455   1.675   6.402   2.098  0.0465  0.0640  0.4972
 6299TIP3    H140456   1.590   6.366   2.123  0.9815 -2.3912  0.2395
 6299TIP3    H240457   1.662   6.497   2.098 -2.3919 -0.2487  1.4976
 6300TIP3   OH240458   1.062   0.192   1.912  0.3539  1.0880  0.9693
 6300TIP3    H140459   1.055   0.147   1.997  0.1032 -0.3189  0.2134
 6300TIP3    H240460   1.152   0.177   1.885 -0.0808 -0.0661  0.1203
 6301TIP3   OH240461   0.703   6.625   0.726 -0.6174 -0.4816 -0.1595
 6301TIP3    H140462   0.697   6.660   0.637 -1.0817 -1.5423 -0.5526
 6301TIP3    H240463   0.784   6.663   0.761 -1.7583  1.9902 -0.1098
 6302TIP3   OH240464   2.343   0.819   1.425  0.2435  0.1731 -0.1934
 6302TIP3    H140465   2.396   0.795   1.349  1.2944 -0.0077  0.5930
 6302TIP3    H240466   2.374   0.906   1.450 -0.5574  0.5190 -0.3634
 6303TIP3   OH240467   7.048   5.589   1.860  0.1669  0.7154 -0.0517
 6303TIP3    H140468   7.062   5.657   1.926  1.3630  0.0794  0.3625
 6303TIP3    H240469   7.030   5.510   1.910 -2.6194  0.9844 -0.5437
 6304TIP3   OH240470   1.586   5.850   1.212  0.1497 -0.4086  0.0427
 6304TIP3    H140471   1.659   5.907   1.239 -0.0278 -0.0693 -0.1949
 6304TIP3    H240472   1.511   5.882   1.262  0.1307 -0.6742  0.1867
 6305TIP3   OH240473   5.634   1.438   6.848  0.4204 -0.5502 -0.4046
 6305TIP3    H140474   5.543   1.435   6.817  0.6598  0.0306 -1.1652
 6305TIP3    H240475   5.629   1.487   6.931  0.0875 -0.2576 -0.5975
 6306TIP3   OH240476   1.410   1.826   1.586 -0.4117  0.4058 -0.0559
 6306TIP3    H140477   1.320   1.857   1.594 -0.8309 -0.0272 -2.5257
 6306TIP3    H240478   1.402   1.742   1.541  1.1115 -0.6076  1.4920
 6307TIP3   OH240479   1.188   6.820   0.970 -0.1259  0.1364 -0.2748
 6307TIP3    H140480   1.275   6.779   0.972 -0.7458 -1.3304 -2.0868
 6307TIP3    H240481   1.189   6.874   0.891 -0.4874  1.0302  0.3200
 6308TIP3   OH240482   2.927   6.679   0.393  0.2767 -0.4521  0.2543
 6308TIP3    H140483   2.970   6.669   0.478  0.0368 -1.4251  0.2591
 6308TIP3    H240484   2.885   6.595   0.377  0.0096 -0.1480 -0.6602
 6309TIP3   OH240485   4.396   6.834   7.956 -0.1824  0.7164 -0.1691
 6309TIP3    H140486   4.374   6.762   7.896 -0.0861  0.2433  0.3575
 6309TIP3    H240487   4.317   6.888   7.959 -1.4373 -1.1459  1.9561
 6310TIP3   OH240488   0.220   6.788   0.083 -0.1602 -0.3154  0.1295
 6310TIP3    H140489   0.246   6.872   0.122 -1.3546  0.1928 -0.1425
 6310TIP3    H240490   0.247   6.795  -0.008  0.3373 -0.4974  0.2591
 6311TIP3   OH240491   1.058   5.437   1.057  0.5566  0.6020 -0.4054
 6311TIP3    H140492   1.015   5.354   1.076  0.0174  0.9253 -0.2103
 6311TIP3    H240493   1.141   5.412   1.016 -0.2901 -0.0128 -1.7793
 6312TIP3   OH240494   2.038   6.566   2.244  0.4808  0.1741  0.2446
 6312TIP3    H140495   2.023   6.490   2.188  1.9429 -2.2908  3.1200
 6312TIP3    H240496   1.952   6.586   2.280  0.1061 -0.1507 -0.4474
 6313TIP3   OH240497   3.681   6.640   1.901 -1.0738  0.5458 -0.2495
 6313TIP3    H140498   3.715   6.713   1.954  0.5689 -1.4910  1.5830
 6313TIP3    H240499   3.593   6.669   1.875 -1.6334  1.9427  2.9711
 6314TIP3   OH240500   1.595   4.873   1.568 -0.3695 -0.1425  0.8867
 6314TIP3    H140501   1.597   4.785   1.529  0.2553  1.3035 -2.5658
 6314TIP3    H240502   1.685   4.905   1.559 -1.1826  1.8611 -0.4133
 6315TIP3   OH240503   1.940   4.627   1.198 -0.2674  0.1831 -0.6366
 6315TIP3    H140504   1.985   4.607   1.280 -0.4526 -1.7174 -0.9609
 6315TIP3    H240505   1.922   4.541   1.160 -2.8833  0.9569 -1.2056
 6316TIP3   OH240506   2.996   0.928   1.416  0.3600  0.0589 -0.3725
 6316TIP3    H140507   3.045   0.957   1.339  0.7235 -0.9406 -0.5162
 6316TIP3    H240508   3.019   0.836   1.426 -0.1035  0.0472  0.6156
 6317TIP3   OH240509   3.686   1.556   0.918 -0.3847  0.2709  0.4213
 6317TIP3    H140510   3.755   1.493   0.897  1.2125  1.7726  1.0893
 6317TIP3    H240511   3.605   1.507   0.904  0.8020 -1.7803  0.4369
 6318TIP3   OH240512   2.389   3.943   1.515 -0.4822  0.0188  0.0105
 6318TIP3    H140513   2.442   3.875   1.473  0.5133  1.3579 -0.9708
 6318TIP3    H240514   2.354   3.994   1.441 -3.7570 -1.2657  0.6033
 6319TIP3   OH240515   1.657   7.273   8.024 -0.0514 -0.1926 -0.5105
 6319TIP3    H140516   1.659   7.290   7.930  0.6134 -1.5931 -0.7630
 6319TIP3    H240517   1.682   7.181   8.032 -0.9606 -0.3215  0.9744
 6320TIP3   OH240518   3.438   0.190   1.335  0.3574  0.5114 -0.5329
 6320TIP3    H140519   3.493   0.246   1.390 -1.4209  1.1735  0.6050
 6320TIP3    H240520   3.493   0.171   1.259  1.8772  1.8047  0.2015
 6321TIP3   OH240521   2.294   5.128   0.412  0.4515  0.2770 -0.4226
 6321TIP3    H140522   2.296   5.145   0.318  0.4974 -0.1998 -0.5100
 6321TIP3    H240523   2.288   5.214   0.452  0.8805  0.5061 -0.8470
 6322TIP3   OH240524   3.445   2.963   1.103 -0.1359 -0.2218  0.4284
 6322TIP3    H140525   3.429   3.043   1.053 -0.4169 -0.9015 -0.5850
 6322TIP3    H240526   3.377   2.962   1.171 -0.5805  0.0312 -0.0138
 6323TIP3   OH240527   4.232   6.336   1.901 -0.5229 -0.5954  0.0147
 6323TIP3    H140528   4.301   6.291   1.853  3.0592  1.6727  2.7871
 6323TIP3    H240529   4.227   6.290   1.985 -0.3980  0.9471  0.8896
 6324TIP3   OH240530   3.406   5.537   1.155 -0.3197  0.1245  0.4998
 6324TIP3    H140531   3.355   5.585   1.219 -2.1659  2.1493 -2.3818
 6324TIP3    H240532   3.451   5.605   1.104  2.8402 -1.5037  0.9836
 6325TIP3   OH240533   1.327   1.090   1.725 -0.4659 -0.3223 -0.0662
 6325TIP3    H140534   1.353   0.998   1.720  2.0250  0.3328  0.1579
 6325TIP3    H240535   1.242   1.088   1.770  0.2326 -2.4139  1.2653
 6326TIP3   OH240536   2.488   0.368   1.929 -0.2435  0.4847 -0.4835
 6326TIP3    H140537   2.438   0.450   1.924  2.6709  2.4323  0.8708
 6326TIP3    H240538   2.431   0.308   1.976 -2.1122  2.0002 -0.7566
 6327TIP3   OH240539   4.098   4.921   0.917  0.2673  0.3389  0.2136
 6327TIP3    H140540   4.185   4.906   0.881  0.4587 -0.4784  0.9980
 6327TIP3    H240541   4.108   4.907   1.011 -0.2927  2.1371  0.5690
 6328TIP3   OH240542   1.813   0.359   1.316 -0.3051  0.2553  0.0620
 6328TIP3    H140543   1.778   0.430   1.370 -0.5316 -0.2416  0.5669
 6328TIP3    H240544   1.904   0.383   1.300 -0.5380  0.9539 -0.2581
 6329TIP3   OH240545   0.078   1.162   7.385 -0.5478  0.9317  0.4460
 6329TIP3    H140546   0.137   1.233   7.411  0.2140  0.2464  0.6118
 6329TIP3    H240547   0.086   1.097   7.454 -0.6794  0.3626 -0.0654
 6330TIP3   OH240548   2.123   6.290   0.277  0.2563 -0.4405  0.2807
 6330TIP3    H140549   2.159   6.273   0.189  1.0629  1.4704  0.2267
 6330TIP3    H240550   2.028   6.279   0.266  0.2270  1.0591 -1.1418
 6331TIP3   OH240551   4.864   6.438   1.149  0.2012  0.7582  0.5168
 6331TIP3    H140552   4.877   6.344   1.164  2.8228  0.8443 -0.9325
 6331TIP3    H240553   4.947   6.478   1.174 -1.9692  3.1823  4.3670
 6332TIP3   OH240554   3.786   5.101   1.376 -0.4870  0.2707  0.0654
 6332TIP3    H140555   3.877   5.129   1.386 -0.7463  0.6443  1.5172
 6332TIP3    H240556   3.745   5.171   1.326  0.0710  0.0003 -0.7810
 6333TIP3   OH240557   2.187   6.022   7.688  0.0002 -0.5081  0.4183
 6333TIP3    H140558   2.142   6.096   7.649  1.2090  0.9030  1.6454
 6333TIP3    H240559   2.261   6.006   7.629 -0.2447 -0.7215  0.1691
 6334TIP3   OH240560   2.855   1.541   0.342 -0.0065  0.0733 -0.1113
 6334TIP3    H140561   2.929   1.483   0.326 -1.5961 -1.9726 -0.1962
 6334TIP3    H240562   2.814   1.506   0.421 -0.4755  1.6325  0.3512
 6335TIP3   OH240563   4.558   0.812   1.773  0.0265  0.0238  0.3247
 6335TIP3    H140564   4.484   0.754   1.756 -0.4802  0.7629 -0.0033
 6335TIP3    H240565   4.519   0.894   1.804  0.6299  0.8882 -1.1397
 6336TIP3   OH240566   3.101   5.978   8.122 -0.0441  0.2723 -0.2083
 6336TIP3    H140567   3.013   6.011   8.139 -0.3959 -0.1598 -1.1586
 6336TIP3    H240568   3.125   6.017   8.038  0.0445 -0.8730 -0.7172
 6337TIP3   OH240569   0.443   5.495   1.422  0.2310 -0.0919 -0.0915
 6337TIP3    H140570   0.438   5.404   1.450 -0.7210 -0.3975 -1.2164
 6337TIP3    H240571   0.352   5.520   1.407  0.6827  0.2430 -2.3338
 6338TIP3   OH240572   4.902   4.795   1.114 -0.4536  0.6947 -0.0283
 6338TIP3    H140573   4.991   4.764   1.098 -0.6507  0.4297 -0.6204
 6338TIP3    H240574   4.861   4.726   1.166 -0.3102  0.8268  0.2643
 6339TIP3   OH240575   1.364   1.473   0.804  0.2818  0.7633  0.1322
 6339TIP3    H140576   1.277   1.475   0.765  0.6073  0.4513 -0.6242
 6339TIP3    H240577   1.352   1.510   0.892 -0.8871 -0.7037  0.6078
 6340TIP3   OH240578   0.342   2.097   7.856  0.1948  0.0704  0.4042
 6340TIP3    H140579   0.387   2.155   7.918 -1.1988  1.2787  0.3109
 6340TIP3    H240580   0.249   2.112   7.872 -0.2120  1.0115 -2.5152
 6341TIP3   OH240581   4.438   5.480   1.776  0.6522  0.3220 -0.2207
 6341TIP3    H140582   4.511   5.441   1.825  0.6529 -0.4307 -0.8196
 6341TIP3    H240583   4.395   5.406   1.734 -0.4798  0.7683  0.1553
 6342TIP3   OH240584   6.500   5.844   7.886 -0.3421 -0.6747  0.5411
 6342TIP3    H140585   6.560   5.883   7.949 -0.9545 -2.1204  2.0595
 6342TIP3    H240586   6.415   5.881   7.907 -0.3261 -0.0673 -0.3955
 6343TIP3   OH240587   5.256   4.945   1.222  0.4528  0.7792 -0.1116
 6343TIP3    H140588   5.248   4.964   1.316  0.9526  0.5521 -0.0225
 6343TIP3    H240589   5.350   4.937   1.207  0.5123  2.8380 -1.0484
 6344TIP3   OH240590   1.699   4.802   0.155  0.8279  0.0685  0.3060
 6344TIP3    H140591   1.735   4.760   0.077  0.3880 -0.1771  0.2382
 6344TIP3    H240592   1.686   4.893   0.128  0.9943  0.0607  0.1960
 6345TIP3   OH240593   4.959   6.742   2.132  0.5155 -0.0016 -0.2112
 6345TIP3    H140594   4.879   6.724   2.182 -0.4786  1.2327 -1.3256
 6345TIP3    H240595   5.004   6.658   2.127 -1.8575 -1.2151 -1.5952
 6346TIP3   OH240596   0.672   3.573   7.528 -0.1724  0.2590 -0.5164
 6346TIP3    H140597   0.631   3.527   7.455 -0.1643  0.8654 -0.9120
 6346TIP3    H240598   0.626   3.540   7.606  1.1540 -1.8280 -0.5936
 6347TIP3   OH240599   5.002   1.217   1.907  0.3129 -0.5758 -0.7096
 6347TIP3    H140600   4.967   1.301   1.880 -1.9743 -1.6504 -1.1931
 6347TIP3    H240601   4.963   1.154   1.846  3.0531 -1.8555 -1.2570
 6348TIP3   OH240602   1.693   5.472   0.922  0.0235  0.2251  0.1728
 6348TIP3    H140603   1.638   5.479   0.844 -0.9755 -1.6526  0.6690
 6348TIP3    H240604   1.666   5.544   0.977 -1.8542 -0.5694  0.3251
 6349TIP3   OH240605   4.471   5.161   2.316  0.4583 -0.4527 -0.1643
 6349TIP3    H140606   4.537   5.093   2.332  0.6392 -0.3877 -0.6304
 6349TIP3    H240607   4.430   5.135   2.233  0.8013  0.2296 -0.5452
 6350TIP3   OH240608   4.623   6.346   1.285 -0.1553 -0.8324  0.1916
 6350TIP3    H140609   4.616   6.252   1.269  0.4438 -0.5558 -1.9270
 6350TIP3    H240610   4.662   6.380   1.204 -0.1237  1.1930  1.0485
 6351TIP3   OH240611   0.206   3.080   7.767 -0.1685  0.0226  0.4569
 6351TIP3    H140612   0.190   3.141   7.839  0.1570  0.3203  0.2764
 6351TIP3    H240613   0.118   3.050   7.741 -0.3169  0.2770  0.6616
 6352TIP3   OH240614   2.717   6.623   8.211  0.5155 -0.3458 -0.0450
 6352TIP3    H140615   2.760   6.593   8.291  0.4998  0.2566  0.1904
 6352TIP3    H240616   2.679   6.544   8.173  0.7047 -0.6650  0.4321
 6353TIP3   OH240617   3.723   6.999   0.492  0.2683  0.1499  0.4598
 6353TIP3    H140618   3.768   7.066   0.440  0.4040  0.7123  1.2904
 6353TIP3    H240619   3.765   6.917   0.467 -1.1988  0.1105 -2.0017
 6354TIP3   OH240620   5.691   6.546   1.584  0.0051  0.4099 -0.7886
 6354TIP3    H140621   5.623   6.573   1.522 -2.1386 -0.1963  1.2254
 6354TIP3    H240622   5.670   6.594   1.664 -0.2755 -2.5333  0.9850
 6355TIP3   OH240623   3.403   6.868   0.859  0.6854 -0.2529  0.0395
 6355TIP3    H140624   3.494   6.878   0.885  1.2268  1.7734 -2.3915
 6355TIP3    H240625   3.402   6.794   0.799  0.7969 -0.1040 -0.1470
 6356TIP3   OH240626   3.894   6.194   8.008 -0.3010  0.1357 -0.1017
 6356TIP3    H140627   3.953   6.216   8.080  0.5296  0.9717 -1.0212
 6356TIP3    H240628   3.869   6.278   7.970 -1.2906 -0.2667 -0.3416
 6357TIP3   OH240629   3.313   0.901   0.807  0.2195  0.0852  0.0467
 6357TIP3    H140630   3.245   0.968   0.811  0.5723  0.3751  1.5051
 6357TIP3    H240631   3.323   0.883   0.713 -2.8547 -0.9963 -0.1298
 6358TIP3   OH240632   1.872   5.960   1.288 -0.2989  0.6124 -0.9225
 6358TIP3    H140633   1.932   6.022   1.329  1.9808 -1.9672 -0.2225
 6358TIP3    H240634   1.850   6.000   1.203  0.7719  2.5341 -0.3163
 6359TIP3   OH240635   0.635   1.667   8.229 -0.1348 -0.7374 -0.0535
 6359TIP3    H140636   0.566   1.706   8.175 -0.4004 -2.5230 -1.0328
 6359TIP3    H240637   0.604   1.675   8.319 -0.7149  0.2335 -0.3364
 6360TIP3   OH240638   6.766   5.714   7.228  0.0620 -0.1242 -0.0816
 6360TIP3    H140639   6.783   5.663   7.307 -0.3170  0.0943  0.1385
 6360TIP3    H240640   6.705   5.660   7.177 -0.9091  0.4402  0.4841
 6361TIP3   OH240641   1.605   6.326   1.539 -0.6513  0.2114  0.0534
 6361TIP3    H140642   1.612   6.309   1.633  0.8322  0.5259  0.0222
 6361TIP3    H240643   1.656   6.406   1.526 -0.0846 -0.3323 -1.1427
 6362TIP3   OH240644   6.867   0.494   8.039  0.6267 -0.1439  0.6181
 6362TIP3    H140645   6.799   0.560   8.048  1.4030  0.8542 -0.6577
 6362TIP3    H240646   6.946   0.535   8.074  0.6402 -1.2102  1.8730
 6363TIP3   OH240647   4.201   2.821   7.346 -0.6861 -0.4342  0.2572
 6363TIP3    H140648   4.169   2.806   7.435 -2.5778  0.2342 -0.3002
 6363TIP3    H240649   4.185   2.738   7.301 -1.9789  0.0164 -0.1194
 6364TIP3   OH240650   1.225   5.129   6.789 -0.0552 -0.7773  0.1796
 6364TIP3    H140651   1.141   5.082   6.787 -0.8989  0.6588  0.8800
 6364TIP3    H240652   1.204   5.216   6.757  1.4690 -0.8280 -0.9610
 6365TIP3   OH240653   1.254   1.155   8.089 -0.0580 -0.2396 -0.7595
 6365TIP3    H140654   1.201   1.235   8.094 -1.2477 -0.9748 -1.2182
 6365TIP3    H240655   1.299   1.162   8.004  0.2655  0.1966 -0.5541
 6366TIP3   OH240656   2.943   3.207   7.579  0.9170  0.0323  0.6016
 6366TIP3    H140657   2.928   3.282   7.636  0.7354 -0.5098  1.2635
 6366TIP3    H240658   2.858   3.163   7.575  0.6662  0.6097 -0.8681
 6367TIP3   OH240659   3.541   5.635   1.465  0.1341 -0.2102 -0.6903
 6367TIP3    H140660   3.510   5.680   1.543 -0.3369 -0.7726 -0.5526
 6367TIP3    H240661   3.525   5.542   1.483  0.2951 -0.3632 -1.3317
 6368TIP3   OH240662   3.870   5.503   7.202  0.1867 -0.2508  0.1299
 6368TIP3    H140663   3.804   5.572   7.214  0.1113 -0.2441 -0.3235
 6368TIP3    H240664   3.841   5.432   7.260 -1.1021 -0.8765 -1.2506
 6369TIP3   OH240665   4.548   6.491   7.546 -0.5029 -0.0485 -0.2625
 6369TIP3    H140666   4.488   6.436   7.497 -0.2125 -0.9173  0.3331
 6369TIP3    H240667   4.627   6.438   7.555 -0.8082 -0.2358  1.7707
 6370TIP3   OH240668   0.068   1.897   7.066  0.7266  0.1636 -0.6989
 6370TIP3    H140669   0.104   1.957   7.000  0.8812 -0.8616 -1.5605
 6370TIP3    H240670   0.040   1.954   7.138  0.7728  1.2722 -1.5502
 6371TIP3   OH240671   3.428   0.250   1.819  0.6902 -0.1708  0.2335
 6371TIP3    H140672   3.465   0.164   1.798 -0.1655  0.0106 -2.1472
 6371TIP3    H240673   3.477   0.311   1.764 -0.1342  0.6211  0.3714
 6372TIP3   OH240674   2.717   5.980   1.757  0.4604 -0.9595  0.3248
 6372TIP3    H140675   2.721   5.968   1.662 -0.0456 -1.7517  0.4049
 6372TIP3    H240676   2.752   6.068   1.771 -0.3806 -0.4505 -0.6854
 6373TIP3   OH240677   4.036   6.437   1.198 -0.0401 -0.2641 -0.2960
 6373TIP3    H140678   4.048   6.406   1.108  2.1382  1.0756 -0.4867
 6373TIP3    H240679   4.124   6.440   1.234 -1.0047 -2.1147  2.3768
 6374TIP3   OH240680   0.064   0.566   1.819 -0.1700  0.9202 -0.4767
 6374TIP3    H140681  -0.020   0.547   1.860 -0.4019  0.3427 -1.1996
 6374TIP3    H240682   0.126   0.509   1.864 -0.6369 -0.6311 -1.7348
 6375TIP3   OH240683   0.539   1.307   6.481  0.1507 -0.2584  0.3611
 6375TIP3    H140684   0.514   1.400   6.480  0.2444 -0.2405 -1.0789
 6375TIP3    H240685   0.629   1.307   6.513  0.4982  0.2531 -0.5819
 6376TIP3   OH240686   2.686   1.247   8.147  0.2084  0.4227 -0.0272
 6376TIP3    H140687   2.676   1.152   8.142  0.8680  0.3933 -0.6836
 6376TIP3    H240688   2.722   1.263   8.234  1.8976 -0.0680 -0.6371
 6377TIP3   OH240689   5.513   5.183   7.285 -0.9476 -0.3331  0.3047
 6377TIP3    H140690   5.466   5.125   7.225 -0.5031 -0.8870  0.4868
 6377TIP3    H240691   5.445   5.240   7.322 -1.1623  0.2947 -1.0339
 6378TIP3   OH240692   4.562   5.019   0.314  0.0903 -0.3499 -0.0520
 6378TIP3    H140693   4.607   5.039   0.232  0.1773 -0.0483  0.0683
 6378TIP3    H240694   4.473   5.052   0.301  0.0560 -0.4524 -0.0850
 6379TIP3   OH240695   1.927   5.568   0.229  0.1147  0.3322  0.6200
 6379TIP3    H140696   1.878   5.489   0.206 -0.4956  0.2080  2.2484
 6379TIP3    H240697   1.915   5.627   0.155  2.3506 -1.8751 -1.5896
 6380TIP3   OH240698   2.824   6.431   0.390 -0.1005  0.1954 -0.4315
 6380TIP3    H140699   2.852   6.401   0.476 -0.7495  0.3353 -0.1703
 6380TIP3    H240700   2.865   6.369   0.329 -0.4999 -0.5382  0.0367
 6381TIP3   OH240701   1.331   0.738   0.921 -0.4263  0.0967  0.4464
 6381TIP3    H140702   1.378   0.819   0.902  1.8941 -1.5641 -1.1970
 6381TIP3    H240703   1.308   0.703   0.834 -2.2775 -0.5436  1.1644
 6382TIP3   OH240704   2.466   6.815   1.327 -0.2618  0.2367  0.1425
 6382TIP3    H140705   2.495   6.742   1.273  1.0364  0.6460  0.2840
 6382TIP3    H240706   2.415   6.870   1.268  1.9138  1.1578 -0.9129
 6383TIP3   OH240707   3.652   6.512   0.624 -0.0297 -0.0195 -0.6920
 6383TIP3    H140708   3.679   6.436   0.571  1.4117  0.1184 -0.1643
 6383TIP3    H240709   3.600   6.475   0.695 -1.6004 -0.2509 -1.9328
 6384TIP3   OH240710   0.289   6.749   1.217 -0.2316 -0.6215  0.5921
 6384TIP3    H140711   0.377   6.778   1.239 -0.3614  0.6508 -0.4944
 6384TIP3    H240712   0.238   6.830   1.209 -1.2652 -1.2919  0.2226
 6385TIP3   OH240713   2.500   6.271   7.447  0.1060 -0.2258  0.2662
 6385TIP3    H140714   2.476   6.303   7.534  1.0408 -0.2428  0.5417
 6385TIP3    H240715   2.435   6.204   7.426 -1.2282  1.0774  0.1522
 6386TIP3   OH240716   3.798   0.622   8.406  0.2899  0.2920 -0.1400
 6386TIP3    H140717   3.753   0.584   8.481  1.3232  0.0805  0.3807
 6386TIP3    H240718   3.730   0.669   8.358  0.1383  2.8836  2.4791
 6387TIP3   OH240719   3.274   5.784   0.628  0.1585 -0.4299  0.2924
 6387TIP3    H140720   3.302   5.818   0.713  0.2201  0.1286  0.0570
 6387TIP3    H240721   3.199   5.839   0.604  1.2100  0.5793 -0.7959
 6388TIP3   OH240722   4.497   5.084   7.140 -0.1048 -0.5277 -0.1919
 6388TIP3    H140723   4.504   5.176   7.112 -0.9431 -0.3613  0.1127
 6388TIP3    H240724   4.586   5.059   7.162 -0.0474  0.6235  0.9810
 6389TIP3   OH240725   2.661   4.653   1.827  0.0959  0.3254 -0.1589
 6389TIP3    H140726   2.737   4.656   1.770  1.3846 -0.5043  1.4770
 6389TIP3    H240727   2.697   4.654   1.916 -1.7962 -0.0101  0.6431
 6390TIP3   OH240728   1.143   7.087   7.512  0.0502  0.7103 -0.1093
 6390TIP3    H140729   1.077   7.114   7.447 -1.2501 -2.2059 -0.0701
 6390TIP3    H240730   1.148   7.161   7.573 -1.4995  1.9258 -1.4024
 6391TIP3   OH240731   4.737   6.334   8.452 -0.1559  0.0910  0.1966
 6391TIP3    H140732   4.770   6.251   8.416 -0.5310 -0.1187  0.3323
 6391TIP3    H240733   4.773   6.338   8.540  1.1030  0.8051 -0.3309
 6392TIP3   OH240734   1.787   4.749   8.056 -0.1283  0.2134 -0.1517
 6392TIP3    H140735   1.859   4.740   8.119 -0.1263 -1.3260 -0.3631
 6392TIP3    H240736   1.711   4.771   8.110 -0.3311 -2.0132  0.5128
 6393TIP3   OH240737   5.510   0.748   0.839  0.2609 -0.1186  0.2699
 6393TIP3    H140738   5.436   0.781   0.890 -1.1475 -0.4070 -1.5173
 6393TIP3    H240739   5.584   0.802   0.866 -0.2939 -0.6695  3.0301
 6394TIP3   OH240740   4.108   5.469   1.882 -0.3975 -0.3071  0.3407
 6394TIP3    H140741   4.139   5.547   1.836 -0.5799 -0.2445  0.3259
 6394TIP3    H240742   4.081   5.410   1.812  1.2930 -1.0379  0.2726
 6395TIP3   OH240743   0.805   6.307   1.492  0.3117  0.2128  0.0820
 6395TIP3    H140744   0.734   6.365   1.465  0.4391  0.3729  0.0943
 6395TIP3    H240745   0.778   6.275   1.578  0.2639  0.2893  0.0955
 6396TIP3   OH240746   1.525   6.602   8.450  0.1650 -0.2056 -0.2257
 6396TIP3    H140747   1.535   6.580   8.357 -0.2763 -0.4247 -0.2184
 6396TIP3    H240748   1.465   6.676   8.451  0.2505 -0.1373 -0.1196
 6397TIP3   OH240749   3.799   4.686   1.462  0.0608 -0.9111  0.6214
 6397TIP3    H140750   3.883   4.651   1.432 -0.0368  1.7870 -3.1811
 6397TIP3    H240751   3.768   4.623   1.526  3.0874 -4.0913 -0.8834
 6398TIP3   OH240752   5.645   5.706   7.108 -0.7407 -0.5772 -0.2979
 6398TIP3    H140753   5.616   5.686   7.019 -1.5388 -2.0465  0.2686
 6398TIP3    H240754   5.620   5.629   7.159 -0.2799  0.2410  1.1978
 6399TIP3   OH240755   2.383   2.961   7.496 -0.0590 -0.0401  0.6172
 6399TIP3    H140756   2.317   3.008   7.548  0.4079  0.1044  1.0885
 6399TIP3    H240757   2.460   2.959   7.553  0.9472  1.4603 -0.6638
 6400TIP3   OH240758   3.578   5.378   1.584 -1.1146 -0.1351 -0.0412
 6400TIP3    H140759   3.550   5.322   1.655  2.0199 -2.8362 -0.8540
 6400TIP3    H240760   3.632   5.446   1.625 -1.4261 -0.1796  0.4360
 6401TIP3   OH240761   3.117   6.154   1.758  0.1712  0.2185 -0.0188
 6401TIP3    H140762   3.165   6.145   1.840  0.6353  0.7222 -0.2306
 6401TIP3    H240763   3.179   6.198   1.699  0.3610 -1.3957 -1.0690
 6402TIP3   OH240764   0.023   3.243   1.983  0.3819  0.0066 -0.4349
 6402TIP3    H140765   0.099   3.300   1.989  0.8947 -0.6445 -0.7653
 6402TIP3    H240766   0.011   3.227   1.890  0.4682 -0.7332 -0.3252
 6403TIP3   OH240767   5.179   6.985   7.583  0.0624 -0.2375 -0.0599
 6403TIP3    H140768   5.103   6.956   7.532 -0.1058 -1.1698  0.6871
 6403TIP3    H240769   5.250   6.989   7.520 -0.1874 -1.1908 -0.4191
 6404TIP3   OH240770   2.555   4.900   1.763 -0.0884 -0.1111  0.7211
 6404TIP3    H140771   2.488   4.842   1.726 -0.2651 -0.5273  1.6644
 6404TIP3    H240772   2.618   4.840   1.804  0.9187  0.2728 -0.2435
 6405TIP3   OH240773   4.414   1.382   1.338 -0.2081  0.7164  0.7902
 6405TIP3    H140774   4.348   1.328   1.383  0.6537 -1.1925 -0.1680
 6405TIP3    H240775   4.365   1.429   1.271 -0.8352  0.4764  1.0711
 6406TIP3   OH240776   2.966   5.753   1.219 -0.6180 -0.0760  0.1211
 6406TIP3    H140777   2.874   5.750   1.245 -0.3109  0.1718  1.2669
 6406TIP3    H240778   2.967   5.720   1.129 -1.8567  0.1811  0.0128
 6407TIP3   OH240779   4.011   6.707   1.875 -0.1767  0.2237  0.0665
 6407TIP3    H140780   4.081   6.741   1.819 -0.8679 -0.0124 -0.9609
 6407TIP3    H240781   3.941   6.683   1.814 -1.0455  0.1945  1.0590
 6408TIP3   OH240782   1.707   4.857   7.538 -0.2731 -0.4404  0.2799
 6408TIP3    H140783   1.701   4.822   7.449 -0.7735  2.1507 -0.7419
 6408TIP3    H240784   1.637   4.813   7.586  0.3864 -2.3075 -0.4095
 6409TIP3   OH240785   3.770   6.162   1.698 -0.1131  0.6153 -0.0320
 6409TIP3    H140786   3.732   6.097   1.639  1.5872 -1.4635  1.0671
 6409TIP3    H240787   3.849   6.192   1.652  0.5054 -0.0286  0.6158
 6410TIP3   OH240788   5.211   7.055   1.533 -0.0255 -0.2528 -0.1667
 6410TIP3    H140789   5.160   6.983   1.497  0.4018 -0.8836  0.4912
 6410TIP3    H240790   5.275   7.076   1.464  0.7405 -1.4096  0.1834
 6411TIP3   OH240791   1.445   6.179   0.250 -0.5279 -0.4730 -0.3295
 6411TIP3    H140792   1.510   6.160   0.183 -0.5321 -0.3495 -0.3694
 6411TIP3    H240793   1.494   6.221   0.321 -1.0678  2.6260 -1.7266
 6412TIP3   OH240794   7.258   6.081   8.442 -0.3497  0.4770  0.2955
 6412TIP3    H140795   7.296   6.167   8.464 -0.2641  0.7895 -1.0421
 6412TIP3    H240796   7.284   6.025   8.515  1.8159  0.9442 -0.0672
 6413TIP3   OH240797   2.565   5.484   1.877  0.0565  0.2340  0.3105
 6413TIP3    H140798   2.539   5.474   1.968 -1.1225 -0.6115 -0.0988
 6413TIP3    H240799   2.547   5.398   1.838 -0.6977  0.9698 -1.0030
 6414TIP3   OH240800   5.198   4.704   1.065 -0.6149  0.1401  0.2522
 6414TIP3    H140801   5.194   4.789   1.109 -0.3442  1.1053 -1.5346
 6414TIP3    H240802   5.230   4.724   0.977 -2.1846 -1.5888 -0.7635
 6415TIP3   OH240803   4.121   0.203   1.985  0.3616 -0.8531  0.1182
 6415TIP3    H140804   4.106   0.259   2.061  0.6835  0.4600 -0.7596
 6415TIP3    H240805   4.046   0.143   1.984 -0.4442  0.1380  0.5807
 6416TIP3   OH240806   3.311   5.394   0.429  0.0511 -0.5721  0.3961
 6416TIP3    H140807   3.406   5.394   0.430  0.0804  2.0288  0.0784
 6416TIP3    H240808   3.288   5.329   0.363  1.6269 -0.3562 -0.3872
 6417TIP3   OH240809   1.771   3.544   7.606  0.1824 -0.0112 -0.4972
 6417TIP3    H140810   1.763   3.623   7.553 -0.8465  0.5006  0.3743
 6417TIP3    H240811   1.680   3.524   7.631  0.6273 -0.2913  0.9531
 6418TIP3   OH240812   2.356   6.028   6.739 -0.6353  0.0913 -0.1162
 6418TIP3    H140813   2.304   6.098   6.778  2.1695  2.3259 -0.2581
 6418TIP3    H240814   2.418   6.002   6.808  0.7339  0.2913 -1.2410
 6419TIP3   OH240815   3.602   0.303   8.241  0.5457 -0.1435 -0.0440
 6419TIP3    H140816   3.550   0.365   8.292  2.1406 -0.8586  2.5541
 6419TIP3    H240817   3.676   0.282   8.298  2.2746 -1.1824 -2.5881
 6420TIP3   OH240818   3.867   0.176   1.395 -0.2864  0.0028 -0.9336
 6420TIP3    H140819   3.897   0.087   1.414  0.0236  0.0619 -1.1363
 6420TIP3    H240820   3.874   0.223   1.479  1.4369  0.3651 -1.2671
 6421TIP3   OH240821   5.825   4.953   1.585 -1.4821  0.3382  0.5269
 6421TIP3    H140822   5.839   4.869   1.627  1.6487  0.1411 -0.8148
 6421TIP3    H240823   5.870   5.016   1.641  0.0953  0.4836 -0.8729
 6422TIP3   OH240824   2.695   5.627   1.671  0.2461 -0.0908 -0.3442
 6422TIP3    H140825   2.755   5.665   1.734  0.8607 -0.0397 -0.9523
 6422TIP3    H240826   2.646   5.561   1.720  0.5317  0.1333  0.2413
 6423TIP3   OH240827   2.369   5.507   7.249 -0.2716 -0.1325  0.2251
 6423TIP3    H140828   2.400   5.447   7.181 -0.7403 -0.3941  0.2408
 6423TIP3    H240829   2.378   5.594   7.210  1.0526 -0.1611  0.4532
 6424TIP3   OH240830   2.438   6.167   6.487  0.4824  0.5461 -0.1746
 6424TIP3    H140831   2.476   6.254   6.490  0.2863  0.6811 -1.3626
 6424TIP3    H240832   2.352   6.177   6.527  0.5752  0.8402 -0.0473
 6425TIP3   OH240833   1.046   0.471   1.011  0.0643 -0.1006  0.4416
 6425TIP3    H140834   1.024   0.412   1.083  1.8039 -2.1997 -0.6686
 6425TIP3    H240835   1.122   0.430   0.969  0.3290  2.1226 -1.3546
 6426TIP3   OH240836   3.623   1.092   8.244  0.1927  0.0033  0.3427
 6426TIP3    H140837   3.625   1.090   8.148  0.0959  0.9569  0.3200
 6426TIP3    H240838   3.700   1.142   8.269  0.4689 -0.6381  0.7825
 6427TIP3   OH240839   4.578   0.662   0.860  0.0980  0.1774 -1.2020
 6427TIP3    H140840   4.623   0.638   0.940  0.6930  0.4581 -1.4521
 6427TIP3    H240841   4.501   0.711   0.890  0.3640  0.3519 -0.8043
 6428TIP3   OH240842   3.735   5.111   7.230 -0.0682  0.0469 -0.0656
 6428TIP3    H140843   3.679   5.033   7.225 -0.8151  0.3880  2.5446
 6428TIP3    H240844   3.674   5.184   7.242  0.7786  0.7304  0.1252
 6429TIP3   OH240845   3.496   7.028   1.197  0.3307 -0.5937  0.2053
 6429TIP3    H140846   3.587   7.010   1.174  0.5903  0.0818  0.6984
 6429TIP3    H240847   3.458   6.942   1.213  1.0968 -0.8251  0.7963
 6430TIP3   OH240848   0.073   6.156   1.236  0.0304 -0.3433 -0.2934
 6430TIP3    H140849   0.051   6.248   1.220  0.9516  0.1258  0.9903
 6430TIP3    H240850   0.118   6.157   1.321  1.7051 -1.7268 -1.1230
 6431TIP3   OH240851   1.244   1.127   8.371  0.4791 -0.9234  0.1936
 6431TIP3    H140852   1.291   1.127   8.287  3.0486  0.0066  1.5823
 6431TIP3    H240853   1.156   1.156   8.348  1.6005  1.0154 -1.9812
 6432TIP3   OH240854   2.063   2.735   0.287 -0.6084  0.1130 -0.6288
 6432TIP3    H140855   2.014   2.782   0.354 -0.3315  0.5422 -0.7309
 6432TIP3    H240856   2.100   2.803   0.231  0.5902 -0.1845 -0.2097
 6433TIP3   OH240857   2.112   2.816   7.129  0.8821 -0.2149 -0.2978
 6433TIP3    H140858   2.097   2.842   7.220  1.5984  0.4640 -0.3733
 6433TIP3    H240859   2.202   2.783   7.127  0.5229 -1.2091 -0.5474
 6434TIP3   OH240860   6.314   6.585   0.302 -0.2458 -0.0722  0.8614
 6434TIP3    H140861   6.324   6.632   0.384  0.6684  0.1536  0.6261
 6434TIP3    H240862   6.255   6.640   0.250 -2.1592 -1.0131  1.9581
 6435TIP3   OH240863   1.640   1.321   1.977  0.1300 -0.1974 -0.2996
 6435TIP3    H140864   1.621   1.413   1.995  1.6465 -0.1150  1.0488
 6435TIP3    H240865   1.665   1.319   1.884  0.2029  0.7753 -0.3065
 6436TIP3   OH240866   3.288   6.317   7.653 -0.0839  0.2085 -0.0427
 6436TIP3    H140867   3.221   6.291   7.590 -0.5466  0.9807  0.1250
 6436TIP3    H240868   3.340   6.238   7.667 -0.6923 -0.2772 -0.5108
 6437TIP3   OH240869   1.706   0.276   2.309  0.5326  0.0360 -0.5731
 6437TIP3    H140870   1.792   0.314   2.329  0.5384  0.9269 -2.2065
 6437TIP3    H240871   1.719   0.182   2.320  1.7362  0.1604 -0.7933
 6438TIP3   OH240872   3.298   5.787   0.956  0.4087 -0.0618  0.0248
 6438TIP3    H140873   3.353   5.860   0.983 -0.1813 -0.3466  2.1210
 6438TIP3    H240874   3.218   5.828   0.923  0.3359  0.2722  0.6082
 6439TIP3   OH240875   4.999   5.523   1.953  0.2671 -0.9507 -0.5392
 6439TIP3    H140876   5.011   5.489   1.864 -1.3730 -0.6994 -0.8763
 6439TIP3    H240877   5.023   5.615   1.946  0.4245 -1.0001 -0.6582
 6440TIP3   OH240878   4.909   6.451   1.774 -0.1075 -0.0428  0.5126
 6440TIP3    H140879   4.925   6.544   1.755 -2.0384  0.3693  0.8150
 6440TIP3    H240880   4.911   6.409   1.688  2.0030  0.0520  0.4787
 6441TIP3   OH240881   7.144   5.697   1.147 -0.3991 -0.4688  0.1768
 6441TIP3    H140882   7.071   5.641   1.174  1.1888 -1.7809  1.9283
 6441TIP3    H240883   7.214   5.636   1.126  1.1198  0.8287  1.3475
 6442TIP3   OH240884   2.841   4.918   1.354 -0.0380  0.1414  0.3549
 6442TIP3    H140885   2.763   4.960   1.389  1.9575  2.9812  1.6270
 6442TIP3    H240886   2.909   4.985   1.360  2.1951 -1.7968 -1.9704
 6443TIP3   OH240887   2.995   5.527   1.930 -0.0963  0.1099  0.0520
 6443TIP3    H140888   2.962   5.440   1.953 -0.7302 -0.6725 -3.4712
 6443TIP3    H240889   2.926   5.587   1.956  0.5548 -0.3420  2.9790
 6444TIP3   OH240890   3.403   5.756   1.722 -0.2181 -0.2517 -0.0825
 6444TIP3    H140891   3.365   5.698   1.788 -0.4817 -0.0625 -0.0700
 6444TIP3    H240892   3.409   5.841   1.765  1.2681 -0.5294  0.3003
 6445TIP3   OH240893   2.105   4.406   0.036 -0.8435 -0.8615 -0.1699
 6445TIP3    H140894   2.127   4.454   0.116  0.5298  0.2171 -1.1580
 6445TIP3    H240895   2.180   4.349   0.021 -0.2797  0.2341 -1.6287
 6446TIP3   OH240896   3.641   4.978   1.569 -1.0008  0.0997 -0.5511
 6446TIP3    H140897   3.683   4.998   1.652 -0.9670  2.0779 -1.0168
 6446TIP3    H240898   3.697   5.020   1.503 -0.1500 -2.7465 -1.7395
 6447TIP3   OH240899   1.896   4.755   1.494 -0.0090  0.3885  0.0787
 6447TIP3    H140900   1.902   4.667   1.456 -0.1579  0.1054  0.6982
 6447TIP3    H240901   1.949   4.750   1.573 -2.8069 -0.1934  2.0224
 6448TIP3   OH240902   3.362   6.412   1.091  0.0040 -0.0431 -0.0952
 6448TIP3    H140903   3.349   6.467   1.168 -1.1530  0.7243 -0.8279
 6448TIP3    H240904   3.279   6.417   1.043  0.9973  0.2047 -1.8315
 6449TIP3   OH240905   2.871   4.770   6.926  0.2382 -0.1689 -0.3852
 6449TIP3    H140906   2.908   4.855   6.947 -1.9738  1.0836 -1.4001
 6449TIP3    H240907   2.927   4.736   6.856  1.2792  0.3194  0.2068
 6450TIP3   OH240908   0.887   5.679   2.109 -0.2276 -0.2893  0.1529
 6450TIP3    H140909   0.807   5.729   2.122 -0.3830 -0.7784  1.1699
 6450TIP3    H240910   0.942   5.702   2.184  0.2794 -0.5265 -0.1419
 6451TIP3   OH240911   5.534   6.274   0.631 -0.2675  0.2529  0.2432
 6451TIP3    H140912   5.442   6.257   0.654 -0.2157  1.0991  1.0792
 6451TIP3    H240913   5.569   6.188   0.608 -0.7798 -0.3366  1.6445
 6452TIP3   OH240914   2.355   6.951   2.458 -0.0249 -0.3972  0.2146
 6452TIP3    H140915   2.293   7.023   2.464  0.4193 -0.1343  1.8379
 6452TIP3    H240916   2.438   6.992   2.435  0.6885 -0.1109  3.1302
 6453TIP3   OH240917   5.612   2.383   1.264  0.0493  0.0046  0.1898
 6453TIP3    H140918   5.522   2.394   1.295  0.2598 -2.1855  1.7157
 6453TIP3    H240919   5.664   2.372   1.344  1.3060 -1.1225 -0.7391
 6454TIP3   OH240920   3.697   0.129   1.192  0.3017 -0.2712  0.0259
 6454TIP3    H140921   3.759   0.138   1.264 -1.0173  2.7946  0.8581
 6454TIP3    H240922   3.718   0.201   1.133  1.3743 -2.7461 -2.7547
 6455TIP3   OH240923   4.079   6.298   1.671 -0.3285  0.1303  0.1068
 6455TIP3    H140924   4.141   6.334   1.607 -0.7782  1.0142  0.1620
 6455TIP3    H240925   4.124   6.308   1.755  0.0803 -0.6253 -0.0190
 6456TIP3   OH240926   4.545   6.936   1.085  0.3023 -0.1710  0.1772
 6456TIP3    H140927   4.591   6.918   1.167 -0.2624 -0.6719  0.3950
 6456TIP3    H240928   4.607   6.914   1.017  1.3971  1.8935  0.4592
 6457TIP3   OH240929   2.784   5.311   7.719  0.2952 -0.4377 -0.2972
 6457TIP3    H140930   2.824   5.380   7.772  0.7318 -0.4497 -0.6065
 6457TIP3    H240931   2.824   5.320   7.633 -0.6712 -0.2006 -0.7271
 6458TIP3   OH240932   3.220   5.234   1.552  0.0371 -0.3468 -0.3776
 6458TIP3    H140933   3.200   5.328   1.547 -0.4184 -0.3294  1.2977
 6458TIP3    H240934   3.303   5.225   1.507  0.2315  0.9276 -0.3041
 6459TIP3   OH240935   2.828   1.444   1.706 -0.1740  0.4742 -0.3342
 6459TIP3    H140936   2.808   1.467   1.797  1.0456 -1.9437  0.5949
 6459TIP3    H240937   2.921   1.421   1.707  0.1605  1.6144 -2.4657
 6460TIP3   OH240938   1.245   5.061   7.102  0.1981  0.2230 -0.0135
 6460TIP3    H140939   1.239   5.109   7.019  0.5076  2.2239  1.1002
 6460TIP3    H240940   1.155   5.060   7.134  0.2019  0.1161 -0.0076
 6461TIP3   OH240941   2.850   1.994   1.117 -0.3901  0.3483  0.3210
 6461TIP3    H140942   2.846   1.905   1.151  1.2914 -0.0913 -0.5284
 6461TIP3    H240943   2.847   2.050   1.194 -0.1161 -0.5075  0.9540
 6462TIP3   OH240944   6.623   5.142   1.333  0.8812 -0.2480 -0.0604
 6462TIP3    H140945   6.590   5.191   1.408 -1.2790 -1.0172 -0.4722
 6462TIP3    H240946   6.709   5.110   1.361 -0.1075 -0.9413  2.2773
 6463TIP3   OH240947   3.352   1.628   0.477  0.0942 -0.2138  0.8344
 6463TIP3    H140948   3.434   1.635   0.527 -1.2085  0.9941  2.8860
 6463TIP3    H240949   3.329   1.535   0.482  1.4585 -0.6112  0.0128
 6464TIP3   OH240950   5.625   0.999   1.503 -0.7055  0.5287  0.3550
 6464TIP3    H140951   5.705   1.021   1.550  0.3184  0.4092 -1.3161
 6464TIP3    H240952   5.565   1.071   1.525 -0.0782  0.7574  1.3980
 6465TIP3   OH240953   2.430   6.400   0.991  0.1663  0.3460  0.0203
 6465TIP3    H140954   2.501   6.382   0.930  1.3768  0.1538  1.4676
 6465TIP3    H240955   2.359   6.343   0.963  0.8221  0.0286 -1.0040
 6466TIP3   OH240956   1.785   0.080   7.261 -0.0981  0.0849 -0.3858
 6466TIP3    H140957   1.707   0.049   7.307 -0.4895 -1.0180 -1.7846
 6466TIP3    H240958   1.795   0.170   7.291 -0.4836 -0.5267  1.6786
 6467TIP3   OH240959   2.984   6.216   1.221  0.3607  0.2077  0.0686
 6467TIP3    H140960   2.983   6.293   1.278 -0.3979  0.8797 -0.8195
 6467TIP3    H240961   3.036   6.152   1.267  1.4014  1.4329  0.6190
 6468TIP3   OH240962   6.787   4.380   6.562 -0.3331  0.2781 -0.1276
 6468TIP3    H140963   6.725   4.452   6.577  0.3447  0.5117  1.6226
 6468TIP3    H240964   6.787   4.369   6.467 -1.0706  2.0506 -0.3635
 6469TIP3   OH240965   6.013   0.156   6.815 -0.1471 -0.4921  0.1467
 6469TIP3    H140966   6.082   0.106   6.858  0.8691 -0.4319 -1.3605
 6469TIP3    H240967   6.020   0.132   6.723 -1.7094  0.0363 -0.1242
 6470TIP3   OH240968   1.717   4.245   1.418  0.0697  0.1897  0.3459
 6470TIP3    H140969   1.704   4.189   1.494  0.6968 -1.1405 -0.4960
 6470TIP3    H240970   1.769   4.191   1.358 -1.6693  0.6522 -1.6321
 6471TIP3   OH240971   0.906   5.471   7.713  0.3832  0.2084 -0.1392
 6471TIP3    H140972   0.899   5.566   7.708 -0.3579  0.1634 -0.0145
 6471TIP3    H240973   0.854   5.440   7.638  0.3164 -0.1079  0.0401
 6472TIP3   OH240974   1.261   5.671   0.397  0.7722 -0.0138 -0.1448
 6472TIP3    H140975   1.177   5.705   0.426  1.2153  0.7215  0.3036
 6472TIP3    H240976   1.242   5.585   0.361  0.0627 -0.4702  1.3232
 6473TIP3   OH240977   1.376   3.718   8.456 -0.3020  0.4479 -0.2672
 6473TIP3    H140978   1.393   3.811   8.469 -0.8444  0.5730 -0.4499
 6473TIP3    H240979   1.303   3.697   8.514  0.9884 -0.2739  1.1192
 6474TIP3   OH240980   0.849   3.870   6.974  0.1057  0.0449  0.0412
 6474TIP3    H140981   0.917   3.809   6.944 -0.9380 -0.8829 -0.4599
 6474TIP3    H240982   0.814   3.908   6.894 -0.6222 -0.1856  0.2529
 6475TIP3   OH240983   5.263   5.920   1.169 -0.2321  0.8585 -0.8314
 6475TIP3    H140984   5.176   5.881   1.168 -0.1112  0.5809 -2.1364
 6475TIP3    H240985   5.318   5.857   1.215  0.4643 -1.7128 -4.9712
 6476TIP3   OH240986   4.848   7.279   1.373  0.0322  0.4974 -0.3926
 6476TIP3    H140987   4.854   7.250   1.464 -2.6476  1.3292  0.0938
 6476TIP3    H240988   4.895   7.363   1.372 -0.6308  0.8907  0.4343
 6477TIP3   OH240989   1.297   4.396   1.169 -0.8760  0.1969  0.1999
 6477TIP3    H140990   1.363   4.427   1.231 -0.0654 -1.6705  0.2975
 6477TIP3    H240991   1.317   4.441   1.087  0.4315 -0.2594  0.2690
 6478TIP3   OH240992   4.939   7.262   0.090 -0.2263  0.3407 -0.5226
 6478TIP3    H140993   4.993   7.336   0.119  0.8804 -0.5948 -0.1609
 6478TIP3    H240994   4.869   7.302   0.038 -0.8146  1.8406  1.3624
 6479TIP3   OH240995   2.546   6.472   0.304  1.0368 -0.9027 -0.0736
 6479TIP3    H140996   2.526   6.461   0.211  0.7328  3.2259 -0.5984
 6479TIP3    H240997   2.640   6.453   0.311  1.6772  1.3634 -1.7940
 6480TIP3   OH240998   4.343   4.855   1.377 -0.4197  0.1396  0.2825
 6480TIP3    H140999   4.317   4.827   1.465 -0.2017 -0.9061  0.0206
 6480TIP3    H241000   4.379   4.776   1.337  0.2796  0.8263 -0.4462
 6481TIP3   OH241001   1.914   1.824   0.605  0.0560  0.0668 -0.1259
 6481TIP3    H141002   1.998   1.867   0.589 -0.4063  0.5954 -1.1942
 6481TIP3    H241003   1.904   1.763   0.532 -1.0288  0.8451 -0.6379
 6482TIP3   OH241004   2.791   4.909   1.898 -0.1978 -0.3669 -0.0193
 6482TIP3    H141005   2.775   4.993   1.939 -0.1844 -1.0829  1.4989
 6482TIP3    H241006   2.870   4.876   1.942 -2.3516 -2.8581  2.1409
 6483TIP3   OH241007   2.879   6.783   0.140 -0.1582  1.0181  0.0283
 6483TIP3    H141008   2.901   6.767   0.232 -0.9659  0.5593  0.1542
 6483TIP3    H241009   2.807   6.846   0.144 -0.6507  0.4821 -0.2574
 6484TIP3   OH241010   5.546   6.971   0.519 -1.0873 -0.1383 -0.2971
 6484TIP3    H141011   5.576   6.938   0.603  0.3432  0.3770 -0.5954
 6484TIP3    H241012   5.490   6.901   0.484 -0.0270 -1.2280  0.1516
 6485TIP3   OH241013   2.445   5.482   0.711 -0.1761  0.3586  0.4301
 6485TIP3    H141014   2.416   5.573   0.722 -1.6679  0.0370 -0.7603
 6485TIP3    H241015   2.381   5.443   0.653  0.7801 -1.3241  0.4740
 6486TIP3   OH241016   1.334   0.203   1.075  0.1782  0.1375 -0.1490
 6486TIP3    H141017   1.329   0.299   1.066 -1.4462  0.1616  0.7962
 6486TIP3    H241018   1.359   0.173   0.987 -0.2887  1.3677 -0.7276
 6487TIP3   OH241019   2.862   5.746   1.962 -0.0522 -0.0764  0.0446
 6487TIP3    H141020   2.779   5.790   1.981 -0.9164 -0.9052 -1.7058
 6487TIP3    H241021   2.929   5.812   1.982 -1.2421  1.4156 -0.7956
 6488TIP3   OH241022   1.644   4.607   1.176  0.2242 -0.3464 -0.3967
 6488TIP3    H141023   1.736   4.635   1.168 -0.0291  0.7073  0.3338
 6488TIP3    H241024   1.594   4.680   1.142 -0.4160 -0.2419  0.7565
 6489TIP3   OH241025   2.118   3.470   8.333 -0.1917 -0.2367  0.3738
 6489TIP3    H141026   2.138   3.485   8.240 -0.3406 -0.9084  0.2322
 6489TIP3    H241027   2.139   3.553   8.375 -1.2048  0.4444 -0.4372
 6490TIP3   OH241028   2.858   1.775   7.648  0.1073 -0.2456 -0.3548
 6490TIP3    H141029   2.767   1.752   7.627 -0.1894  1.1390 -0.6959
 6490TIP3    H241030   2.883   1.835   7.577  1.0887 -0.1560  0.0705
 6491TIP3   OH241031   4.064   4.849   6.993  0.4268 -0.4136  0.3131
 6491TIP3    H141032   4.128   4.902   6.946 -1.6773  1.6401 -0.3128
 6491TIP3    H241033   4.080   4.867   7.085 -0.4375  1.5657  0.0991
 6492TIP3   OH241034   2.262   6.677   2.476  0.4247  0.3263 -0.0865
 6492TIP3    H141035   2.273   6.772   2.472 -0.9754  0.4558 -2.1440
 6492TIP3    H241036   2.210   6.657   2.398 -1.4690 -1.8189  1.6700
 6493TIP3   OH241037   0.843   0.060   1.791 -0.9238  0.2425  0.2941
 6493TIP3    H141038   0.875  -0.018   1.837  2.0104  0.4996 -1.2317
 6493TIP3    H241039   0.883   0.134   1.836 -0.5663  0.6634 -0.7085
 6494TIP3   OH241040   2.838   5.297   1.663 -0.2693 -0.6411 -0.3116
 6494TIP3    H141041   2.878   5.296   1.750 -0.6391 -0.2538 -0.1368
 6494TIP3    H241042   2.912   5.291   1.602  0.2474  2.2891 -0.0481
 6495TIP3   OH241043   4.289   0.651   0.781 -0.5728  0.0055  0.4592
 6495TIP3    H141044   4.296   0.692   0.695 -1.1451  0.1496  0.4851
 6495TIP3    H241045   4.335   0.567   0.771  1.6166  1.1175  0.7144
 6496TIP3   OH241046   4.109   0.292   8.398 -0.4092  0.0018 -0.1101
 6496TIP3    H141047   4.188   0.252   8.362 -0.1667 -0.6323  1.0955
 6496TIP3    H241048   4.120   0.386   8.383  0.0255 -0.1913 -1.0094
 6497TIP3   OH241049   7.220   3.611   7.590 -0.1449  0.0811 -0.0897
 6497TIP3    H141050   7.245   3.519   7.584 -0.1489  0.1022 -0.4507
 6497TIP3    H241051   7.236   3.634   7.682 -0.4531 -0.3657  0.0764
 6498TIP3   OH241052   2.875   0.766   0.403 -0.2238  0.1527 -0.8355
 6498TIP3    H141053   2.823   0.686   0.397 -0.6881  0.4158 -0.4226
 6498TIP3    H241054   2.932   0.752   0.479  1.0109 -0.5348 -1.8861
 6499TIP3   OH241055   0.995   5.932   0.256  0.1539  0.2074 -0.0141
 6499TIP3    H141056   1.017   5.856   0.202  1.8416  0.0047  0.9232
 6499TIP3    H241057   0.972   5.895   0.341  1.5999  0.7441  0.6392
 6500TIP3   OH241058   0.666   6.163   8.292  0.0694  0.0848  0.4665
 6500TIP3    H141059   0.571   6.173   8.297  0.0546 -0.3753  1.2368
 6500TIP3    H241060   0.679   6.068   8.283  0.4095  0.2540 -0.9741
 6501TIP3   OH241061   0.814   6.095   0.134  0.3846  0.2884 -0.3930
 6501TIP3    H141062   0.880   6.043   0.179 -1.2023 -1.8471 -0.4482
 6501TIP3    H241063   0.747   6.111   0.200 -1.4828 -2.0241 -1.6545
 6502TIP3   OH241064   2.291   6.943   1.151 -0.3879  0.0592  0.6492
 6502TIP3    H141065   2.260   6.873   1.093  0.1952  1.0436 -0.8561
 6502TIP3    H241066   2.229   7.015   1.136 -0.6496  0.0738  1.7748
 6503TIP3   OH241067   5.388   0.315   0.974 -0.1673  0.1329 -1.1412
 6503TIP3    H141068   5.430   0.281   0.896 -0.7726 -1.6141 -0.7332
 6503TIP3    H241069   5.424   0.263   1.046  1.4366  2.6427 -0.0543
 6504TIP3   OH241070   7.238   6.526   1.879 -0.3167  0.0157 -0.4067
 6504TIP3    H141071   7.237   6.433   1.857  0.6069  0.1418 -1.0324
 6504TIP3    H241072   7.206   6.570   1.800  1.2414  0.3513 -0.8717
 6505TIP3   OH241073   4.809   5.888   1.944  1.0760 -0.7822 -0.0356
 6505TIP3    H141074   4.882   5.827   1.947  0.8931 -0.9579  1.6487
 6505TIP3    H241075   4.809   5.930   2.030  0.5231  0.7901 -0.7812
 6506TIP3   OH241076   3.787   6.355   0.428 -0.7095  0.1119 -0.5876
 6506TIP3    H141077   3.790   6.259   0.435  0.5513  0.2744  2.0743
 6506TIP3    H241078   3.877   6.382   0.448 -1.8422  1.9702  2.3414
 6507TIP3   OH241079   0.219   0.213   5.948 -0.4260 -0.1369 -0.8040
 6507TIP3    H141080   0.160   0.150   5.989  0.3329  0.0687  0.6342
 6507TIP3    H241081   0.294   0.162   5.919 -0.0960  0.0122 -0.2095
 6508TIP3   OH241082   4.396   6.758   1.386  0.0306 -0.2668  0.3939
 6508TIP3    H141083   4.357   6.694   1.446 -0.7024  0.9425  1.2392
 6508TIP3    H241084   4.469   6.712   1.345 -1.6277 -2.2369 -0.4089
 6509TIP3   OH241085   0.204   0.139   1.096  0.1910 -0.4507 -0.4347
 6509TIP3    H141086   0.149   0.215   1.113 -0.5419 -1.0707  0.0271
 6509TIP3    H241087   0.290   0.175   1.075  0.4836  0.4414  2.1295
 6510TIP3   OH241088   4.318   1.326   1.022  0.5956  0.2342 -0.7400
 6510TIP3    H141089   4.264   1.250   1.043  0.9037  0.6012  1.4923
 6510TIP3    H241090   4.407   1.290   1.016  0.7706  0.4463  0.5267
 6511TIP3   OH241091   2.985   5.974   6.816  0.4247 -0.3615 -0.1693
 6511TIP3    H141092   2.955   6.010   6.733  0.1425  1.4430  0.6807
 6511TIP3    H241093   3.046   5.905   6.792  0.8006  0.5303 -1.8814
 6512TIP3   OH241094   6.520   5.418   0.224  0.4615 -0.3302  0.4308
 6512TIP3    H141095   6.480   5.374   0.149 -1.7463  0.5140  1.0935
 6512TIP3    H241096   6.560   5.497   0.186 -2.8906  1.4563  0.4785
 6513TIP3   OH241097   3.548   6.747   0.084 -0.0112  0.2362 -0.0745
 6513TIP3    H141098   3.550   6.732  -0.010 -0.3778  0.1240 -0.0656
 6513TIP3    H241099   3.519   6.664   0.121  1.3598 -0.1165  0.2326
 6514TIP3   OH241100   4.147   6.562   8.469  0.4185 -0.4109  0.0289
 6514TIP3    H141101   4.124   6.480   8.514  0.8073 -1.6558 -1.9740
 6514TIP3    H241102   4.184   6.617   8.537  2.2371 -2.7407  1.0028
 6515TIP3   OH241103   6.584   1.496   1.683 -0.0426  0.9535 -0.1544
 6515TIP3    H141104   6.513   1.559   1.668  0.9682  1.9194 -0.8957
 6515TIP3    H241105   6.616   1.517   1.771 -0.3346  0.8318 -0.0149
 6516TIP3   OH241106   1.592   5.517   7.966 -0.3980  0.1218  0.0302
 6516TIP3    H141107   1.564   5.425   7.963  0.7737 -0.2042 -1.4160
 6516TIP3    H241108   1.510   5.566   7.958 -0.8882 -0.8112 -0.9177
 6517TIP3   OH241109   3.097   5.064   0.102  0.4059 -0.0988  0.0180
 6517TIP3    H141110   3.042   5.021   0.167 -1.5771 -0.5364 -1.8987
 6517TIP3    H241111   3.132   4.993   0.048 -0.9523  0.4668 -1.6631
 6518TIP3   OH241112   5.344   7.177   2.309 -0.5055  0.0039  0.2099
 6518TIP3    H141113   5.330   7.165   2.215  0.6582  2.4607 -0.3300
 6518TIP3    H241114   5.434   7.209   2.316 -0.6790  0.1279  2.1415
 6519TIP3   OH241115   1.690   4.116   1.662  0.4483  0.2845 -0.3858
 6519TIP3    H141116   1.648   4.178   1.721 -1.2709 -1.0899 -0.1052
 6519TIP3    H241117   1.761   4.078   1.713 -0.1873  0.0803  0.3611
 6520TIP3   OH241118   3.531   3.587   1.170 -1.0363  0.5240  0.4737
 6520TIP3    H141119   3.602   3.584   1.235  1.5853 -2.3203 -2.3526
 6520TIP3    H241120   3.452   3.569   1.221  0.6723  0.3083  3.1770
 6521TIP3   OH241121   3.147   0.401   0.927  0.0419  0.0660 -0.0009
 6521TIP3    H141122   3.230   0.407   0.975 -0.6755 -0.2935  1.2890
 6521TIP3    H241123   3.082   0.438   0.986 -0.6849  0.5861 -1.1194
 6522TIP3   OH241124   3.629   0.777   8.242  0.1361 -0.2778 -0.0330
 6522TIP3    H141125   3.657   0.845   8.180 -0.2951 -2.3792 -2.5943
 6522TIP3    H241126   3.548   0.742   8.205 -0.3279 -1.3479  1.9143
 6523TIP3   OH241127   4.170   6.915   1.734 -0.1375 -0.1644  0.2541
 6523TIP3    H141128   4.256   6.896   1.774 -0.1102  2.7299  1.6972
 6523TIP3    H241129   4.146   7.001   1.769 -2.2286  0.4540 -2.5558
 6524TIP3   OH241130   3.899   0.926   8.428  1.0409  0.0510  0.3167
 6524TIP3    H141131   3.813   0.894   8.456  1.2915 -0.0669  0.9733
 6524TIP3    H241132   3.959   0.856   8.454  1.1821 -0.4381 -1.3027
 6525TIP3   OH241133   4.922   7.156   7.855 -0.0753 -0.6707  0.0765
 6525TIP3    H141134   5.010   7.194   7.855 -0.0841 -0.6213  1.6367
 6525TIP3    H241135   4.893   7.162   7.946 -1.7200 -0.6427 -0.4281
 6526TIP3   OH241136   3.200   0.350   7.245  0.1060 -0.1222  0.2114
 6526TIP3    H141137   3.259   0.351   7.170 -0.6545  1.1069 -0.3984
 6526TIP3    H241138   3.254   0.379   7.319  0.4004  0.4594 -0.2332
 6527TIP3   OH241139   3.009   6.667   7.628  0.3653  0.0961 -0.6500
 6527TIP3    H141140   2.999   6.657   7.722  1.0569  1.6870 -0.3835
 6527TIP3    H241141   2.924   6.642   7.592 -0.3275  0.7336  0.5036
 6528TIP3   OH241142   4.774   0.988   2.145 -0.4291 -0.0780 -0.2807
 6528TIP3    H141143   4.741   0.909   2.188  0.0228 -0.6549 -0.9578
 6528TIP3    H241144   4.861   1.001   2.184 -0.6747  0.3216  0.1276
 6529TIP3   OH241145   5.311   6.726   7.589 -0.1503  0.2272 -0.4778
 6529TIP3    H141146   5.249   6.799   7.582 -0.1944  0.0081 -2.8327
 6529TIP3    H241147   5.262   6.656   7.632 -1.4402  0.1912 -1.9714
 6530TIP3   OH241148   2.003   0.258   6.276 -0.0425  0.5971  0.4997
 6530TIP3    H141149   1.944   0.331   6.257 -0.6918 -0.1991 -0.5765
 6530TIP3    H241150   2.089   0.300   6.285 -0.5972  1.6435  1.1505
 6531TIP3   OH241151   6.845   1.161   7.223  0.4862 -0.5118 -0.2967
 6531TIP3    H141152   6.816   1.079   7.183  1.2551 -0.2771 -1.3737
 6531TIP3    H241153   6.860   1.140   7.315  2.2063 -1.9837 -0.8937
 6532TIP3   OH241154   4.994   5.566   0.871  0.2914 -0.1643 -0.6001
 6532TIP3    H141155   4.985   5.516   0.789 -4.0342 -1.4005  0.4952
 6532TIP3    H241156   4.943   5.645   0.857  0.0521 -0.0842  0.6507
 6533TIP3   OH241157   6.848   6.176   1.782 -0.3158  0.1155  0.0544
 6533TIP3    H141158   6.856   6.089   1.743 -0.3118  0.4998 -0.8047
 6533TIP3    H241159   6.754   6.191   1.789 -0.3177  0.2093 -0.1738
 6534TIP3   OH241160   1.883   0.232   1.573  0.5434  0.2883 -0.5550
 6534TIP3    H141161   1.832   0.262   1.649 -0.6337  1.1191 -1.6493
 6534TIP3    H241162   1.827   0.250   1.498  1.0252 -2.0482 -1.5005
 6535TIP3   OH241163   0.661   5.186   1.554 -0.0210  0.7598  0.4307
 6535TIP3    H141164   0.702   5.106   1.522 -1.3374 -0.1133  0.9008
 6535TIP3    H241165   0.713   5.257   1.516  0.8455 -0.3147 -0.3889
 6536TIP3   OH241166   3.167   0.998   1.197 -0.1810 -0.1363 -0.2557
 6536TIP3    H141167   3.216   0.916   1.196  0.4045  0.2049  0.4075
 6536TIP3    H241168   3.128   1.004   1.109  1.7628  0.0783 -1.1206
 6537TIP3   OH241169   4.513   4.732   2.037  0.0924  0.3272  0.0200
 6537TIP3    H141170   4.423   4.758   2.021  0.2739  1.4222  0.7204
 6537TIP3    H241171   4.560   4.755   1.956 -0.2380 -0.2024 -0.3259
 6538TIP3   OH241172   4.766   7.280   6.967 -0.1599  0.2162 -0.1331
 6538TIP3    H141173   4.748   7.199   7.014  0.3218 -0.5445 -1.2532
 6538TIP3    H241174   4.841   7.318   7.013 -1.4821  0.9305  1.4870
 6539TIP3   OH241175   4.466   0.901   2.130  0.3382 -0.0745 -0.0753
 6539TIP3    H141176   4.463   0.841   2.204  1.4502 -0.5592 -0.4013
 6539TIP3    H241177   4.507   0.980   2.164  0.7151 -0.2444 -0.1265
 6540TIP3   OH241178   5.760   3.669   1.773  0.2488 -0.2823  0.5646
 6540TIP3    H141179   5.683   3.649   1.826  1.4576 -1.1172  2.0755
 6540TIP3    H241180   5.726   3.695   1.688 -1.7017 -0.2856  1.3343
 6541TIP3   OH241181   4.955   5.445   2.235  0.3050  0.3433 -0.2743
 6541TIP3    H141182   4.967   5.531   2.275  3.9219  0.2602 -1.0576
 6541TIP3    H241183   4.969   5.460   2.142 -1.1892 -0.7405 -0.6995
 6542TIP3   OH241184   2.892   2.174   1.306  0.1075  0.2561 -0.0649
 6542TIP3    H141185   2.916   2.267   1.311  1.3134 -0.0462 -0.1882
 6542TIP3    H241186   2.942   2.133   1.377 -1.0046 -0.1842  0.4728
 6543TIP3   OH241187   6.324   5.321   1.625 -0.4206 -0.5898  0.4452
 6543TIP3    H141188   6.339   5.395   1.566 -1.2288  0.2105  1.2224
 6543TIP3    H241189   6.333   5.358   1.713  1.0712 -1.8387  0.8400
 6544TIP3   OH241190   5.135   4.958   0.671 -0.0977 -0.1320  0.0695
 6544TIP3    H141191   5.116   4.983   0.581  0.2983 -1.1960 -0.3151
 6544TIP3    H241192   5.097   5.028   0.724 -1.9795 -0.4329 -0.8402
 6545TIP3   OH241193   2.631   2.428   8.405 -0.2683 -0.1858  0.4600
 6545TIP3    H141194   2.648   2.497   8.468 -1.7719 -0.3518  1.0574
 6545TIP3    H241195   2.666   2.461   8.322 -1.0843  1.3243  0.7148
 6546TIP3   OH241196   7.008   4.837   1.917  0.1060 -0.0495  0.0923
 6546TIP3    H141197   6.956   4.895   1.972 -1.0118  0.6001 -1.6089
 6546TIP3    H241198   6.944   4.779   1.876  0.7763  0.3115 -1.5123
 6547TIP3   OH241199   2.456   3.012   1.403 -0.3641 -0.1608 -0.0926
 6547TIP3    H141200   2.475   3.059   1.484  0.9986  0.7309 -0.9040
 6547TIP3    H241201   2.527   3.038   1.343 -2.4715  0.8141 -2.2376
 6548TIP3   OH241202   4.767   3.000   1.914  0.2407 -1.0412  0.2070
 6548TIP3    H141203   4.750   3.053   1.992 -0.7737 -0.1042 -0.6307
 6548TIP3    H241204   4.847   2.952   1.934  0.1513 -0.5764  1.7068
 6549TIP3   OH241205   5.446   5.551   8.249  0.0811 -0.1961 -0.1459
 6549TIP3    H141206   5.478   5.609   8.180  0.3802 -0.2023 -0.0134
 6549TIP3    H241207   5.497   5.575   8.326  1.9331 -2.2484 -0.6661
 6550TIP3   OH241208   3.309   6.423   6.770  0.2939  0.6036  0.5414
 6550TIP3    H141209   3.393   6.386   6.797 -0.2439  0.3300  1.8713
 6550TIP3    H241210   3.266   6.351   6.723 -0.1893 -0.0467  1.9549
 6551TIP3   OH241211   4.289   0.051   7.500  0.1195  0.2860 -0.5848
 6551TIP3    H141212   4.284  -0.017   7.433 -0.3117  1.4463 -1.7368
 6551TIP3    H241213   4.332   0.124   7.457 -2.4960  1.9751 -0.3861
 6552TIP3   OH241214   2.185   6.363   2.389 -0.0181  0.6411 -0.1455
 6552TIP3    H141215   2.145   6.333   2.307 -0.1697  0.8060 -0.1297
 6552TIP3    H241216   2.146   6.448   2.405 -3.0493 -1.1080  2.2617
 6553TIP3   OH241217   5.495   1.725   6.491  0.2474  0.3679  0.2474
 6553TIP3    H141218   5.405   1.749   6.468 -0.0130 -0.8697 -0.1037
 6553TIP3    H241219   5.499   1.733   6.586 -0.4542 -0.2591  0.3341
 6554TIP3   OH241220   4.549   6.805   0.810 -0.4146  0.5955  0.4160
 6554TIP3    H141221   4.569   6.749   0.736 -1.0230 -1.3873  1.7176
 6554TIP3    H241222   4.493   6.874   0.774 -0.1996 -0.0018 -1.0662
 6555TIP3   OH241223   4.355   0.118   0.397  0.0618  0.1008  0.1048
 6555TIP3    H141224   4.364   0.041   0.453 -1.1329  0.8681  1.3514
 6555TIP3    H241225   4.285   0.170   0.436 -1.6676  0.0774 -2.7596
 6556TIP3   OH241226   4.265   3.968   1.153  0.2344  0.3318  0.3198
 6556TIP3    H141227   4.333   3.960   1.086 -2.4042  0.5186 -2.5042
 6556TIP3    H241228   4.281   3.895   1.212  1.6761 -0.8413 -1.4567
 6557TIP3   OH241229   1.946   5.846   1.629 -0.2170 -0.1892 -0.0335
 6557TIP3    H141230   2.011   5.874   1.565 -2.2166  1.1573 -1.5682
 6557TIP3    H241231   1.944   5.917   1.693  0.5027 -0.6907  0.5512
 6558TIP3   OH241232   6.589   4.812   1.165  0.6280  0.1557 -0.0723
 6558TIP3    H141233   6.617   4.840   1.252  2.3960  0.5533 -0.7380
 6558TIP3    H241234   6.526   4.742   1.181 -0.9076  1.8663  1.5614
 6559TIP3   OH241235   2.427   4.123   1.715  0.9443 -0.1583 -0.3610
 6559TIP3    H141236   2.412   4.049   1.656  2.4184 -0.1799 -0.7166
 6559TIP3    H241237   2.410   4.200   1.662 -2.2005 -0.2183  0.4447
 6560TIP3   OH241238   0.440   2.484   1.339  0.2096 -0.4071  0.2459
 6560TIP3    H141239   0.491   2.432   1.401  0.0479 -0.2715  0.4926
 6560TIP3    H241240   0.355   2.494   1.381  0.0451 -0.4558 -0.0714
 6561TIP3   OH241241   7.245   5.217   7.153  0.1208  0.6042 -0.1239
 6561TIP3    H141242   7.313   5.255   7.096  0.6306 -0.3042 -0.1382
 6561TIP3    H241243   7.190   5.167   7.093 -0.6617  1.4592 -0.1327
 6562TIP3   OH241244   5.180   5.709   8.344 -0.0322 -0.1236  0.0011
 6562TIP3    H141245   5.250   5.715   8.279  0.8138  0.0390  0.9062
 6562TIP3    H241246   5.121   5.781   8.323  0.0260 -0.3180 -0.8263
 6563TIP3   OH241247   3.364   3.852   2.176 -0.0069  0.1028 -0.1308
 6563TIP3    H141248   3.425   3.883   2.243 -0.0312  2.3088 -1.0968
 6563TIP3    H241249   3.326   3.932   2.139 -1.6044 -1.1658 -1.2839
 6564TIP3   OH241250   5.502   4.802   1.016  0.4283 -0.6716 -0.1341
 6564TIP3    H141251   5.547   4.723   1.046  1.4245 -0.5609 -1.2875
 6564TIP3    H241252   5.451   4.774   0.940  0.2376 -0.3509 -0.1253
 6565TIP3   OH241253   3.183   5.979   7.578 -0.2956 -0.0131  0.2811
 6565TIP3    H141254   3.214   6.039   7.510  0.8897  1.0866  1.7381
 6565TIP3    H241255   3.089   5.973   7.564 -0.0267 -0.0162 -1.6062
 6566TIP3   OH241256   6.686   4.902   8.076  0.3149 -0.6011  0.3829
 6566TIP3    H141257   6.719   4.812   8.085 -1.1999 -1.1165  0.8872
 6566TIP3    H241258   6.620   4.897   8.007 -0.3999 -0.0463  1.0176
 6567TIP3   OH241259   4.378   0.862   0.954 -0.1591 -0.1604  0.1958
 6567TIP3    H141260   4.297   0.836   0.910 -0.0083  1.0984 -0.8670
 6567TIP3    H241261   4.392   0.952   0.926 -0.2185  0.8136  3.0647
 6568TIP3   OH241262   4.340   6.601   1.619 -0.5926 -0.1997  0.3973
 6568TIP3    H141263   4.425   6.588   1.661 -0.0498  1.2905 -0.2107
 6568TIP3    H241264   4.278   6.606   1.692  0.2651  1.8536  1.0130
 6569TIP3   OH241265   3.384   6.695   8.298 -0.2130  0.7403  0.9242
 6569TIP3    H141266   3.372   6.691   8.203  1.9529  1.9435  0.5530
 6569TIP3    H241267   3.467   6.648   8.314  0.5733  2.4243  1.9407
 6570TIP3   OH241268   2.516   3.985   0.540 -0.1665 -0.1862 -0.6142
 6570TIP3    H141269   2.542   4.045   0.470 -1.3439 -0.3917 -1.2537
 6570TIP3    H241270   2.432   4.019   0.571 -0.6589 -1.2693 -0.7219
 6571TIP3   OH241271   3.373   0.688   7.562 -0.2125 -0.1316  0.9869
 6571TIP3    H141272   3.445   0.694   7.499 -1.1876  0.1230 -0.1017
 6571TIP3    H241273   3.340   0.598   7.551  1.4386 -1.0575  3.1550
 6572TIP3   OH241274   4.920   6.402   8.237  0.3620  0.1289 -0.2562
 6572TIP3    H141275   4.868   6.389   8.317  0.7409  1.3566  0.2140
 6572TIP3    H241276   4.921   6.317   8.195 -1.0822 -0.1882  0.3081
 6573TIP3   OH241277   6.807   6.335   8.217  0.7676 -0.2784  0.2160
 6573TIP3    H141278   6.854   6.273   8.271 -1.3604 -2.7491 -0.6633
 6573TIP3    H241279   6.727   6.354   8.266 -0.5585 -1.5274 -1.4121
 6574TIP3   OH241280   4.691   0.184   8.177  0.4692  0.1129  0.6708
 6574TIP3    H141281   4.738   0.267   8.164  0.4443  0.0328  0.0420
 6574TIP3    H241282   4.600   0.205   8.158  0.1054  0.4615  2.6899
 6575TIP3   OH241283   0.975   5.562   8.295 -0.3930 -0.0988 -0.2331
 6575TIP3    H141284   0.921   5.623   8.345  0.2292 -0.1086  0.4632
 6575TIP3    H241285   0.950   5.576   8.204 -2.7678 -1.2727  0.2030
 6576TIP3   OH241286   5.958   5.477   1.101  0.1481  0.5071 -0.7721
 6576TIP3    H141287   6.025   5.417   1.134 -0.5135 -0.4118 -1.0618
 6576TIP3    H241288   5.932   5.438   1.017 -0.2174  1.2682 -1.0122
 6577TIP3   OH241289   6.616   6.677   0.563  0.0588 -0.1363  0.0587
 6577TIP3    H141290   6.621   6.666   0.468  0.2675 -2.7086  0.3438
 6577TIP3    H241291   6.704   6.705   0.588 -0.8734  3.8769 -0.8576
 6578TIP3   OH241292   5.318   5.857   1.632 -0.1244  0.6146 -0.1029
 6578TIP3    H141293   5.406   5.837   1.600 -0.3905  0.7888 -0.9661
 6578TIP3    H241294   5.321   5.950   1.653 -0.6442  1.0982 -2.0158
 6579TIP3   OH241295   5.312   0.222   1.908  0.3779  0.5551 -0.0795
 6579TIP3    H141296   5.246   0.157   1.932 -0.6982  1.2363 -1.1367
 6579TIP3    H241297   5.266   0.284   1.852  1.7910  1.3388 -0.4113
 6580TIP3   OH241298   2.502   6.823   1.627 -0.3750 -0.1450 -0.3714
 6580TIP3    H141299   2.493   6.800   1.535  0.1503 -1.3835 -0.1165
 6580TIP3    H241300   2.523   6.741   1.671  1.4802  0.8111  0.5640
 6581TIP3   OH241301   5.903   5.327   1.409 -0.4516 -0.3736 -0.4335
 6581TIP3    H141302   5.957   5.406   1.407  0.1640 -0.7778  0.2920
 6581TIP3    H241303   5.814   5.360   1.425 -0.0524  0.1027  0.8419
 6582TIP3   OH241304   6.216   5.705   1.750 -1.0296  0.2486 -0.1446
 6582TIP3    H141305   6.235   5.649   1.825 -2.0293 -1.1382 -0.9071
 6582TIP3    H241306   6.265   5.666   1.677 -0.4651  1.2914 -0.3427
 6583TIP3   OH241307   7.289   6.897   8.435 -0.3641 -0.0612 -0.6271
 6583TIP3    H141308   7.362   6.839   8.456 -1.0690 -0.0667  1.9566
 6583TIP3    H241309   7.316   6.982   8.468 -0.9927  0.2198 -0.8262
 6584TIP3   OH241310   7.174   7.258   7.706 -0.1024 -0.1579 -0.5200
 6584TIP3    H141311   7.235   7.264   7.779  1.8711 -2.0721 -1.9673
 6584TIP3    H241312   7.091   7.291   7.742  1.1335  0.1562  2.1839
 6585TIP3   OH241313   1.450   5.051   1.134 -0.5993 -0.2509  0.1926
 6585TIP3    H141314   1.365   5.062   1.177  0.3643 -0.1397  2.1677
 6585TIP3    H241315   1.486   5.139   1.129 -0.8034 -0.2389 -1.0788
 6586TIP3   OH241316   3.828   6.407   1.938 -0.3782  0.1139 -0.0484
 6586TIP3    H141317   3.899   6.394   2.000 -1.2750 -0.4713  0.8624
 6586TIP3    H241318   3.804   6.499   1.948  1.1532  0.6795 -1.3447
 6587TIP3   OH241319   1.544   1.470   8.397 -0.1154  0.1736  0.0331
 6587TIP3    H141320   1.489   1.533   8.444  1.0103  0.1081  1.4997
 6587TIP3    H241321   1.632   1.485   8.432  0.8466  0.4156 -2.4130
 6588TIP3   OH241322   6.153   5.327   1.200 -0.5004 -0.0565  0.6227
 6588TIP3    H141323   6.191   5.323   1.288  1.3513  0.8328 -0.1277
 6588TIP3    H241324   6.167   5.240   1.163  0.8170  0.2677  0.3512
 6589TIP3   OH241325   3.707   0.788   7.003 -0.1520  0.1166 -0.2180
 6589TIP3    H141326   3.696   0.700   6.969 -1.1083  0.8863 -1.9778
 6589TIP3    H241327   3.625   0.805   7.051 -0.5404  0.5375 -1.0268
 6590TIP3   OH241328   4.598   1.038   0.630 -0.3566 -0.7349  0.1284
 6590TIP3    H141329   4.565   0.949   0.624  0.7965 -1.0879 -1.3855
 6590TIP3    H241330   4.685   1.035   0.589 -0.0209  0.9377  0.6478
 6591TIP3   OH241331   2.160   4.664   7.625  0.1149  0.0313 -0.1129
 6591TIP3    H141332   2.081   4.643   7.674 -0.3892 -0.4417 -1.1056
 6591TIP3    H241333   2.155   4.609   7.547  1.3582  0.0969 -0.2453
 6592TIP3   OH241334   5.688   0.863   0.476  0.5978 -0.2975  0.3472
 6592TIP3    H141335   5.783   0.852   0.487  0.7315  0.9263  0.4722
 6592TIP3    H241336   5.679   0.946   0.430 -0.4614  0.0350  1.1459
 6593TIP3   OH241337   2.704   5.836   1.316  0.6342 -0.4295 -0.1852
 6593TIP3    H141338   2.724   5.915   1.365 -2.3569  0.1823  0.1513
 6593TIP3    H241339   2.632   5.795   1.364 -0.6358 -1.1546 -2.5980
 6594TIP3   OH241340   1.239   5.252   0.429  0.3529  0.2315 -0.1393
 6594TIP3    H141341   1.334   5.248   0.424  0.2654  0.3088 -2.2210
 6594TIP3    H241342   1.209   5.210   0.348 -1.3917 -0.2606  0.7326
 6595TIP3   OH241343   3.528   3.383   7.126  0.1642  0.1429 -0.1375
 6595TIP3    H141344   3.507   3.341   7.043 -0.9918  2.8505 -1.2724
 6595TIP3    H241345   3.445   3.420   7.155  1.4456  2.9867  0.0218
 6596TIP3   OH241346   3.792   3.940   0.690 -0.1017  0.1261  0.0617
 6596TIP3    H141347   3.740   3.916   0.767 -1.2914  0.2915 -0.6891
 6596TIP3    H241348   3.836   4.021   0.716  0.5273 -0.5082  1.0303
 6597TIP3   OH241349   7.027   0.926   7.285  0.2743 -0.2704 -0.6917
 6597TIP3    H141350   6.972   0.974   7.348  1.3261 -0.9609  0.7925
 6597TIP3    H241351   7.117   0.949   7.309  0.7289 -1.5952 -1.0902
 6598TIP3   OH241352   6.193   7.001   0.301 -0.1164 -0.6684  0.6796
 6598TIP3    H141353   6.287   6.993   0.283 -0.4686 -1.3351 -0.9696
 6598TIP3    H241354   6.160   6.911   0.297 -1.2708 -0.1756 -1.4050
 6599TIP3   OH241355   3.961   6.366   0.733 -0.5153  0.3181 -0.7173
 6599TIP3    H141356   3.873   6.331   0.749 -1.3935  1.5895 -2.6753
 6599TIP3    H241357   4.003   6.301   0.677  0.0060 -0.5539  0.6567
 6600TIP3   OH241358   6.603   6.627   1.270 -0.2367 -0.2092 -0.0197
 6600TIP3    H141359   6.591   6.659   1.181 -0.6115  2.6106  0.9693
 6600TIP3    H241360   6.532   6.564   1.284 -1.2675  0.6960 -1.1227
 6601TIP3   OH241361   5.942   6.652   0.947  0.2659 -0.7462 -0.3071
 6601TIP3    H141362   5.978   6.566   0.924  0.7454 -0.1918 -1.6993
 6601TIP3    H241363   5.867   6.632   1.003 -0.6695 -2.1611 -1.9905
 6602TIP3   OH241364   5.424   5.167   7.585 -0.3706  0.1456  0.3559
 6602TIP3    H141365   5.352   5.191   7.526  0.1401  1.4608  0.2585
 6602TIP3    H241366   5.421   5.233   7.654  1.0851  0.5313  0.0669
 6603TIP3   OH241367   5.962   5.964   1.160 -0.2087  0.5712  0.1590
 6603TIP3    H141368   5.906   5.926   1.228  0.0060  0.4937  0.2944
 6603TIP3    H241369   5.997   5.889   1.113 -0.9691  0.6488 -0.5388
 6604TIP3   OH241370   3.354   7.067   8.453 -0.3496 -0.4900 -0.1185
 6604TIP3    H141371   3.428   7.072   8.514 -0.7063  0.1348  0.2573
 6604TIP3    H241372   3.309   6.986   8.478 -0.3071 -0.4064  0.2292
 6605TIP3   OH241373   2.686   6.553   7.601 -0.6044  0.1792  0.3514
 6605TIP3    H141374   2.738   6.535   7.523  1.0508 -0.8787  1.6607
 6605TIP3    H241375   2.596   6.554   7.570  0.0072 -0.4984 -1.5114
 6606TIP3   OH241376   6.305   0.521   0.000 -0.1059  0.7329 -0.0712
 6606TIP3    H141377   6.287   0.614  -0.015 -0.9581  0.6548  0.4225
 6606TIP3    H241378   6.396   0.519   0.028 -0.5901  1.6377  1.6949
 6607TIP3   OH241379   2.585   4.102   0.985 -0.0818 -0.2499  0.6162
 6607TIP3    H141380   2.614   4.174   0.928  1.1636 -0.6777  0.6851
 6607TIP3    H241381   2.491   4.093   0.967  0.2756 -0.3460 -1.3627
 6608TIP3   OH241382   0.613   4.102   1.762  0.3759  0.1719  0.1004
 6608TIP3    H141383   0.519   4.090   1.772  0.3087  0.9759  0.5538
 6608TIP3    H241384   0.649   4.014   1.751 -0.5535 -0.0469 -1.2662
 6609TIP3   OH241385   3.090   6.763   7.354 -0.2693 -0.2031 -0.3683
 6609TIP3    H141386   3.055   6.717   7.430 -0.7612  0.1737 -0.3618
 6609TIP3    H241387   3.146   6.832   7.391 -1.7472  0.9798 -0.2930
 6610TIP3   OH241388   4.811   6.980   2.043 -0.0843 -0.2850  0.4833
 6610TIP3    H141389   4.796   6.887   2.025  0.6457 -0.5269  1.1038
 6610TIP3    H241390   4.825   6.984   2.137  1.5204  0.2234  0.2298
 6611TIP3   OH241391   4.604   0.172   7.896  1.0468  0.6491 -0.3513
 6611TIP3    H141392   4.549   0.106   7.852  0.3975  1.1770 -0.3471
 6611TIP3    H241393   4.685   0.173   7.846  1.3579 -0.6933  0.0933
 6612TIP3   OH241394   5.978   6.562   0.489 -0.3208  0.5338 -0.5639
 6612TIP3    H141395   5.967   6.552   0.394 -2.1855  0.5760 -0.3732
 6612TIP3    H241396   5.895   6.530   0.526  0.4155  0.4464  1.0593
 6613TIP3   OH241397   3.465   1.353   7.997  0.3242  1.1879 -0.4259
 6613TIP3    H141398   3.407   1.293   8.042  0.4360  1.1185 -0.3744
 6613TIP3    H241399   3.546   1.303   7.983  0.6924  1.5770  0.3062
 6614TIP3   OH241400   3.883   6.162   1.159  0.2206 -0.5991  0.2257
 6614TIP3    H141401   3.855   6.220   1.231  0.6077 -1.0560  0.7522
 6614TIP3    H241402   3.979   6.169   1.160  0.2759 -1.3622  0.3891
 6615TIP3   OH241403   1.686   3.276   1.355 -0.1396  0.2092 -0.0102
 6615TIP3    H141404   1.694   3.371   1.354 -0.0591  0.1985 -0.9387
 6615TIP3    H241405   1.607   3.259   1.405 -0.6297  0.8023 -0.5784
 6616TIP3   OH241406   5.103   4.700   1.839 -0.7815  0.1734 -0.3503
 6616TIP3    H141407   5.169   4.737   1.898 -0.3207  1.7217 -1.8120
 6616TIP3    H241408   5.151   4.679   1.759 -1.5747 -1.1047 -0.5013
 6617TIP3   OH241409   0.407   5.226   1.500 -0.3977  0.5376  0.0970
 6617TIP3    H141410   0.492   5.191   1.526 -0.5561 -1.1714 -1.6138
 6617TIP3    H241411   0.380   5.281   1.574  1.4787 -0.1248  1.3002
 6618TIP3   OH241412   5.877   6.350   7.524 -0.0137 -0.5928 -0.2244
 6618TIP3    H141413   5.893   6.402   7.602 -2.1111 -1.6189  0.9277
 6618TIP3    H241414   5.794   6.383   7.489  0.1641 -1.1302 -1.1791
 6619TIP3   OH241415   5.950   5.420   0.223 -0.5502 -0.0370  0.0470
 6619TIP3    H141416   5.895   5.342   0.229  1.0788 -1.2999 -1.1961
 6619TIP3    H241417   5.974   5.426   0.131  1.0051  0.7534  0.4853
 6620TIP3   OH241418   1.788   6.609   0.646 -0.0903  0.5588 -0.5355
 6620TIP3    H141419   1.875   6.572   0.629 -0.5195 -0.2456 -0.9880
 6620TIP3    H241420   1.750   6.619   0.559 -0.7760  0.1459 -0.2772
 6621TIP3   OH241421   2.835   6.565   1.982  0.5369  0.6929 -0.6070
 6621TIP3    H141422   2.867   6.502   2.046 -0.8038 -0.0904 -0.6899
 6621TIP3    H241423   2.869   6.649   2.011 -0.0133  0.3373  1.0946
 6622TIP3   OH241424   3.756   7.202   8.098  0.3260 -0.2883 -0.2270
 6622TIP3    H141425   3.777   7.114   8.128  0.5936  0.1778  0.9641
 6622TIP3    H241426   3.840   7.242   8.077  0.1365 -0.6620 -1.8072
 6623TIP3   OH241427   4.485   0.160   8.371 -0.4610 -0.1152  0.1696
 6623TIP3    H141428   4.427   0.177   8.297 -1.5061 -1.9566  0.5486
 6623TIP3    H241429   4.450   0.081   8.412  1.0811 -0.0595  1.6544
 6624TIP3   OH241430   3.978   3.594   1.998 -0.3745 -1.1774 -0.0312
 6624TIP3    H141431   4.041   3.614   1.928  2.7656 -3.5247  2.0199
 6624TIP3    H241432   3.986   3.667   2.059  1.3889 -2.0917  0.8710
 6625TIP3   OH241433   7.185   1.045   7.795  0.1660 -0.3753 -0.2063
 6625TIP3    H141434   7.178   1.140   7.799 -0.6109 -0.4877  1.5047
 6625TIP3    H241435   7.270   1.026   7.836 -1.0272 -0.5824  2.2609
 6626TIP3   OH241436   5.761   6.432   0.604 -0.1259 -0.4973 -0.5047
 6626TIP3    H141437   5.817   6.372   0.654  1.7609  1.0577 -0.6659
 6626TIP3    H241438   5.674   6.392   0.606  0.4251 -1.6623  2.0171
 6627TIP3   OH241439   4.593   6.078   0.080  0.1903 -0.6085  0.0942
 6627TIP3    H141440   4.548   6.117   0.005 -0.7129 -0.8306  0.5079
 6627TIP3    H241441   4.679   6.055   0.047 -0.5041 -1.5130 -1.1304
 6628TIP3   OH241442   5.900   2.029   2.041 -0.4651  0.1048 -0.7674
 6628TIP3    H141443   5.880   1.938   2.063  1.5647 -0.3687 -0.7545
 6628TIP3    H241444   5.889   2.077   2.123  1.5197 -0.6868 -0.0038
 6629TIP3   OH241445   5.495   5.854   0.176  0.4472  0.3570  0.2310
 6629TIP3    H141446   5.545   5.781   0.142  1.3291  1.6331 -1.2429
 6629TIP3    H241447   5.534   5.932   0.137 -1.4320  1.5257  0.5675
 6630TIP3   OH241448   2.845   5.480   2.355 -0.3161  0.3767  0.4772
 6630TIP3    H141449   2.779   5.424   2.315 -1.2120  0.1717  2.1722
 6630TIP3    H241450   2.889   5.423   2.419  0.6113  0.8694  0.2908
 6631TIP3   OH241451   5.995   6.902   1.595 -0.3429  0.2965 -0.6834
 6631TIP3    H141452   6.003   6.926   1.503  1.7106  0.3071 -0.5303
 6631TIP3    H241453   6.074   6.850   1.613 -1.0296 -0.2172  0.8976
 6632TIP3   OH241454   5.564   1.103   0.415  0.8064 -0.7422  0.2564
 6632TIP3    H141455   5.581   1.138   0.502  1.5912 -0.9786  0.1958
 6632TIP3    H241456   5.469   1.109   0.405  0.8901  0.9504  0.4222
 6633TIP3   OH241457   3.139   5.096   1.120  0.1001 -0.0797  0.3399
 6633TIP3    H141458   3.191   5.162   1.165 -2.7967  1.8245  1.0638
 6633TIP3    H241459   3.106   5.039   1.189 -0.3813 -0.0599  0.1331
 6634TIP3   OH241460   4.068   5.825   1.340 -0.5033 -0.0924  0.5599
 6634TIP3    H141461   4.135   5.774   1.385 -0.4597 -1.1121 -0.6497
 6634TIP3    H241462   4.041   5.891   1.404  0.6663 -0.5417  1.5285
 6635TIP3   OH241463   2.981   4.789   2.042 -0.0940 -0.0047 -0.2903
 6635TIP3    H141464   2.936   4.758   2.120 -1.2606 -0.4590 -1.1145
 6635TIP3    H241465   3.019   4.711   2.003 -1.0245 -0.0644 -1.1094
 6636TIP3   OH241466   2.989   4.101   0.286 -0.3912  0.4989  0.6285
 6636TIP3    H141467   2.948   4.131   0.367 -1.2849  0.8604  0.0480
 6636TIP3    H241468   3.078   4.135   0.291 -0.3518  0.2771  1.5901
 6637TIP3   OH241469   2.591   1.420   7.433 -0.3065  0.4475 -1.0804
 6637TIP3    H141470   2.627   1.476   7.501 -0.9088 -0.9514  0.4203
 6637TIP3    H241471   2.656   1.350   7.422 -0.4913  0.3403 -1.5290
 6638TIP3   OH241472   0.558   3.778   6.976 -0.1069  0.1925 -0.3892
 6638TIP3    H141473   0.541   3.773   6.882 -3.0261  1.2907  0.0267
 6638TIP3    H241474   0.654   3.781   6.983  0.1258  2.6593 -3.4790
 6639TIP3   OH241475   4.662   0.418   1.260  0.0865 -0.3132  0.5831
 6639TIP3    H141476   4.677   0.327   1.235  1.0429 -0.3532  1.2652
 6639TIP3    H241477   4.609   0.413   1.340 -0.3335 -0.2566  0.3097
 6640TIP3   OH241478   1.761   5.143   1.656 -0.0845  0.3285 -0.0025
 6640TIP3    H141479   1.711   5.188   1.724 -0.4557 -1.0551  0.6592
 6640TIP3    H241480   1.791   5.062   1.698 -1.4518 -1.1943 -1.8689
 6641TIP3   OH241481   6.280   6.841   8.216  0.5795 -0.0532 -0.1246
 6641TIP3    H141482   6.280   6.935   8.235 -0.5634 -0.0507 -0.1365
 6641TIP3    H241483   6.373   6.820   8.204  0.9561  0.8203  1.1195
 6642TIP3   OH241484   6.225   0.105   7.451  0.1732 -0.0966 -0.1877
 6642TIP3    H141485   6.162   0.139   7.388 -1.3358 -0.2327  1.2221
 6642TIP3    H241486   6.304   0.155   7.435 -1.1536  2.0881 -0.0420
 6643TIP3   OH241487   3.145   5.516   1.517 -0.5766 -0.5238  0.2440
 6643TIP3    H141488   3.191   5.539   1.436  0.0815 -1.9087  0.1961
 6643TIP3    H241489   3.081   5.585   1.529  1.9328  1.8257  0.6548
 6644TIP3   OH241490   7.218   1.260   2.236  0.6165 -0.0976  0.0739
 6644TIP3    H141491   7.309   1.278   2.211  1.7365 -2.5455  2.2266
 6644TIP3    H241492   7.216   1.271   2.331 -1.3383 -0.0999  0.0564
 6645TIP3   OH241493   1.316   3.511   0.254  0.1259 -0.3934  0.5884
 6645TIP3    H141494   1.386   3.574   0.234 -1.5623  0.5463 -2.7070
 6645TIP3    H241495   1.235   3.559   0.236 -1.2763 -2.7477  0.4819
 6646TIP3   OH241496   1.584   5.793   1.999 -0.5392 -0.1159  0.2480
 6646TIP3    H141497   1.637   5.841   2.063 -0.5794  0.3383 -0.0582
 6646TIP3    H241498   1.571   5.855   1.927 -0.8490 -0.4828 -0.0141
 6647TIP3   OH241499   6.966   6.059   2.027  0.8698 -0.3889 -0.0366
 6647TIP3    H141500   6.948   6.131   2.088  0.6502 -1.1457  0.8033
 6647TIP3    H241501   6.958   6.098   1.940  2.3168  0.9838  0.4136
 6648TIP3   OH241502   4.447   5.833   1.220  0.0344  0.0195 -0.2340
 6648TIP3    H141503   4.355   5.859   1.225 -0.0048 -0.3793  1.8313
 6648TIP3    H241504   4.450   5.765   1.154 -0.8851  1.0908 -1.4073
 6649TIP3   OH241505   3.883   4.563   0.696  0.4632 -0.0626 -0.0940
 6649TIP3    H141506   3.952   4.509   0.734  0.5851  0.5451  0.5798
 6649TIP3    H241507   3.844   4.608   0.771  1.0993  1.6212 -0.7293
 6650TIP3   OH241508   0.709   5.959   1.429 -0.8234 -0.7574 -0.1334
 6650TIP3    H141509   0.622   5.991   1.453 -0.4795 -1.6563  2.4560
 6650TIP3    H241510   0.700   5.864   1.426  0.0254 -0.8415 -0.0947
 6651TIP3   OH241511   5.473   6.699   2.411  0.3424  0.3313  0.3177
 6651TIP3    H141512   5.414   6.624   2.416  0.7612  0.1068  2.4402
 6651TIP3    H241513   5.559   6.661   2.391  0.0794  0.5188 -1.2531
 6652TIP3   OH241514   2.714   0.163   0.964 -0.6942 -0.4800  0.2491
 6652TIP3    H141515   2.693   0.222   0.891  1.3777 -2.4151 -2.0253
 6652TIP3    H241516   2.800   0.192   0.994 -0.6549 -0.9419  0.5881
 6653TIP3   OH241517   3.382   0.667   7.221  0.2876  0.0494  0.3385
 6653TIP3    H141518   3.414   0.633   7.137  1.0864  1.0845  0.2238
 6653TIP3    H241519   3.442   0.737   7.244  0.4737 -0.6617  2.1269
 6654TIP3   OH241520   4.884   7.234   7.580  0.2870 -0.2235 -0.1733
 6654TIP3    H141521   4.863   7.147   7.547 -1.5927 -0.2706  1.0756
 6654TIP3    H241522   4.899   7.222   7.674 -0.3894  0.8491  0.0870
 6655TIP3   OH241523   0.669   5.696   1.419  0.2447 -0.5964 -0.6644
 6655TIP3    H141524   0.697   5.664   1.333  1.0347 -1.3179 -0.1415
 6655TIP3    H241525   0.588   5.649   1.437  0.1720 -0.5741 -0.9217
 6656TIP3   OH241526   3.025   6.047   8.435 -0.0993 -0.4795 -0.4990
 6656TIP3    H141527   3.037   6.121   8.375  0.7003  0.0772  0.3489
 6656TIP3    H241528   2.930   6.034   8.437 -0.2336  0.3674 -0.8418
 6657TIP3   OH241529   6.620   6.080   1.648  0.2442 -0.1169  0.5996
 6657TIP3    H141530   6.530   6.050   1.659  1.2343 -2.6260  2.2614
 6657TIP3    H241531   6.643   6.053   1.559  0.4630 -2.6109  1.3786
 6658TIP3   OH241532   7.097   5.348   1.339 -0.0963  0.3672  0.1665
 6658TIP3    H141533   7.005   5.372   1.350 -0.5236 -0.9342 -0.4309
 6658TIP3    H241534   7.116   5.292   1.414  0.0389  0.1330 -0.0460
 6659TIP3   OH241535   4.785   2.590   1.894  0.4600  0.1728 -0.2668
 6659TIP3    H141536   4.741   2.601   1.810  0.9287  0.7942 -0.4331
 6659TIP3    H241537   4.715   2.594   1.959 -0.0470 -1.4308 -0.6918
 6660TIP3   OH241538   2.380   4.864   0.425 -0.0105  0.3626  0.6227
 6660TIP3    H141539   2.364   4.958   0.434  0.8673  0.5044  0.7055
 6660TIP3    H241540   2.415   4.854   0.337 -0.6107  0.0353  0.4136
 6661TIP3   OH241541   6.700   0.107   0.746  0.2615 -0.7458 -0.0002
 6661TIP3    H141542   6.772   0.165   0.718 -1.0966  0.7874 -0.3701
 6661TIP3    H241543   6.622   0.147   0.709 -0.7465 -2.6784  0.0028
 6662TIP3   OH241544   5.636   0.128   8.169  0.5266  0.7075 -0.3694
 6662TIP3    H141545   5.632   0.206   8.114 -0.2945  0.6027 -0.4603
 6662TIP3    H241546   5.595   0.154   8.251  2.6481  1.1632  0.5653
 6663TIP3   OH241547   6.895   4.877   1.077 -0.2800  0.2279  0.6966
 6663TIP3    H141548   6.913   4.867   1.171 -0.3525  0.4702  0.7362
 6663TIP3    H241549   6.963   4.936   1.045  0.5382 -0.8936  0.3277
 6664TIP3   OH241550   5.740   5.807   7.874  0.4007  0.6201  0.0882
 6664TIP3    H141551   5.758   5.888   7.827 -1.3181  0.6615 -0.5555
 6664TIP3    H241552   5.658   5.775   7.835  0.5133 -0.8764  1.0464
 6665TIP3   OH241553   3.881   4.053   1.960 -0.0645 -0.1965  0.1531
 6665TIP3    H141554   3.951   4.088   1.905  1.3167 -0.7001  1.5549
 6665TIP3    H241555   3.925   3.990   2.017 -1.7737 -0.9706  0.6487
 6666TIP3   OH241556   6.319   4.925   0.522 -0.2265 -0.4087  0.3172
 6666TIP3    H141557   6.370   4.918   0.441 -1.3108 -2.3660 -0.2317
 6666TIP3    H241558   6.372   4.980   0.579  1.7033 -1.0331 -0.8312
 6667TIP3   OH241559   5.531   0.238   7.642 -0.1263 -0.3224  0.3879
 6667TIP3    H141560   5.546   0.304   7.709  0.5131 -1.1677  1.0855
 6667TIP3    H241561   5.572   0.274   7.563 -4.7291  2.7515 -0.8039
 6668TIP3   OH241562   1.705   3.557   1.418 -0.4208  0.0329  0.3543
 6668TIP3    H141563   1.723   3.640   1.374  0.3011 -0.6239 -0.6250
 6668TIP3    H241564   1.758   3.560   1.497 -0.0316  0.3149  0.0890
 6669TIP3   OH241565   0.414   0.327   1.130  0.1619  0.1033 -0.5897
 6669TIP3    H141566   0.434   0.412   1.169 -0.1202  0.4195 -1.1267
 6669TIP3    H241567   0.440   0.263   1.196 -1.2032  0.6607  0.5093
 6670TIP3   OH241568   5.129   7.032   0.559 -0.1626 -0.3708  0.6397
 6670TIP3    H141569   5.125   6.962   0.494  1.0490  0.2051 -0.0773
 6670TIP3    H241570   5.146   7.111   0.507  0.5884  0.1258  1.6310
 6671TIP3   OH241571   0.329   6.889   0.658 -0.2064  0.3608 -0.6233
 6671TIP3    H141572   0.400   6.890   0.723 -1.9404 -0.1174  1.3385
 6671TIP3    H241573   0.313   6.982   0.639  0.9909  0.4684 -1.1604
 6672TIP3   OH241574   6.031   6.544   2.173 -0.2783 -0.3884 -0.3405
 6672TIP3    H141575   6.033   6.571   2.082  1.6556 -0.2068 -0.2653
 6672TIP3    H241576   6.091   6.604   2.218 -1.4289 -0.2869  1.1059
 6673TIP3   OH241577   2.089   3.625   1.028  0.4802 -0.5844 -0.8446
 6673TIP3    H141578   2.001   3.662   1.029  1.0971  0.9667 -1.3951
 6673TIP3    H241579   2.096   3.583   0.942  0.8444  0.7743 -1.4969
 6674TIP3   OH241580   3.567   4.877   7.789  0.7641 -0.2940 -0.3847
 6674TIP3    H141581   3.617   4.944   7.743  0.3786 -0.3793 -0.9359
 6674TIP3    H241582   3.605   4.874   7.877  0.7433  0.6938 -0.3379
 6675TIP3   OH241583   2.702   2.132   0.883  0.1610  0.2017  0.3119
 6675TIP3    H141584   2.760   2.196   0.924 -2.0210  1.2165  1.9490
 6675TIP3    H241585   2.712   2.052   0.935  1.2073 -0.0930 -0.3407
 6676TIP3   OH241586   4.907   5.186   1.407 -0.3260  0.3366  0.1755
 6676TIP3    H141587   4.822   5.145   1.414 -0.0085 -0.2145  0.8412
 6676TIP3    H241588   4.919   5.202   1.313  0.2754 -2.6121 -0.2840
 6677TIP3   OH241589   4.377   0.312   7.962  0.7590  0.0016 -0.2136
 6677TIP3    H141590   4.469   0.291   7.948  0.6346 -0.6181 -0.1201
 6677TIP3    H241591   4.370   0.405   7.943  1.3355 -0.0273 -0.5640
 6678TIP3   OH241592   6.492   6.239   2.677 -0.1746  0.2481  0.0132
 6678TIP3    H141593   6.447   6.171   2.727 -4.7127  1.8886 -1.5541
 6678TIP3    H241594   6.488   6.208   2.586  0.2524  1.2483 -0.3537
 6679TIP3   OH241595   2.853   6.753   0.829 -0.2625  0.0207  0.1644
 6679TIP3    H141596   2.888   6.841   0.818 -1.3323  0.4398  0.0611
 6679TIP3    H241597   2.879   6.727   0.918  0.0005  0.4596  0.2143
 6680TIP3   OH241598   5.355   4.810   6.900  0.0127 -0.4551 -0.6962
 6680TIP3    H141599   5.273   4.841   6.938  1.4139  1.8100  0.5349
 6680TIP3    H241600   5.327   4.753   6.828 -2.6500  1.6987 -1.4553
 6681TIP3   OH241601   0.587   4.544   1.131  0.3428 -0.2836 -0.0699
 6681TIP3    H141602   0.675   4.514   1.157 -0.1094  0.6689  2.7176
 6681TIP3    H241603   0.599   4.636   1.111 -0.2954  0.2082  1.7747
 6682TIP3   OH241604   1.430   6.332   2.221 -0.2781  0.2310  0.2131
 6682TIP3    H141605   1.340   6.353   2.246 -0.2292  0.0326  0.5599
 6682TIP3    H241606   1.462   6.274   2.290 -0.4594 -1.1040 -0.8024
 6683TIP3   OH241607   6.326   4.393   1.291  0.2304  0.4349  0.1330
 6683TIP3    H141608   6.257   4.454   1.266  0.4333  0.4865 -0.3061
 6683TIP3    H241609   6.353   4.422   1.378  0.8282  1.4312 -0.3698
 6684TIP3   OH241610   7.254   0.111   6.687 -0.2943  0.0609 -0.3561
 6684TIP3    H141611   7.236   0.183   6.627  1.8724 -0.1480 -1.3047
 6684TIP3    H241612   7.334   0.137   6.732  0.3032 -1.5698 -0.4317
 6685TIP3   OH241613   0.115   6.796   1.639  0.5719 -0.2760 -0.5543
 6685TIP3    H141614   0.152   6.856   1.574  0.7562  0.6855  0.4310
 6685TIP3    H241615   0.158   6.820   1.721  0.3698 -1.5087 -0.0692
 6686TIP3   OH241616   0.317   0.873   1.298 -0.2679 -0.0493 -0.0128
 6686TIP3    H141617   0.375   0.940   1.262  1.4472 -0.8407  1.1941
 6686TIP3    H241618   0.248   0.863   1.233  1.8868 -0.3253 -2.3308
 6687TIP3   OH241619   7.074   3.132   7.301 -0.2221  0.5066 -0.0271
 6687TIP3    H141620   6.996   3.079   7.284 -0.5787  0.7574  0.7932
 6687TIP3    H241621   7.094   3.172   7.217 -0.7338  0.1157 -0.3435
 6688TIP3   OH241622   2.230   2.466   0.476  0.9305  0.2203 -0.0647
 6688TIP3    H141623   2.285   2.537   0.444 -0.1592  0.7579 -0.8024
 6688TIP3    H241624   2.213   2.412   0.399  1.3017 -0.5323  0.3783
 6689TIP3   OH241625   1.935   7.040   0.532  0.2727 -0.1982 -0.0280
 6689TIP3    H141626   1.897   7.000   0.453 -0.4721  1.3307 -0.4586
 6689TIP3    H241627   1.866   7.096   0.566  0.6536 -0.7372  1.6478
 6690TIP3   OH241628   3.763   0.822   7.388 -0.3434 -0.4236 -0.1825
 6690TIP3    H141629   3.693   0.762   7.360 -1.4817  0.5130  0.5751
 6690TIP3    H241630   3.762   0.891   7.322  0.4161 -0.8149 -0.6063
 6691TIP3   OH241631   4.478   0.503   1.476 -0.6531  0.4093  0.8026
 6691TIP3    H141632   4.487   0.592   1.441 -1.8072  0.9285  1.7749
 6691TIP3    H241633   4.404   0.509   1.536  0.3618 -0.8184  2.1976
 6692TIP3   OH241634   5.762   6.576   1.127  0.3166 -0.1408 -0.1564
 6692TIP3    H141635   5.715   6.500   1.162  1.2386  0.1056  1.6553
 6692TIP3    H241636   5.821   6.603   1.198 -1.3477  3.4270 -0.0083
 6693TIP3   OH241637   5.100   0.201   2.118 -0.2821 -0.1477  0.2399
 6693TIP3    H141638   5.018   0.224   2.074  0.2587  0.8478 -0.2860
 6693TIP3    H241639   5.073   0.159   2.199 -1.3160 -0.1398 -0.0899
 6694TIP3   OH241640   1.079   5.882   0.811  0.4445  0.1345 -0.4289
 6694TIP3    H141641   1.113   5.881   0.901  0.6324 -1.5947 -0.5056
 6694TIP3    H241642   0.983   5.881   0.822  0.4436  1.4666 -0.2459
 6695TIP3   OH241643   5.007   1.000   7.825  0.5880 -0.4132 -0.6958
 6695TIP3    H141644   4.948   0.957   7.887  1.2505 -0.6573 -0.2325
 6695TIP3    H241645   4.952   1.017   7.748 -0.1926 -0.2626 -0.1100
 6696TIP3   OH241646   7.228   6.003   2.249 -0.4857 -0.0202  0.0930
 6696TIP3    H141647   7.299   6.042   2.300 -0.6336  0.0797  0.2231
 6696TIP3    H241648   7.188   6.078   2.204  0.2215 -0.2237 -0.8819
 6697TIP3   OH241649   4.024   6.937   1.501  0.5201 -0.3853  0.4452
 6697TIP3    H141650   4.090   6.966   1.438 -0.0095  3.6384  1.5904
 6697TIP3    H241651   4.075   6.901   1.573  1.4578  1.2049  0.6145
 6698TIP3   OH241652   0.446   6.507   1.171 -0.2160 -0.5021 -0.4925
 6698TIP3    H141653   0.396   6.586   1.152 -0.2696 -0.7274 -1.2909
 6698TIP3    H241654   0.511   6.502   1.101  1.1247 -0.0521  0.6904
 6699TIP3   OH241655   7.246   0.432   2.093  0.1231  0.1333 -0.1359
 6699TIP3    H141656   7.293   0.384   2.161  0.5737 -0.3328 -0.7703
 6699TIP3    H241657   7.222   0.366   2.029  0.8537  0.7679 -1.0771
 6700TIP3   OH241658   3.637   5.828   8.143  0.3493 -0.3596  0.3251
 6700TIP3    H141659   3.607   5.768   8.075  0.8805 -0.5523  0.2564
 6700TIP3    H241660   3.658   5.771   8.218 -1.3041 -0.0478  1.0443
 6701TIP3   OH241661   0.735   0.373   1.629 -0.5237  0.2140  0.1989
 6701TIP3    H141662   0.788   0.435   1.579  0.6682 -0.9769 -0.0470
 6701TIP3    H241663   0.775   0.372   1.716 -0.7131  0.0207  0.2856
 6702TIP3   OH241664   2.291   1.906   1.662 -0.6044  0.4647 -0.1688
 6702TIP3    H141665   2.281   1.997   1.690 -0.1967  0.2010  0.8804
 6702TIP3    H241666   2.351   1.869   1.727  0.3548 -0.1745 -1.4242
 6703TIP3   OH241667   6.184   0.433   7.822 -0.5147  0.4106  0.2011
 6703TIP3    H141668   6.201   0.342   7.799 -1.8492 -0.0068  0.8296
 6703TIP3    H241669   6.229   0.484   7.754  2.9305 -0.6344  1.5896
 6704TIP3   OH241670   1.509   6.373   0.867  0.9824  0.2562  0.7935
 6704TIP3    H141671   1.464   6.299   0.825 -1.2404  1.9550  0.0616
 6704TIP3    H241672   1.526   6.342   0.956 -2.6296 -0.1710  1.4485
 6705TIP3   OH241673   0.241   4.195   7.671 -0.0330  0.0140 -0.8081
 6705TIP3    H141674   0.293   4.188   7.751 -1.0049  0.7441 -0.0983
 6705TIP3    H241675   0.257   4.284   7.639 -0.3303  0.0172 -0.9503
 6706TIP3   OH241676   4.873   5.913   7.539 -0.3931  0.3320 -0.1829
 6706TIP3    H141677   4.917   5.885   7.620  0.4265 -1.3844 -1.1951
 6706TIP3    H241678   4.926   5.987   7.508  1.0121 -0.8360 -0.6487
 6707TIP3   OH241679   7.186   7.193   0.476  0.3708 -0.3125  0.3885
 6707TIP3    H141680   7.184   7.221   0.385 -0.6618 -0.8500  0.2348
 6707TIP3    H241681   7.113   7.239   0.517 -0.2186 -1.3720  0.5480
 6708TIP3   OH241682   1.898   5.235   1.011  0.1380 -0.9260  0.3822
 6708TIP3    H141683   1.986   5.203   0.995  1.3702  2.0414  0.8450
 6708TIP3    H241684   1.892   5.240   1.107 -0.1159 -0.0253  0.3199
 6709TIP3   OH241685   5.824   2.217   6.713 -0.6243  0.3782 -0.2811
 6709TIP3    H141686   5.744   2.264   6.736 -1.3237 -0.5916 -0.6665
 6709TIP3    H241687   5.796   2.155   6.645  0.2209 -0.7376  0.3650
 6710TIP3   OH241688   1.975   3.926   7.168 -0.0100  0.5467  0.6582
 6710TIP3    H141689   1.892   3.896   7.205 -0.0673 -0.1069  0.0051
 6710TIP3    H241690   1.974   4.020   7.181 -1.4344  0.7044 -0.5052
 6711TIP3   OH241691   1.814   6.015   1.038  0.2389 -0.0631 -0.6078
 6711TIP3    H141692   1.801   6.099   0.993  0.8193 -0.2880 -1.2116
 6711TIP3    H241693   1.783   5.949   0.976 -1.6273 -0.2184  0.4674
 6712TIP3   OH241694   2.571   6.832   7.457 -1.1610  0.4130 -0.1486
 6712TIP3    H141695   2.615   6.795   7.380 -3.5941 -0.3681 -1.2200
 6712TIP3    H241696   2.636   6.892   7.495  1.3933 -1.8949 -0.7173
 6713TIP3   OH241697   6.815   6.618   1.423 -0.9507  0.0101 -0.9102
 6713TIP3    H141698   6.729   6.637   1.385 -0.9762  1.4851 -0.1593
 6713TIP3    H241699   6.824   6.523   1.415 -2.5328 -0.1303 -1.2462
 6714TIP3   OH241700   6.010   5.318   6.897 -0.7563  0.0039  0.6256
 6714TIP3    H141701   5.969   5.360   6.822 -1.6886 -0.6972  0.7437
 6714TIP3    H241702   6.087   5.273   6.861 -1.0545 -0.1081  0.1307
 6715TIP3   OH241703   0.564   5.105   0.552 -0.2265 -0.2517  0.1325
 6715TIP3    H141704   0.517   5.187   0.537 -0.4090 -0.6187 -1.3474
 6715TIP3    H241705   0.657   5.129   0.548 -0.2576  0.3117  2.1803
 6716TIP3   OH241706   0.962   5.708   0.092  0.1643  0.3050 -0.6330
 6716TIP3    H141707   0.871   5.693   0.067 -0.8110  1.4381  1.9879
 6716TIP3    H241708   1.000   5.621   0.098 -1.1109 -0.2523 -0.5356
 6717TIP3   OH241709   4.436   6.122   0.509  0.3475  0.5548 -0.0430
 6717TIP3    H141710   4.394   6.089   0.588  0.4097 -1.5597 -0.8577
 6717TIP3    H241711   4.364   6.151   0.454  0.1130 -0.6001 -0.3534
 6718TIP3   OH241712   6.740   6.206   2.283 -0.2400 -0.0123  0.6142
 6718TIP3    H141713   6.827   6.227   2.319 -0.5558 -1.3492  2.2051
 6718TIP3    H241714   6.705   6.140   2.342 -1.8223 -0.4442 -0.7749
 6719TIP3   OH241715   4.889   0.258   1.396 -0.0465  0.6895 -0.0971
 6719TIP3    H141716   4.928   0.293   1.476  0.0084  0.5683 -0.0718
 6719TIP3    H241717   4.959   0.262   1.331  0.5314 -1.1698  0.4001
 6720TIP3   OH241718   0.548   6.914   2.274 -0.8401  0.2404 -0.2788
 6720TIP3    H141719   0.496   6.958   2.341 -1.1690 -1.2135  0.4328
 6720TIP3    H241720   0.581   6.836   2.317 -1.9065 -1.2521 -2.0958
 6721TIP3   OH241721   0.963   0.622   2.080  0.1799  0.3135 -0.5127
 6721TIP3    H141722   1.054   0.594   2.093  0.1862  0.9601  0.9065
 6721TIP3    H241723   0.911   0.558   2.128 -0.1326 -0.1338 -1.4404
 6722TIP3   OH241724   0.058   6.114   2.476  0.4085  0.3359 -0.4595
 6722TIP3    H141725   0.124   6.045   2.489  0.7092  0.6889 -0.1158
 6722TIP3    H241726   0.108   6.194   2.463  0.1151  0.1598 -2.9998
 6723TIP3   OH241727   5.878   6.189   7.289  0.0917  0.1613 -0.1686
 6723TIP3    H141728   5.894   6.238   7.370  1.6354  2.1436 -1.6472
 6723TIP3    H241729   5.789   6.212   7.264 -0.4424 -0.5623  1.0178
 6724TIP3   OH241730   0.892   6.601   1.759 -0.5688  0.1397 -0.3066
 6724TIP3    H141731   0.854   6.581   1.845  0.6516 -0.5452  0.0851
 6724TIP3    H241732   0.867   6.692   1.742 -0.9580  0.2273  0.6955
 6725TIP3   OH241733   3.379   4.867   1.572  0.0007  0.2051 -0.5551
 6725TIP3    H141734   3.458   4.899   1.616 -0.0011 -1.5730  0.8082
 6725TIP3    H241735   3.408   4.789   1.524 -0.6739  0.2512 -1.0474
 6726TIP3   OH241736   0.487   5.347   8.132 -0.1692 -0.4693  0.0948
 6726TIP3    H141737   0.394   5.331   8.145 -0.1113  0.9891  2.7159
 6726TIP3    H241738   0.529   5.263   8.154 -0.6985 -0.4119  1.3403
 6727TIP3   OH241739   4.369   5.936   0.140 -0.0376  0.0145 -0.2041
 6727TIP3    H141740   4.436   5.995   0.106  0.6718 -0.8340 -0.2970
 6727TIP3    H241741   4.286   5.978   0.116  0.4564  1.1825  0.1119
 6728TIP3   OH241742   4.527   7.021   6.536 -0.3737 -0.5626 -0.0779
 6728TIP3    H141743   4.449   6.996   6.487 -0.5463 -0.5908  0.2059
 6728TIP3    H241744   4.508   7.110   6.567  0.6082  0.3002 -1.8602
 6729TIP3   OH241745   6.834   6.355   1.382 -0.3917 -0.1983  0.2182
 6729TIP3    H141746   6.765   6.312   1.432 -0.5302  0.5492  0.6784
 6729TIP3    H241747   6.911   6.300   1.395 -0.9925 -1.2647 -0.6393
 6730TIP3   OH241748   1.411   4.772   1.135  0.1737 -0.3034 -0.1905
 6730TIP3    H141749   1.468   4.838   1.095 -0.9293 -0.1775 -1.5966
 6730TIP3    H241750   1.355   4.822   1.194 -0.2194 -0.0471 -0.7652
 6731TIP3   OH241751   2.684   6.335   8.357  0.5632  0.0483  0.5919
 6731TIP3    H141752   2.733   6.289   8.426 -0.0369  1.9919  2.3622
 6731TIP3    H241753   2.751   6.364   8.295  1.2139 -0.8954  0.8446
 6732TIP3   OH241754   6.837   5.087   2.536  0.4371 -0.5708 -0.3138
 6732TIP3    H141755   6.828   5.171   2.490 -2.8408 -0.2033  0.8448
 6732TIP3    H241756   6.788   5.025   2.481 -2.0840 -0.4711  1.7525
 6733TIP3   OH241757   0.368   6.336   7.898  0.2800  0.0186 -0.6254
 6733TIP3    H141758   0.290   6.389   7.911  0.3414  0.3035 -1.3971
 6733TIP3    H241759   0.370   6.277   7.974 -0.2766  0.5026 -0.2302
 6734TIP3   OH241760   6.231   6.249   2.259 -0.3470  0.1665 -0.3370
 6734TIP3    H141761   6.314   6.213   2.292 -0.2013 -1.8427 -2.7831
 6734TIP3    H241762   6.166   6.221   2.323  0.4693 -0.4668  0.2300
 6735TIP3   OH241763   7.302   5.503   7.309  0.7508 -0.4021  0.1949
 6735TIP3    H141764   7.244   5.562   7.357 -0.7588 -0.6826 -1.2320
 6735TIP3    H241765   7.386   5.509   7.355  0.0002  1.1280  1.4187
 6736TIP3   OH241766   0.185   4.570   0.073 -0.4020 -0.0493 -0.3584
 6736TIP3    H141767   0.250   4.572   0.003  1.0069 -0.7359  0.9028
 6736TIP3    H241768   0.236   4.580   0.153 -1.8938 -0.3254  0.6457
 6737TIP3   OH241769   4.866   5.935   0.235 -0.4568  0.5060  0.1302
 6737TIP3    H141770   4.780   5.921   0.276 -0.1046 -1.5606  0.2521
 6737TIP3    H241771   4.894   5.847   0.209  2.5302  0.8509  1.9508
 6738TIP3   OH241772   5.879   6.840   8.194 -0.4183  0.2802 -0.7274
 6738TIP3    H141773   5.931   6.842   8.274 -2.6074  1.8068  0.6804
 6738TIP3    H241774   5.938   6.876   8.127  0.1568  2.5763  0.9708
 6739TIP3   OH241775   0.642   4.895   7.564 -0.1802  0.1516  0.0503
 6739TIP3    H141776   0.586   4.871   7.637  1.1761 -1.3009  0.6354
 6739TIP3    H241777   0.720   4.842   7.575  0.2428  0.2588 -2.1941
 6740TIP3   OH241778   3.500   6.427   7.020 -0.1368 -0.1071 -0.1513
 6740TIP3    H141779   3.541   6.499   6.972 -1.2698  0.7000  0.0998
 6740TIP3    H241780   3.523   6.443   7.111  0.7724 -0.8389 -0.2364
 6741TIP3   OH241781   1.396   0.442   1.501  0.0009 -0.1214  0.0100
 6741TIP3    H141782   1.356   0.387   1.434  0.5532 -1.1465  0.5070
 6741TIP3    H241783   1.330   0.508   1.521 -0.6554 -0.5811 -0.6263
 6742TIP3   OH241784   1.798   5.766   0.566 -0.5185  0.3441  0.7624
 6742TIP3    H141785   1.704   5.780   0.570 -0.5906 -0.1663  0.8596
 6742TIP3    H241786   1.818   5.714   0.645  0.0080  1.4142  1.3404
 6743TIP3   OH241787   0.639   1.200   1.144 -0.1445 -0.2185  0.4017
 6743TIP3    H141788   0.668   1.225   1.056  0.3872 -1.2665  0.2773
 6743TIP3    H241789   0.700   1.132   1.172  1.8429  2.5331  3.0305
 6744TIP3   OH241790   6.743   6.220   1.144  0.3716 -0.1301  0.2476
 6744TIP3    H141791   6.675   6.257   1.201 -1.2384 -1.2342 -0.9241
 6744TIP3    H241792   6.768   6.138   1.187  0.3728 -0.1364  0.2353
 6745TIP3   OH241793   0.808   0.088   1.225  0.1882 -0.0405 -0.4490
 6745TIP3    H141794   0.788   0.058   1.314 -1.0496  0.7712 -0.4412
 6745TIP3    H241795   0.724   0.089   1.180  0.9517 -1.5150 -1.9907
 6746TIP3   OH241796   1.387   3.720   2.364  0.4768  0.0154  0.1297
 6746TIP3    H141797   1.427   3.643   2.403  1.2722  1.3240  1.9619
 6746TIP3    H241798   1.298   3.721   2.398  0.6205  0.1635  0.5084
 6747TIP3   OH241799   0.973   4.213   6.573 -0.2363 -0.0637 -0.1020
 6747TIP3    H141800   0.915   4.153   6.527 -1.0810  0.8569 -0.2577
 6747TIP3    H241801   0.948   4.300   6.542  0.4112  0.4383  0.7284
 6748TIP3   OH241802   0.030   1.175   6.599  0.5905 -0.0648 -0.3164
 6748TIP3    H141803   0.093   1.190   6.670 -0.5498  0.1533  0.6585
 6748TIP3    H241804   0.037   1.081   6.581  0.3302 -0.2715  0.6237
 6749TIP3   OH241805   0.181   6.543   7.966  0.2583  0.0447 -0.2916
 6749TIP3    H141806   0.210   6.559   8.056 -1.4514 -0.2179  0.3295
 6749TIP3    H241807   0.127   6.464   7.972  1.3763 -0.8713 -1.8269
 6750TIP3   OH241808   2.129   1.641   6.856  0.6794 -0.0130 -0.2605
 6750TIP3    H141809   2.193   1.711   6.845 -0.1259  0.9168  0.8922
 6750TIP3    H241810   2.083   1.662   6.937  0.8813 -2.2448  0.4898
 6751TIP3   OH241811   2.242   3.804   0.889 -0.0417  0.0203 -0.1074
 6751TIP3    H141812   2.200   3.759   0.962  1.2412 -0.8996  0.0864
 6751TIP3    H241813   2.331   3.768   0.886  0.9109  2.2857 -0.1727
 6752TIP3   OH241814   0.610   2.890   8.359 -0.0661 -0.0008  0.3116
 6752TIP3    H141815   0.518   2.867   8.342  0.1020 -0.8439  0.5143
 6752TIP3    H241816   0.646   2.904   8.272 -0.0015 -1.2272  0.1214
 6753TIP3   OH241817   5.439   0.563   6.874  0.1243 -0.4157 -0.7598
 6753TIP3    H141818   5.532   0.560   6.851 -0.1249 -0.5699 -1.7886
 6753TIP3    H241819   5.423   0.655   6.897  0.6956 -0.5379  0.1688
 6754TIP3   OH241820   4.448   0.957   7.351  0.3912 -0.0844  0.5959
 6754TIP3    H141821   4.535   0.924   7.330  0.2285 -1.2306  1.6418
 6754TIP3    H241822   4.458   0.993   7.440  0.2856  1.6666 -0.0777
 6755TIP3   OH241823   5.310   7.127   1.293  0.0937 -0.3694  0.5286
 6755TIP3    H141824   5.291   7.164   1.207  0.8368  0.5812  0.7753
 6755TIP3    H241825   5.371   7.055   1.275 -0.3102 -0.6294  0.1889
 6756TIP3   OH241826   4.220   7.245   1.663  0.5376 -0.8941  0.3644
 6756TIP3    H141827   4.179   7.238   1.750 -1.1596 -0.0629 -0.3380
 6756TIP3    H241828   4.221   7.340   1.646 -0.9329 -1.1537 -1.3323
 6757TIP3   OH241829   0.831   6.552   7.266  0.4380 -0.1307  0.1967
 6757TIP3    H141830   0.899   6.594   7.214  0.4165 -0.3068  0.0227
 6757TIP3    H241831   0.779   6.624   7.302  1.2602  0.0309  1.0690
 6758TIP3   OH241832   5.406   3.048   1.555  0.3208  0.9398 -0.0799
 6758TIP3    H141833   5.325   3.077   1.597 -0.3450 -2.0587  0.8646
 6758TIP3    H241834   5.476   3.089   1.606 -0.5778  0.7061  1.3672
 6759TIP3   OH241835   6.052   0.144   1.084  0.3043 -0.3735 -0.0058
 6759TIP3    H141836   5.982   0.185   1.134  0.1978  0.6560 -0.9909
 6759TIP3    H241837   6.055   0.193   1.002 -0.9160 -3.3173 -1.8956
 6760TIP3   OH241838   4.610   5.998   0.357 -0.3112 -0.4400 -0.5614
 6760TIP3    H141839   4.574   6.006   0.268 -2.5298 -3.3206  0.0005
 6760TIP3    H241840   4.550   6.050   0.411  0.7047  0.8363 -0.6498
 6761TIP3   OH241841   0.796   2.469   1.253  0.2347  0.4850  0.2441
 6761TIP3    H141842   0.870   2.434   1.304  0.2226 -0.3119 -0.2639
 6761TIP3    H241843   0.776   2.553   1.294  0.1276 -0.1986  1.6491
 6762TIP3   OH241844   6.417   0.394   2.176 -0.0876 -0.0066 -0.5778
 6762TIP3    H141845   6.348   0.396   2.109  0.1883  2.4200 -0.8267
 6762TIP3    H241846   6.380   0.341   2.246 -1.7278  0.2185 -1.2491
 6763TIP3   OH241847   5.569   0.305   8.390  0.4699 -0.2473 -0.4769
 6763TIP3    H141848   5.575   0.231   8.450  1.8169  0.1579 -0.0891
 6763TIP3    H241849   5.526   0.374   8.440 -0.2459 -0.5717 -0.6428
 6764TIP3   OH241850   6.549   5.551   7.163  0.5875 -0.2634 -0.0563
 6764TIP3    H141851   6.586   5.463   7.155  3.5536  0.6996  2.3051
 6764TIP3    H241852   6.484   5.543   7.233  2.5213 -0.1087  1.7962
 6765TIP3   OH241853   5.393   0.787   1.533  0.0529  0.1052  0.2852
 6765TIP3    H141854   5.382   0.830   1.448  2.1040 -0.4984 -0.3160
 6765TIP3    H241855   5.441   0.851   1.586 -2.0765  0.8829  1.3610
 6766TIP3   OH241856   0.984   4.884   7.917  0.2474 -0.2564  0.3858
 6766TIP3    H141857   1.061   4.931   7.884  0.5236 -0.7519  0.3033
 6766TIP3    H241858   1.007   4.791   7.906 -0.4895 -0.4059  0.0706
 6767TIP3   OH241859   3.610   6.507   8.004  0.1798 -0.5982  0.2289
 6767TIP3    H141860   3.700   6.537   7.994 -0.3995  1.1353 -0.0551
 6767TIP3    H241861   3.584   6.478   7.916  0.0846  0.0261  0.0481
 6768TIP3   OH241862   4.527   0.521   6.310  0.1415  0.0446  0.0779
 6768TIP3    H141863   4.586   0.596   6.321 -0.9539  0.8001  0.9707
 6768TIP3    H241864   4.458   0.554   6.252 -0.9622  0.1214  1.3922
 6769TIP3   OH241865   5.294   6.867   0.975  0.7495 -0.1757 -0.6222
 6769TIP3    H141866   5.289   6.885   0.881  1.0001  0.7524 -0.4637
 6769TIP3    H241867   5.263   6.777   0.984  0.1363 -0.0570 -1.5219
 6770TIP3   OH241868   4.326   0.892   0.367  0.7472 -0.0805 -0.0494
 6770TIP3    H141869   4.236   0.888   0.334  0.7465 -0.3305 -0.0131
 6770TIP3    H241870   4.324   0.843   0.449  0.6327  0.9588  0.5830
 6771TIP3   OH241871   1.176   1.287   1.129  0.2920  0.8775 -0.0315
 6771TIP3    H141872   1.150   1.299   1.220 -0.1899  2.1527 -0.3265
 6771TIP3    H241873   1.114   1.221   1.095  0.0185  0.9304  0.3613
 6772TIP3   OH241874   5.289   0.864   0.982  0.2160 -0.3277 -0.6169
 6772TIP3    H141875   5.226   0.911   1.036  0.5060  0.0559 -0.6110
 6772TIP3    H241876   5.241   0.787   0.950  0.4483 -1.2987  1.2887
 6773TIP3   OH241877   2.782   1.945   6.696  0.3549  0.0457 -0.0613
 6773TIP3    H141878   2.688   1.961   6.709  0.6767  2.0118  0.0594
 6773TIP3    H241879   2.794   1.853   6.718 -1.5203 -0.1884  0.0967
 6774TIP3   OH241880   7.037   0.177   8.000  0.1867 -0.2396  0.2225
 6774TIP3    H141881   6.945   0.185   8.025 -0.5047 -1.2542 -1.9248
 6774TIP3    H241882   7.048   0.236   7.926  0.9362 -1.0700 -0.3458
 6775TIP3   OH241883   0.781   1.315   0.930 -0.5437  0.5907 -0.6468
 6775TIP3    H141884   0.787   1.399   0.975 -1.7905 -0.3641  1.3514
 6775TIP3    H241885   0.723   1.331   0.856 -1.7182  1.2153  0.4027
 6776TIP3   OH241886   0.962   6.777   1.161 -0.4341  0.0187 -0.1032
 6776TIP3    H141887   0.972   6.708   1.226 -0.4211 -0.6959 -0.8690
 6776TIP3    H241888   1.032   6.762   1.098  0.7523  1.8439  0.7107
 6777TIP3   OH241889   5.816   0.219   6.517  0.2833 -0.2143  0.1332
 6777TIP3    H141890   5.761   0.205   6.440 -0.5635 -1.1882  0.9086
 6777TIP3    H241891   5.901   0.182   6.494 -0.1796 -1.1500 -0.0669
 6778TIP3   OH241892   0.440   6.501   1.651 -0.3787 -0.2437  0.5679
 6778TIP3    H141893   0.433   6.406   1.662 -2.0456  0.1077  2.8338
 6778TIP3    H241894   0.351   6.530   1.633 -0.0259  0.9893  0.7273
 6779TIP3   OH241895   0.950   6.310   0.726 -0.0183 -0.1086 -0.2322
 6779TIP3    H141896   1.005   6.246   0.770  0.3753  1.3269  1.4327
 6779TIP3    H241897   0.965   6.392   0.774 -4.2889  0.1454  0.9309
 6780TIP3   OH241898   6.971   5.968   0.561  0.0891  0.2956  0.2215
 6780TIP3    H141899   6.930   5.912   0.627 -0.7520  1.6483  0.8701
 6780TIP3    H241900   6.989   5.910   0.487 -0.8576 -0.7985  0.8389
 6781TIP3   OH241901   2.036   0.031   6.947 -0.5890  0.8914  0.5967
 6781TIP3    H141902   2.073   0.110   6.986  1.0704  1.0673 -1.2273
 6781TIP3    H241903   2.029   0.052   6.853  0.9165 -1.4601 -0.0951
 6782TIP3   OH241904   4.701   4.917   2.373  0.5606 -0.1945  0.1358
 6782TIP3    H141905   4.695   4.827   2.341  0.6898 -0.6326  1.3522
 6782TIP3    H241906   4.774   4.916   2.435 -0.3277  0.4402  1.2037
 6783TIP3   OH241907   4.702   5.812   2.524  0.0845 -0.2634 -0.6736
 6783TIP3    H141908   4.706   5.855   2.438 -0.0663 -0.7887 -0.9510
 6783TIP3    H241909   4.786   5.831   2.564 -0.1670  0.6994 -0.5881
 6784TIP3   OH241910   5.845   0.113   0.061  0.1917 -0.0885  0.0677
 6784TIP3    H141911   5.779   0.182   0.060  0.6661  0.3913  1.0239
 6784TIP3    H241912   5.812   0.050   0.125  1.0009  0.5026  1.0810
 6785TIP3   OH241913   5.915   1.098   6.306  0.0076  0.2703  0.2335
 6785TIP3    H141914   5.920   1.003   6.311  0.7026  0.2652 -0.3656
 6785TIP3    H241915   5.888   1.126   6.393  1.6564 -0.3664  0.9727
 6786TIP3   OH241916   5.307   7.037   7.838  0.3193  0.3419 -0.1154
 6786TIP3    H141917   5.239   7.046   7.772  0.7056 -0.9999 -0.7140
 6786TIP3    H241918   5.301   7.117   7.890 -1.2910  0.5185 -0.5454
 6787TIP3   OH241919   4.981   0.557   6.762 -0.0386  0.1616  0.0649
 6787TIP3    H141920   4.974   0.647   6.794  0.1367 -0.4426  1.8383
 6787TIP3    H241921   4.990   0.504   6.841 -1.3760 -1.5436 -0.8947
 6788TIP3   OH241922   0.174   6.443   0.572 -0.0928 -0.1562  0.1682
 6788TIP3    H141923   0.209   6.438   0.661  1.6463  0.7754 -0.4273
 6788TIP3    H241924   0.203   6.529   0.540 -2.7510  0.5622 -0.4637
 6789TIP3   OH241925   6.235   6.558   1.573  0.6043  0.0373 -0.6848
 6789TIP3    H141926   6.296   6.567   1.646  0.7921 -1.1712 -0.6680
 6789TIP3    H241927   6.156   6.605   1.601  1.2357  0.9196 -0.3712
 6790TIP3   OH241928   5.816   6.983   1.783  0.5754 -0.4020  0.6068
 6790TIP3    H141929   5.861   6.936   1.713  1.3446  0.2163  0.6825
 6790TIP3    H241930   5.764   7.049   1.737  0.2499 -0.6941  0.5559
 6791TIP3   OH241931   6.937   0.638   7.377 -0.1482  0.0868  0.1645
 6791TIP3    H141932   7.009   0.582   7.407 -0.5426 -0.4753  0.0739
 6791TIP3    H241933   6.980   0.711   7.332  0.4912  1.1266  2.3620
 6792TIP3   OH241934   6.684   1.803   1.216  0.1315  0.1512  0.0089
 6792TIP3    H141935   6.764   1.785   1.266 -0.3779 -1.8540  0.1349
 6792TIP3    H241936   6.625   1.843   1.280  0.8457  1.2033  0.0302
 6793TIP3   OH241937   6.792   5.972   7.204  0.1051 -0.5375  0.8248
 6793TIP3    H141938   6.862   5.976   7.138  0.7339 -0.3548  1.4992
 6793TIP3    H241939   6.777   5.879   7.216  1.8797 -0.6537  2.3938
 6794TIP3   OH241940   6.485   1.338   1.467  1.1214  0.0621  0.2988
 6794TIP3    H141941   6.472   1.247   1.494 -0.5745  0.7383  1.7994
 6794TIP3    H241942   6.497   1.386   1.548  2.0518  1.2061 -0.4889
 6795TIP3   OH241943   0.356   4.118   0.463  0.5838  0.1003 -0.1883
 6795TIP3    H141944   0.275   4.136   0.511  0.0083 -1.3007 -0.5946
 6795TIP3    H241945   0.426   4.138   0.525 -0.0966  0.8158  0.3476
 6796TIP3   OH241946   6.405   5.449   7.357 -0.4041  0.2904  0.5409
 6796TIP3    H141947   6.382   5.357   7.363 -2.6271  0.6107 -1.7589
 6796TIP3    H241948   6.351   5.492   7.424  0.7373 -0.0679  1.7079
 6797TIP3   OH241949   3.300   4.512   2.081  1.1510 -0.2439 -0.4884
 6797TIP3    H141950   3.290   4.545   2.171 -0.0350  1.5982 -1.2665
 6797TIP3    H241951   3.246   4.433   2.079 -1.8769  1.7407 -0.5789
 6798TIP3   OH241952   6.374   6.396   0.115 -0.0595  0.0403  0.2252
 6798TIP3    H141953   6.361   6.469   0.175 -0.5796 -0.9078  1.2808
 6798TIP3    H241954   6.404   6.437   0.033 -0.8965  1.4648  0.6203
 6799TIP3   OH241955   7.011   5.393   1.055  0.6404  0.7221  0.2896
 6799TIP3    H141956   7.068   5.370   1.128 -0.4823  2.2033  1.6918
 6799TIP3    H241957   6.965   5.472   1.085 -1.3848  0.1456 -1.1980
 6800TIP3   OH241958   7.047   0.678   8.140 -0.2714  0.7155 -0.5098
 6800TIP3    H141959   7.123   0.622   8.159 -0.1553  0.9990 -0.1354
 6800TIP3    H241960   7.086   0.756   8.100 -0.3024  1.1498  0.2906
 6801TIP3   OH241961   1.759   5.577   8.240  0.1674  0.6372 -0.0527
 6801TIP3    H141962   1.733   5.553   8.151  2.6024 -0.6455 -0.4543
 6801TIP3    H241963   1.786   5.669   8.232 -0.4907  0.8026 -0.4399
 6802TIP3   OH241964   5.351   7.051   7.368 -0.0765 -0.8451  0.5134
 6802TIP3    H141965   5.436   7.085   7.394 -0.6240 -0.9198  2.5205
 6802TIP3    H241966   5.370   6.989   7.297  1.4376 -0.2470  0.3851
 6803TIP3   OH241967   4.850   4.598   1.276  0.0501  0.1236 -0.2113
 6803TIP3    H141968   4.766   4.552   1.264  0.1515 -0.1939  0.2780
 6803TIP3    H241969   4.915   4.528   1.279  0.4774  0.4347 -1.7482
 6804TIP3   OH241970   6.841   5.371   2.488  0.4252  0.5937  0.2690
 6804TIP3    H141971   6.779   5.392   2.418  0.0354  0.8241  0.6781
 6804TIP3    H241972   6.819   5.433   2.558  0.1300 -0.3342  0.9946
 6805TIP3   OH241973   6.467   4.409   7.069  0.2784  0.0598  0.1959
 6805TIP3    H141974   6.499   4.474   7.007 -0.5167 -1.3721 -1.7508
 6805TIP3    H241975   6.520   4.331   7.051  0.6126 -0.1402  1.8970
 6806TIP3   OH241976   1.176   6.772   0.260 -0.1984  0.3353 -0.0906
 6806TIP3    H141977   1.199   6.683   0.232  1.2231  1.5747 -3.0019
 6806TIP3    H241978   1.099   6.794   0.207 -0.5507  0.8356  0.6272
 6807TIP3   OH241979   5.286   0.900   7.829 -0.4971 -0.2956  0.4164
 6807TIP3    H141980   5.369   0.924   7.790 -0.0759 -1.8252  0.3692
 6807TIP3    H241981   5.229   0.976   7.813  1.0262  0.9845  0.9361
 6808TIP3   OH241982   4.871   6.965   2.311  0.1676  0.2298  0.2612
 6808TIP3    H141983   4.814   6.906   2.360 -0.3512  1.0312  0.6442
 6808TIP3    H241984   4.856   7.051   2.350  2.6237  0.2584  1.2693
 6809TIP3   OH241985   4.590   0.113   1.478  0.2596 -0.6122  0.3068
 6809TIP3    H141986   4.683   0.124   1.457  0.6978 -2.2926  1.2635
 6809TIP3    H241987   4.572   0.021   1.459 -1.3830 -0.1565 -0.4677
 6810TIP3   OH241988   4.581   5.036   6.317  0.6999  0.0404  0.1631
 6810TIP3    H141989   4.589   4.964   6.254 -0.6880  0.1471 -0.1419
 6810TIP3    H241990   4.552   5.111   6.264  2.5370  0.9430  0.4020
 6811TIP3   OH241991   0.599   0.026   1.021 -0.0936  0.0768 -0.6184
 6811TIP3    H141992   0.584   0.041   0.928  0.1568  1.1281 -0.5052
 6811TIP3    H241993   0.551   0.097   1.065 -0.7664 -0.7997  0.0906
 6812TIP3   OH241994   2.720   5.913   1.040 -0.3486  0.4714 -0.1281
 6812TIP3    H141995   2.690   5.888   1.127 -0.2669  0.4956 -0.0927
 6812TIP3    H241996   2.646   5.960   1.002 -0.4660  0.2620 -0.1576
 6813TIP3   OH241997   1.965   4.893   2.207 -0.1520 -0.2475 -0.5092
 6813TIP3    H141998   1.911   4.832   2.158  0.3619 -0.2113 -1.1304
 6813TIP3    H241999   1.971   4.971   2.151  0.4136 -0.1923 -0.3782
 6814TIP3   OH242000   0.233   7.218   0.445 -0.3812 -0.3905 -0.1386
 6814TIP3    H142001   0.143   7.197   0.469 -0.5237  1.0747  0.6515
 6814TIP3    H242002   0.235   7.314   0.439  1.0849 -0.4188 -0.3019
 6815TIP3   OH242003   5.347   7.250   0.876  0.0459  0.2538  0.2730
 6815TIP3    H142004   5.439   7.229   0.861  0.2451  1.0395  0.3744
 6815TIP3    H242005   5.320   7.297   0.797  0.3929  2.1200  1.2406
 6816TIP3   OH242006   2.902   5.043   7.001 -0.1698 -0.0887  0.6013
 6816TIP3    H142007   2.869   5.117   7.052  1.4497  0.9778  0.1376
 6816TIP3    H242008   2.988   5.025   7.038  0.6832  0.1755 -1.2242
 6817TIP3   OH242009   1.061   7.164   1.662  0.0178  0.2049  0.6258
 6817TIP3    H142010   0.997   7.106   1.620 -0.4037  0.7242  0.5477
 6817TIP3    H242011   1.047   7.249   1.620 -0.0710  0.6092  1.4713
 6818TIP3   OH242012   4.982   5.559   0.585 -0.0212  0.5595 -0.4023
 6818TIP3    H142013   4.887   5.559   0.576 -0.1612 -1.0372  0.9125
 6818TIP3    H242014   5.013   5.504   0.513 -0.0519  1.3902 -1.0609
 6819TIP3   OH242015   2.788   6.211   0.073 -0.3727  0.7229  0.0586
 6819TIP3    H142016   2.710   6.199   0.126  0.1808 -1.0228  0.5239
 6819TIP3    H242017   2.861   6.201   0.135  0.2526 -0.0118 -0.7771
 6820TIP3   OH242018   6.787   6.992   0.056  0.2447  0.7381 -0.9576
 6820TIP3    H142019   6.753   7.039  -0.020  0.3165  1.1899 -0.7096
 6820TIP3    H242020   6.882   6.990   0.043  0.4961  2.9754  0.3445
 6821TIP3   OH242021   3.050   6.657   0.628 -0.3109  0.3249  0.1420
 6821TIP3    H142022   3.132   6.639   0.675 -0.0469  0.3490 -0.3112
 6821TIP3    H242023   2.981   6.639   0.693 -0.1169 -3.0009 -0.4788
 6822TIP3   OH242024   3.759   0.068   0.119  0.3372 -0.2526 -0.0770
 6822TIP3    H142025   3.786  -0.022   0.137 -0.2270 -0.0044  2.2359
 6822TIP3    H242026   3.826   0.102   0.059 -1.3563 -3.2584 -3.8344
 6823TIP3   OH242027   5.312   6.124   2.167 -0.3082  0.4895  0.2802
 6823TIP3    H142028   5.278   6.210   2.140 -0.9733  0.3960  0.8071
 6823TIP3    H242029   5.243   6.087   2.221  0.8421  0.5003  1.7834
 6824TIP3   OH242030   6.507   5.527   1.208 -0.2085  0.2182 -0.1348
 6824TIP3    H142031   6.586   5.485   1.242  1.0721  3.2797  0.8082
 6824TIP3    H242032   6.505   5.501   1.115  1.5938 -0.3265 -0.0457
 6825TIP3   OH242033   6.521   6.967   1.007  0.0018  0.1873  0.2641
 6825TIP3    H142034   6.451   7.032   1.006  1.0561  1.3388 -1.2406
 6825TIP3    H242035   6.581   6.994   0.937  0.4302 -2.4522 -0.4753
 6826TIP3   OH242036   6.763   2.076   1.442 -0.6251  0.2238 -0.1833
 6826TIP3    H142037   6.678   2.038   1.423 -0.0529 -1.2947  0.2165
 6826TIP3    H242038   6.826   2.010   1.413  0.4213  1.4274 -0.6968
 6827TIP3   OH242039   0.479   3.693   1.790  0.2389 -0.0409 -0.1101
 6827TIP3    H142040   0.398   3.729   1.827  1.1824  0.7842  1.1753
 6827TIP3    H242041   0.451   3.651   1.708 -1.9832 -2.2712  1.6996
 6828TIP3   OH242042   3.393   5.610   8.236  0.0923 -0.4843  0.0406
 6828TIP3    H142043   3.336   5.681   8.207 -1.7141 -1.7115  0.4946
 6828TIP3    H242044   3.461   5.653   8.288 -0.7260  0.9561 -0.0720
 6829TIP3   OH242045   4.740   2.941   1.636 -0.0314 -0.0655  0.1934
 6829TIP3    H142046   4.692   3.010   1.590 -0.8294 -0.0210  1.0733
 6829TIP3    H242047   4.735   2.967   1.729  2.6701  0.5451  0.1958
 6830TIP3   OH242048   6.981   6.616   8.315  0.0334 -0.5254  0.1811
 6830TIP3    H142049   6.899   6.646   8.356  1.5493  1.3463  1.9509
 6830TIP3    H242050   7.017   6.553   8.377 -0.9361 -2.7877 -1.4746
 6831TIP3   OH242051   6.546   7.081   2.233  0.5589  0.4396 -0.3120
 6831TIP3    H142052   6.607   7.027   2.283 -0.4950 -1.8974 -1.4617
 6831TIP3    H242053   6.563   7.171   2.263  0.8277 -0.7355  3.2524
 6832TIP3   OH242054   1.115   6.775   2.683 -1.0873 -0.2963 -0.2766
 6832TIP3    H142055   1.208   6.796   2.689 -1.2610  0.2470  0.6135
 6832TIP3    H242056   1.103   6.701   2.742 -1.5914  0.9246  1.1843
 6833TIP3   OH242057   2.453   7.051   2.001 -0.0358  0.4719 -0.1382
 6833TIP3    H142058   2.455   6.956   2.012 -0.6708  0.4971  0.2214
 6833TIP3    H242059   2.514   7.084   2.066 -0.2799  0.3459  0.1542
 6834TIP3   OH242060   7.245   7.303   0.227  1.2043 -0.1109  0.0438
 6834TIP3    H142061   7.282   7.382   0.266  0.6064  0.0446  0.2836
 6834TIP3    H242062   7.151   7.309   0.242  0.9128  0.1427 -1.7678
 6835TIP3   OH242063   4.700   6.815   1.727 -0.0268  0.6598  0.7771
 6835TIP3    H142064   4.653   6.801   1.809  0.1382  0.2783  0.8079
 6835TIP3    H242065   4.743   6.900   1.738 -0.0808  0.6522  1.0462
 6836TIP3   OH242066   3.829   1.251   1.597 -0.2018  0.6967  0.7855
 6836TIP3    H142067   3.793   1.330   1.638 -1.5508  1.1708 -1.2540
 6836TIP3    H242068   3.769   1.232   1.525  2.4051  0.1786 -1.2982
 6837TIP3   OH242069   4.183   5.240   0.771 -0.5528 -0.3180 -0.1012
 6837TIP3    H142070   4.234   5.176   0.720  0.1656  0.4336 -0.3397
 6837TIP3    H242071   4.094   5.205   0.771 -0.1260 -1.4131 -0.0799
 6838TIP3   OH242072   1.217   6.379   1.148  0.3598  0.0778 -0.0116
 6838TIP3    H142073   1.202   6.315   1.078 -3.5087  0.5944  0.1834
 6838TIP3    H242074   1.202   6.330   1.229  2.1995  0.1065  0.3567
 6839TIP3   OH242075   1.458   7.168   0.459 -0.3210  0.0197 -0.2791
 6839TIP3    H142076   1.484   7.247   0.412 -0.8196  0.4502  0.1609
 6839TIP3    H242077   1.370   7.148   0.428 -0.5668  0.1809  0.2942
 6840TIP3   OH242078   2.548   0.806   1.789  0.1669 -0.3690 -0.8477
 6840TIP3    H142079   2.620   0.849   1.834 -0.0963 -0.7806 -0.0281
 6840TIP3    H242080   2.491   0.774   1.859 -0.2041 -1.0764 -1.4620
 6841TIP3   OH242081   0.518   1.947   1.530  0.3037  0.5136 -0.0886
 6841TIP3    H142082   0.424   1.961   1.524  0.0231 -0.4326  1.7114
 6841TIP3    H242083   0.547   2.010   1.596  0.7255 -0.1187  0.3243
 6842TIP3   OH242084   2.177   0.994   1.187  0.4094 -0.1737 -0.0435
 6842TIP3    H142085   2.128   1.019   1.109 -0.7445  0.5304  0.8948
 6842TIP3    H242086   2.234   0.923   1.157 -0.2643 -0.1507 -1.4399
 6843TIP3   OH242087   1.704   2.574   2.497 -0.2058 -0.1333 -0.8274
 6843TIP3    H142088   1.752   2.657   2.498  1.1129 -0.8853 -0.9512
 6843TIP3    H242089   1.739   2.527   2.422 -2.8505  0.2742 -2.3807
 6844TIP3   OH242090   6.939   6.887   0.734 -0.6362  0.1588  0.5159
 6844TIP3    H142091   6.961   6.847   0.818  0.7848  0.6636  0.3964
 6844TIP3    H242092   6.949   6.815   0.670  4.1993  1.1557 -0.0202
 6845TIP3   OH242093   5.281   1.262   0.630 -0.0045  0.2824  0.1573
 6845TIP3    H142094   5.317   1.202   0.694 -1.4372 -0.6765  0.0765
 6845TIP3    H242095   5.244   1.333   0.682 -0.0716  0.1233  0.3257
 6846TIP3   OH242096   1.774   7.262   1.589  0.2616  0.4318  0.2313
 6846TIP3    H142097   1.838   7.333   1.588  1.6212 -0.6897  3.2247
 6846TIP3    H242098   1.812   7.196   1.530  1.4513  0.1636  1.2668
 6847TIP3   OH242099   1.310   0.098   1.869 -0.2070 -0.2013 -0.1177
 6847TIP3    H142100   1.373   0.091   1.799  1.8826 -0.2908  1.7185
 6847TIP3    H242101   1.271   0.010   1.876 -1.0992  0.0495 -1.7308
 6848TIP3   OH242102   0.934   6.443   1.090  0.2430  0.0563  0.1837
 6848TIP3    H142103   1.010   6.392   1.119 -0.7846 -1.9232 -0.4987
 6848TIP3    H242104   0.968   6.500   1.021  0.9612 -1.4153 -0.6986
 6849TIP3   OH242105   3.204   5.766   0.326 -0.7586  0.2757  0.0092
 6849TIP3    H142106   3.218   5.748   0.419  1.3162  0.3790 -0.2631
 6849TIP3    H242107   3.136   5.704   0.300  1.4396 -2.5677  0.6917
 6850TIP3   OH242108   0.495   3.841   0.504  0.3573  0.0298 -0.0924
 6850TIP3    H142109   0.405   3.860   0.480  0.1934  0.3344  0.7278
 6850TIP3    H242110   0.488   3.778   0.576  0.7907  0.1960  0.0998
 6851TIP3   OH242111   7.140   2.159   7.823 -0.6135 -0.6026  0.3403
 6851TIP3    H142112   7.103   2.175   7.736 -0.4246  0.0748  0.3855
 6851TIP3    H242113   7.230   2.188   7.817 -1.3810  2.1976  1.5870
 6852TIP3   OH242114   1.411   2.729   2.870  0.9939  0.1176 -0.1798
 6852TIP3    H142115   1.336   2.777   2.904 -0.0675 -0.5894 -1.4911
 6852TIP3    H242116   1.418   2.653   2.927  2.1713  1.3846  1.3899
 6853TIP3   OH242117   6.007   6.956   1.988 -0.3153  0.3496 -0.8962
 6853TIP3    H142118   5.935   6.981   1.930 -1.2334 -0.6656 -0.1992
 6853TIP3    H242119   6.015   7.028   2.050 -0.8625  0.3667 -0.8487
 6854TIP3   OH242120   2.829   5.200   0.251  0.2702  0.1454  0.1503
 6854TIP3    H142121   2.786   5.174   0.333  1.3911 -2.5009 -0.0408
 6854TIP3    H242122   2.901   5.137   0.242  0.7435  1.0234 -2.3824
 6855TIP3   OH242123   0.623   1.751   2.309 -0.2715 -0.2148 -0.5615
 6855TIP3    H142124   0.586   1.777   2.394 -1.0255 -1.8597 -0.3749
 6855TIP3    H242125   0.698   1.809   2.297 -1.8350  1.9866 -0.1043
 6856TIP3   OH242126   0.051   5.706   1.907 -0.0104  0.3294 -0.5544
 6856TIP3    H142127  -0.008   5.778   1.929  1.8701  1.6837  0.1813
 6856TIP3    H242128   0.091   5.681   1.991  0.2960 -0.7318 -1.0054
 6857TIP3   OH242129   1.269   0.904   2.136 -0.7167 -0.5333  0.0666
 6857TIP3    H142130   1.346   0.956   2.116  0.1221 -2.1110 -0.9398
 6857TIP3    H242131   1.255   0.917   2.230 -0.2647  1.1069 -0.0848
 6858TIP3   OH242132   3.348   1.175   1.261 -0.0308  0.0233  0.1993
 6858TIP3    H142133   3.272   1.120   1.244  0.3776 -0.0562 -1.5064
 6858TIP3    H242134   3.320   1.236   1.329 -0.9883 -1.2600  0.9562
 6859TIP3   OH242135   3.336   6.513   0.084 -0.0914 -0.6011  1.2047
 6859TIP3    H142136   3.415   6.476   0.122  1.1438  1.5452  0.7576
 6859TIP3    H242137   3.306   6.577   0.148 -0.2212  0.1929  0.3508
 6860TIP3   OH242138   0.986   6.169   1.893 -0.5728 -0.4331 -0.7220
 6860TIP3    H142139   1.039   6.226   1.838 -0.1903 -1.3820 -1.3397
 6860TIP3    H242140   0.910   6.222   1.916  1.7047  1.7561  2.0835
 6861TIP3   OH242141   2.668   0.333   2.123  0.0474 -0.5317  0.2997
 6861TIP3    H142142   2.599   0.351   2.059  0.0210 -1.4708  0.0555
 6861TIP3    H242143   2.635   0.370   2.205 -1.1133 -1.6722  0.3662
 6862TIP3   OH242144   3.022   1.021   0.964 -0.6710  0.0185  0.6327
 6862TIP3    H142145   2.939   1.020   0.916 -1.8529 -0.7918  2.6308
 6862TIP3    H242146   3.088   1.040   0.897 -2.2289 -1.3112 -1.3491
 6863TIP3   OH242147   3.870   6.329   1.409  0.2404 -0.2357 -0.2340
 6863TIP3    H142148   3.938   6.381   1.366  1.2907 -0.8120  0.7165
 6863TIP3    H242149   3.833   6.388   1.475 -0.0816  0.0345 -0.6582
 6864TIP3   OH242150   3.859   6.816   2.090 -0.5445 -0.0237  0.7084
 6864TIP3    H142151   3.888   6.806   2.180 -0.2292  1.3521  0.7627
 6864TIP3    H242152   3.930   6.777   2.038  0.1239  0.8288  0.9719
 6865TIP3   OH242153   1.895   6.666   1.922 -0.0387  0.4685  0.0263
 6865TIP3    H142154   1.914   6.584   1.876  0.8930  0.6003  0.1607
 6865TIP3    H242155   1.883   6.730   1.852 -0.8658  0.2074 -0.0827
 6866TIP3   OH242156   3.666   0.929   2.408  0.2621 -0.3089  0.1005
 6866TIP3    H142157   3.739   0.950   2.350  1.2646 -3.2783  0.1807
 6866TIP3    H242158   3.603   0.885   2.351  0.5619 -1.8241  0.9165
 6867TIP3   OH242159   6.323   2.462   2.334  0.0895 -0.5759 -0.4271
 6867TIP3    H142160   6.244   2.509   2.306 -1.3257 -0.7277  3.0730
 6867TIP3    H242161   6.290   2.389   2.388  2.5265 -2.1047 -0.9000
 6868TIP3   OH242162   3.085   2.038   2.541  0.4092  0.4205 -0.1053
 6868TIP3    H142163   3.005   2.087   2.561 -0.9079 -0.9532 -1.8814
 6868TIP3    H242164   3.150   2.105   2.520 -0.4494  1.5279  0.7663
 6869TIP3   OH242165   3.603   2.760   1.197  0.8742  0.4440 -0.4509
 6869TIP3    H142166   3.542   2.804   1.138  0.7910  1.1692  0.1714
 6869TIP3    H242167   3.689   2.793   1.172  0.7676  1.3513  0.3368
 6870TIP3   OH242168   0.954   1.325   1.746 -0.5847  0.0819 -0.0752
 6870TIP3    H142169   0.948   1.410   1.702 -0.2539 -0.2643 -0.7997
 6870TIP3    H242170   1.038   1.327   1.791 -0.9301  0.4438  0.5500
 6871TIP3   OH242171   0.886   0.125   8.328  0.3143 -0.3661 -0.7843
 6871TIP3    H142172   0.901   0.201   8.384  1.7911  0.5089 -2.2998
 6871TIP3    H242173   0.928   0.052   8.373 -0.8657 -0.2306  0.5468
 6872TIP3   OH242174   5.009   5.829   1.231  0.1420  0.0161 -0.6870
 6872TIP3    H142175   4.914   5.819   1.229 -0.1223  2.0297 -0.1409
 6872TIP3    H242176   5.033   5.804   1.321  0.0978 -0.2362 -0.7446
 6873TIP3   OH242177   4.622   1.041   1.433 -0.3511 -0.1959 -0.4046
 6873TIP3    H142178   4.691   0.993   1.479  0.8335 -0.1350 -2.0698
 6873TIP3    H242179   4.634   1.132   1.460  3.4083  0.6415 -4.3885
 6874TIP3   OH242180   2.789   0.674   1.647 -0.0737 -0.4143 -0.0980
 6874TIP3    H142181   2.731   0.730   1.699 -1.4153 -0.3262 -1.6478
 6874TIP3    H242182   2.779   0.587   1.686  0.6043  0.0480  1.1468
 6875TIP3   OH242183   3.482   0.540   2.117  0.6861 -0.0001 -0.0662
 6875TIP3    H142184   3.427   0.462   2.121  1.7327 -0.7271  0.3562
 6875TIP3    H242185   3.517   0.540   2.028  0.2837  0.2580 -0.2214
 6876TIP3   OH242186   1.481   2.911   1.850 -0.1352 -0.1762 -0.4308
 6876TIP3    H142187   1.527   2.994   1.837 -0.4490  0.2790  1.2382
 6876TIP3    H242188   1.499   2.888   1.941  0.5133 -2.2994 -1.0486
 6877TIP3   OH242189   3.160   0.394   1.722 -0.1793 -0.0649 -0.3263
 6877TIP3    H142190   3.216   0.351   1.786 -0.3528 -0.3788 -0.3822
 6877TIP3    H242191   3.107   0.323   1.686 -2.1427  0.5543  1.2652
 6878TIP3   OH242192   2.515   6.625   7.926  0.0129  0.7077  0.1843
 6878TIP3    H142193   2.444   6.637   7.989  1.0849  0.4775  1.4483
 6878TIP3    H242194   2.542   6.534   7.936 -1.4454 -0.0675 -2.3779
 6879TIP3   OH242195   4.127   5.827   0.639 -0.8528 -0.1362  0.1887
 6879TIP3    H142196   4.075   5.749   0.619 -1.2214  0.0396  0.4378
 6879TIP3    H242197   4.173   5.846   0.558 -3.6229  1.5531 -1.0636
 6880TIP3   OH242198   7.287   2.627   1.437 -0.3597 -0.3794 -0.1775
 6880TIP3    H142199   7.227   2.695   1.465 -1.0725 -1.0358 -0.0829
 6880TIP3    H242200   7.372   2.671   1.429 -0.4110  0.1107  1.7434
 6881TIP3   OH242201   3.440   6.740   1.830 -0.0796 -0.2420 -0.6091
 6881TIP3    H142202   3.402   6.826   1.846 -1.6890 -1.1146  0.4989
 6881TIP3    H242203   3.390   6.705   1.756  0.6458 -0.1677 -1.1295
 6882TIP3   OH242204   0.164   1.579   0.838  0.2579 -0.0439 -0.2814
 6882TIP3    H142205   0.235   1.641   0.857  1.3605 -1.2655 -0.3963
 6882TIP3    H242206   0.201   1.518   0.775 -1.9643  1.2851 -2.9647
 6883TIP3   OH242207   3.916   0.973   2.246  0.3646 -0.4281  0.3473
 6883TIP3    H142208   4.008   0.972   2.272  0.1150 -0.7479  1.2461
 6883TIP3    H242209   3.917   0.975   2.151  1.3156  2.0058  0.3806
 6884TIP3   OH242210   5.817   2.958   1.568  0.1201 -0.2040 -0.0346
 6884TIP3    H142211   5.760   2.988   1.498  1.0165  1.4316 -0.0776
 6884TIP3    H242212   5.772   2.985   1.649 -0.7416 -1.7843  0.0416
 6885TIP3   OH242213   5.665   6.905   0.742 -0.1770 -0.3483  0.2472
 6885TIP3    H142214   5.757   6.931   0.744  0.3499 -1.2337 -5.0544
 6885TIP3    H242215   5.653   6.849   0.819  3.2368  1.0393  1.8789
 6886TIP3   OH242216   3.532   1.365   0.817  0.4806 -0.5297 -0.1696
 6886TIP3    H142217   3.551   1.356   0.724  1.6957 -0.0671  0.0245
 6886TIP3    H242218   3.440   1.393   0.821 -0.1170 -2.2617 -1.1550
 6887TIP3   OH242219   0.472   5.792   1.884  0.0060 -0.3172  0.2951
 6887TIP3    H142220   0.552   5.769   1.931 -0.3313  0.1619  1.1044
 6887TIP3    H242221   0.502   5.811   1.795  0.7698 -0.3002  0.5508
 6888TIP3   OH242222   3.555   3.950   2.341 -0.1021 -0.1545 -0.4009
 6888TIP3    H142223   3.618   3.916   2.405  0.4764  1.0645 -0.3215
 6888TIP3    H242224   3.608   4.000   2.280 -0.9685  0.6551 -0.4915
 6889TIP3   OH242225   2.789   3.927   0.619 -0.3367 -0.0668 -0.1283
 6889TIP3    H142226   2.826   4.012   0.594 -0.4168  0.2001  0.6563
 6889TIP3    H242227   2.710   3.919   0.566 -0.4905  0.4838  0.0190
 6890TIP3   OH242228   4.258   1.260   2.432 -0.1038 -0.3009  1.0896
 6890TIP3    H142229   4.339   1.310   2.423  0.8662 -1.9928  0.0849
 6890TIP3    H242230   4.229   1.277   2.522 -0.7595  3.4189  0.2263
 6891TIP3   OH242231   6.364   6.455   2.127 -0.5848 -0.1862  0.6674
 6891TIP3    H142232   6.425   6.405   2.181 -0.0141  0.6384  0.7850
 6891TIP3    H242233   6.277   6.423   2.154 -0.3120  0.1681  2.0208
 6892TIP3   OH242234   4.691   0.157   2.373 -0.3546 -0.2609  0.0277
 6892TIP3    H142235   4.691   0.207   2.292 -0.3771  0.4532  0.4663
 6892TIP3    H242236   4.664   0.219   2.440  1.4057 -0.3672  0.8768
 6893TIP3   OH242237   5.186   5.178   1.423  0.5075 -0.4513  0.2773
 6893TIP3    H142238   5.197   5.268   1.391 -0.1136 -0.6731 -0.5800
 6893TIP3    H242239   5.091   5.164   1.421  0.4237 -0.3147  2.6761
 6894TIP3   OH242240   4.198   0.985   2.282 -0.4371 -0.4986  0.3291
 6894TIP3    H142241   4.261   0.913   2.290 -0.8065 -0.7607  0.8713
 6894TIP3    H242242   4.221   1.044   2.353  0.7397  0.6066 -0.9263
 6895TIP3   OH242243   5.326   2.149   1.612 -0.0313  0.1528 -0.7954
 6895TIP3    H142244   5.277   2.141   1.694 -2.4832  0.1221 -2.2233
 6895TIP3    H242245   5.407   2.101   1.628 -0.9581 -0.8002  1.2369
 6896TIP3   OH242246   0.825   7.170   1.993 -0.2740  0.2886  0.3551
 6896TIP3    H142247   0.744   7.191   2.040  0.9798 -0.2802  2.8717
 6896TIP3    H242248   0.807   7.088   1.949 -0.7534 -0.4028  1.7947
 6897TIP3   OH242249   2.901   0.728   0.867 -0.1199 -0.6963 -0.1155
 6897TIP3    H142250   2.827   0.667   0.867 -0.2334 -0.5600 -0.3677
 6897TIP3    H242251   2.946   0.710   0.949 -1.2291  0.1774  0.7077
 6898TIP3   OH242252   4.971   5.196   1.142 -0.2078  0.0752  0.3419
 6898TIP3    H142253   5.043   5.168   1.086 -2.1318 -1.5493 -1.3875
 6898TIP3    H242254   4.939   5.276   1.101 -0.2642  0.0501  0.3381
 6899TIP3   OH242255   7.197   0.239   1.875 -0.1544  0.1795 -0.4960
 6899TIP3    H142256   7.132   0.176   1.844 -0.6469 -0.7496  2.2960
 6899TIP3    H242257   7.270   0.231   1.813 -1.2135 -1.3724 -1.5635
 6900TIP3   OH242258   6.234   5.958   8.386 -0.3160  0.2710  0.3580
 6900TIP3    H142259   6.295   5.943   8.314 -0.8019 -0.3330  0.0722
 6900TIP3    H242260   6.200   6.046   8.370 -2.6751 -0.9773 -1.8410
 6901TIP3   OH242261   0.608   0.760   1.934  0.0039  0.5729  0.2634
 6901TIP3    H142262   0.654   0.711   1.866 -0.2549 -0.9032  1.1509
 6901TIP3    H242263   0.517   0.760   1.906  0.3871  2.9302 -1.1495
 6902TIP3   OH242264   0.260   6.248   1.454 -0.4128  0.1933  0.2050
 6902TIP3    H142265   0.279   6.339   1.430  1.2423  0.1138  1.1283
 6902TIP3    H242266   0.308   6.235   1.535 -0.1762 -1.7005 -0.2304
 6903TIP3   OH242267   1.907   4.033   0.359 -0.5315 -0.4391 -0.5906
 6903TIP3    H142268   1.887   4.054   0.450 -1.3945 -1.3004 -0.5706
 6903TIP3    H242269   1.932   4.116   0.319 -0.5758  0.0121  0.3232
 6904TIP3   OH242270   5.855   1.340   1.706 -0.1937  0.3238  0.1096
 6904TIP3    H142271   5.790   1.373   1.768 -0.3767  1.0111 -0.4514
 6904TIP3    H242272   5.900   1.418   1.674  1.1228 -0.1658  0.7255
 6905TIP3   OH242273   6.895   3.222   2.173 -0.0521  0.3619 -0.1751
 6905TIP3    H142274   6.824   3.164   2.148  0.7136 -0.7166  0.1140
 6905TIP3    H242275   6.925   3.261   2.090  0.1533 -0.5034 -0.5147
 6906TIP3   OH242276   2.422   4.774   1.020 -0.1088  0.0773 -0.4525
 6906TIP3    H142277   2.458   4.695   1.061 -1.6044 -0.0505  0.6381
 6906TIP3    H242278   2.328   4.761   1.021 -0.3745  1.8950 -0.2108
 6907TIP3   OH242279   1.834   3.042   1.771  0.0352 -0.2920  0.2212
 6907TIP3    H142280   1.833   2.982   1.846 -2.0727  0.0564  0.4777
 6907TIP3    H242281   1.772   3.111   1.794  2.1874  1.8490 -0.2195
 6908TIP3   OH242282   1.236   2.901   3.011 -0.0539  0.3921 -0.2887
 6908TIP3    H142283   1.222   2.927   2.920 -0.1231  0.0106 -0.3911
 6908TIP3    H242284   1.221   2.980   3.062 -0.9746  0.3721 -0.5306
 6909TIP3   OH242285   0.262   1.744   1.600 -0.1007  0.3795  0.0975
 6909TIP3    H142286   0.340   1.689   1.604 -0.7732 -0.4295  2.4274
 6909TIP3    H242287   0.297   1.833   1.589  1.1820  0.0844  1.5863
 6910TIP3   OH242288   1.236   3.547   2.596 -0.4485 -0.3599 -0.0534
 6910TIP3    H142289   1.182   3.485   2.645 -1.1697  0.8917  0.7819
 6910TIP3    H242290   1.173   3.610   2.561  0.3543  0.3825 -0.1656
 6911TIP3   OH242291   0.087   4.196   2.228 -0.0223 -0.2301 -0.4993
 6911TIP3    H142292   0.041   4.115   2.247 -2.2660  0.5851 -2.2141
 6911TIP3    H242293   0.174   4.184   2.266 -0.4375 -3.2706 -0.4020
 6912TIP3   OH242294   0.223   3.213   2.448 -0.4874 -0.5297  0.6261
 6912TIP3    H142295   0.202   3.306   2.452 -1.4471 -0.5146 -2.8225
 6912TIP3    H242296   0.318   3.210   2.435 -0.5604  0.0079 -0.0590
 6913TIP3   OH242297   0.386   3.163   2.793  0.2095 -0.1294 -0.1070
 6913TIP3    H142298   0.428   3.105   2.730 -1.1913 -0.7451 -0.5110
 6913TIP3    H242299   0.293   3.162   2.768  0.1366  2.1591 -0.0141
 6914TIP3   OH242300   2.852   2.778   8.173  0.4137 -0.1631  0.1163
 6914TIP3    H142301   2.885   2.863   8.202 -1.6070 -0.0763  2.3177
 6914TIP3    H242302   2.764   2.797   8.139  0.8166 -1.0403 -1.4444
 6915TIP3   OH242303   3.224   6.757   1.046  0.9571 -0.0006 -0.4605
 6915TIP3    H142304   3.248   6.785   0.958  0.3708 -1.2125 -1.0060
 6915TIP3    H242305   3.145   6.704   1.035  0.8047 -0.0661  0.8042
 6916TIP3   OH242306   0.282   1.065   2.381 -0.5776  0.2183 -0.1029
 6916TIP3    H142307   0.311   1.113   2.303  1.2565  0.0737  0.4858
 6916TIP3    H242308   0.295   1.127   2.453 -0.0669 -0.4661  0.3959
 6917TIP3   OH242309   1.959   2.368   0.513  0.3773 -0.1130  0.2451
 6917TIP3    H142310   1.935   2.322   0.433 -2.3297 -0.7411  1.3897
 6917TIP3    H242311   2.043   2.409   0.492  0.3868 -1.3984 -2.4443
 6918TIP3   OH242312   3.228   4.685   1.879  0.0795 -0.4289  0.1745
 6918TIP3    H142313   3.292   4.671   1.809  1.3265 -0.4739  1.2947
 6918TIP3    H242314   3.267   4.643   1.955 -0.6512  0.7527  1.2146
 6919TIP3   OH242315   4.013   1.567   2.339 -0.0213  0.0660  0.0390
 6919TIP3    H142316   3.923   1.578   2.308  0.2273 -0.0971 -0.7545
 6919TIP3    H242317   4.009   1.495   2.401 -0.3016 -0.4928 -0.6196
 6920TIP3   OH242318   2.055   5.720   0.408 -0.0873  0.5890 -0.3035
 6920TIP3    H142319   1.985   5.776   0.443  0.4985 -0.0715  2.0121
 6920TIP3    H242320   2.010   5.661   0.347 -1.7776 -0.6748  2.0980
 6921TIP3   OH242321   3.205   2.561   1.897  0.1641 -0.1613 -0.2333
 6921TIP3    H142322   3.240   2.505   1.967 -0.0280  0.3240  0.2527
 6921TIP3    H242323   3.187   2.645   1.940 -0.4216 -0.0171 -0.7623
 6922TIP3   OH242324   3.288   2.826   2.428 -0.0158  0.3034 -0.0044
 6922TIP3    H142325   3.327   2.881   2.496 -0.4894 -1.7007  1.9209
 6922TIP3    H242326   3.194   2.828   2.445 -0.0989 -0.5525 -0.3479
 6923TIP3   OH242327   2.835   1.977   2.334  0.3477 -0.3563  0.5568
 6923TIP3    H142328   2.845   2.063   2.374  1.0796  0.6495 -1.7306
 6923TIP3    H242329   2.921   1.957   2.297 -0.0537 -1.6898  0.3192
 6924TIP3   OH242330   2.566   2.623   2.694 -0.1365  0.0181 -0.1027
 6924TIP3    H142331   2.587   2.536   2.660  1.7254 -0.3763  1.9364
 6924TIP3    H242332   2.546   2.609   2.787 -0.5373  1.6669  0.0827
 6925TIP3   OH242333   0.617   5.229   1.807 -0.3397  0.5309  0.2445
 6925TIP3    H142334   0.600   5.148   1.855  2.0844 -0.3467 -0.2883
 6925TIP3    H242335   0.618   5.203   1.715 -0.0510  1.2518  0.0366
 6926TIP3   OH242336   1.857   3.514   2.773 -0.2075  0.0103 -0.0528
 6926TIP3    H142337   1.897   3.600   2.766  1.4192 -0.6474  1.0538
 6926TIP3    H242338   1.770   3.530   2.811  0.3547  1.0840  0.7783
 6927TIP3   OH242339   1.470   4.825   0.315  0.3891  0.4003  0.2232
 6927TIP3    H142340   1.553   4.816   0.268 -1.1216 -2.7433 -2.0354
 6927TIP3    H242341   1.478   4.765   0.389 -0.1223 -0.4927 -0.4327
 6928TIP3   OH242342   2.637   2.766   2.452 -0.7090 -0.6949 -0.2753
 6928TIP3    H142343   2.612   2.857   2.437  1.7836  0.0620 -0.0695
 6928TIP3    H242344   2.627   2.753   2.546 -0.6091 -0.4827 -0.2360
 6929TIP3   OH242345   2.179   3.231   2.576 -0.0959  0.3003  0.4886
 6929TIP3    H142346   2.192   3.142   2.545  0.0354 -0.1610  1.8487
 6929TIP3    H242347   2.260   3.276   2.555  0.1014 -0.0855  0.4298
 6930TIP3   OH242348   4.238   5.326   0.485 -0.3137  0.4202  0.2075
 6930TIP3    H142349   4.330   5.348   0.469 -0.7492  1.4537 -0.9760
 6930TIP3    H242350   4.241   5.247   0.539  1.2569 -0.0698 -0.5766
 6931TIP3   OH242351   5.400   2.188   2.025  0.1095  0.0545 -0.4017
 6931TIP3    H142352   5.447   2.233   2.095 -2.0498 -0.5685  1.4871
 6931TIP3    H242353   5.355   2.258   1.978 -0.7603  0.1912  0.6272
 6932TIP3   OH242354   4.718   4.714   1.512  0.2499 -0.0062  0.1645
 6932TIP3    H142355   4.767   4.662   1.448  0.6446 -0.2579  0.6768
 6932TIP3    H242356   4.780   4.781   1.541 -0.2777  0.8152 -0.5496
 6933TIP3   OH242357   5.078   3.501   1.743  0.1501  0.9923  0.2526
 6933TIP3    H142358   5.155   3.552   1.768  0.2355  1.1753 -0.3828
 6933TIP3    H242359   5.033   3.556   1.679  0.5452  0.0327 -0.8769
 6934TIP3   OH242360   3.506   0.130   0.679  0.1973  0.6027 -0.2297
 6934TIP3    H142361   3.418   0.095   0.695  0.6369  0.2519  1.5378
 6934TIP3    H242362   3.529   0.174   0.761  2.0042 -0.0190 -0.3936
 6935TIP3   OH242363   5.164   3.391   2.262 -0.7517 -0.5430 -0.6324
 6935TIP3    H142364   5.148   3.425   2.350  2.2672  0.0041 -0.2488
 6935TIP3    H242365   5.166   3.469   2.206  0.6845 -0.5796 -0.6368
 6936TIP3   OH242366   5.400   3.384   1.590 -0.0687 -0.2511 -0.2505
 6936TIP3    H142367   5.404   3.465   1.642 -1.3044 -0.4665  0.1726
 6936TIP3    H242368   5.492   3.363   1.574  0.4573 -1.2433  3.4993
 6937TIP3   OH242369   7.298   3.667   1.558  0.0827 -0.2323  0.6946
 6937TIP3    H142370   7.307   3.744   1.615  0.2835  1.6201 -1.7422
 6937TIP3    H242371   7.388   3.637   1.544  0.3186  1.2302 -1.1202
 6938TIP3   OH242372   4.572   3.878   1.447  0.2981 -0.1641 -0.2790
 6938TIP3    H142373   4.481   3.867   1.476  0.5130  0.2882  0.5886
 6938TIP3    H242374   4.605   3.788   1.440 -0.0835 -0.3156 -0.1942
 6939TIP3   OH242375   1.297   2.323   0.735 -0.1211 -0.8333  0.2813
 6939TIP3    H142376   1.254   2.324   0.649  0.5501  0.8345 -0.0659
 6939TIP3    H242377   1.254   2.394   0.783  1.6194  0.2800  0.2309
 6940TIP3   OH242378   4.404   4.179   1.953 -0.6820  0.5370 -0.0844
 6940TIP3    H142379   4.351   4.201   2.029 -1.6191  0.7050 -0.7785
 6940TIP3    H242380   4.468   4.249   1.947 -0.5618  0.4819  0.5922
 6941TIP3   OH242381   3.033   2.540   7.840  0.1808  0.1954 -0.2608
 6941TIP3    H142382   3.007   2.449   7.852 -0.0547  0.2444 -0.4053
 6941TIP3    H242383   2.957   2.582   7.799 -0.4899  0.9325  1.6834
 6942TIP3   OH242384   5.359   2.761   2.183  0.3183  0.3598 -0.1258
 6942TIP3    H142385   5.267   2.752   2.159 -0.5073  0.5502  2.7995
 6942TIP3    H242386   5.383   2.849   2.152 -0.6184  0.5316 -0.3951
 6943TIP3   OH242387   2.058   2.857   1.691  0.6266  0.4015  0.5676
 6943TIP3    H142388   2.150   2.882   1.701 -0.0091  2.5915  1.3866
 6943TIP3    H242389   2.035   2.883   1.601  0.7954 -0.1154  0.3741
 6944TIP3   OH242390   2.997   3.272   1.604 -0.4316 -0.3976 -0.3014
 6944TIP3    H142391   2.930   3.241   1.665 -0.4140 -0.0056 -0.0810
 6944TIP3    H242392   3.080   3.252   1.647 -0.4235  0.4128  0.0781
 6945TIP3   OH242393   2.202   1.644   0.268 -0.0542  0.5373 -0.6339
 6945TIP3    H142394   2.184   1.585   0.195  3.4675 -1.8038  0.2425
 6945TIP3    H242395   2.256   1.714   0.229  1.4223 -0.4573 -0.4289
 6946TIP3   OH242396   5.074   2.993   1.893  0.6946  0.3966  0.1692
 6946TIP3    H142397   5.082   2.978   1.988  0.4586  0.1515  0.1492
 6946TIP3    H242398   5.064   3.088   1.885 -2.5106  0.1566  0.6049
 6947TIP3   OH242399   5.439   4.385   1.520  0.0931  0.0657  0.2898
 6947TIP3    H142400   5.448   4.440   1.597  1.2135  0.0945  0.1469
 6947TIP3    H242401   5.524   4.391   1.476  0.1389 -1.5402  0.1213
 6948TIP3   OH242402   7.201   4.224   0.611  0.7477 -0.0639  0.7884
 6948TIP3    H142403   7.111   4.244   0.637  1.2849  0.6884  2.1541
 6948TIP3    H242404   7.209   4.260   0.523  0.5110  2.3509  1.7179
 6949TIP3   OH242405   1.859   2.120   0.328 -0.2501 -0.0009  0.6287
 6949TIP3    H142406   1.942   2.079   0.356 -1.1642 -2.0141  0.4795
 6949TIP3    H242407   1.864   2.120   0.233 -0.6174 -0.5539  0.6082
 6950TIP3   OH242408   6.708   0.770   7.870 -0.5209 -0.0212  0.4392
 6950TIP3    H142409   6.646   0.700   7.848  0.0305 -0.2803 -0.3166
 6950TIP3    H242410   6.753   0.788   7.788 -1.3343  1.8995  0.3894
 6951TIP3   OH242411   0.563   3.756   0.981  0.4903 -0.2033  0.3141
 6951TIP3    H142412   0.522   3.781   0.898  1.3344 -1.5480 -0.5301
 6951TIP3    H242413   0.491   3.718   1.033  0.3195 -1.0034 -0.5013
 6952TIP3   OH242414   6.812   2.790   2.233 -0.0180  0.3536 -0.3723
 6952TIP3    H142415   6.730   2.839   2.224  0.2651  0.8897 -0.0674
 6952TIP3    H242416   6.807   2.751   2.321  0.1994  0.6618 -0.2221
 6953TIP3   OH242417   5.620   1.993   2.194 -0.5091  0.1651  0.3298
 6953TIP3    H142418   5.661   2.079   2.203  1.3865 -0.8038  1.1811
 6953TIP3    H242419   5.531   2.006   2.227 -0.0891  1.6908  0.8955
 6954TIP3   OH242420   6.372   3.972   2.088  0.2460  0.1076 -0.2336
 6954TIP3    H142421   6.350   4.010   2.173 -0.2895 -0.6492 -0.0290
 6954TIP3    H242422   6.448   3.916   2.106  1.0504  1.0705 -0.5395
 6955TIP3   OH242423   5.181   2.671   1.486 -0.2979 -0.2850  0.3736
 6955TIP3    H142424   5.105   2.730   1.481 -1.2537 -1.5991 -0.9394
 6955TIP3    H242425   5.254   2.724   1.453 -0.7277  0.8285  1.1769
 6956TIP3   OH242426   0.563   2.149   1.722 -0.1883  0.4728 -0.1288
 6956TIP3    H142427   0.657   2.156   1.738 -0.5716  3.5030  1.1662
 6956TIP3    H242428   0.523   2.161   1.808 -1.8991  4.6660 -1.3831
 6957TIP3   OH242429   5.258   3.618   1.306 -0.1777 -0.1636 -0.4122
 6957TIP3    H142430   5.209   3.536   1.311 -0.3394 -0.0856 -0.6991
 6957TIP3    H242431   5.268   3.645   1.397 -0.4419 -0.3137 -0.3357
 6958TIP3   OH242432   2.738   3.485   0.327  0.2137 -0.1371  0.0086
 6958TIP3    H142433   2.729   3.537   0.247 -0.5459  1.8790  1.3629
 6958TIP3    H242434   2.833   3.485   0.344  0.4812 -1.4007 -1.4068
 6959TIP3   OH242435   2.134   6.768   0.466  0.4753 -0.0593 -0.9104
 6959TIP3    H142436   2.120   6.855   0.429  1.9192  0.2139 -0.8613
 6959TIP3    H242437   2.072   6.711   0.421 -0.9872  1.1270 -0.4221
 6960TIP3   OH242438   7.009   2.467   1.081  0.6091  0.2582  0.3778
 6960TIP3    H142439   6.956   2.445   1.005  0.2124 -2.0021  1.2834
 6960TIP3    H242440   6.947   2.506   1.143  0.8183  1.5133 -0.1796
 6961TIP3   OH242441   1.338   4.667   8.389 -0.2233 -0.0960  0.1850
 6961TIP3    H142442   1.403   4.597   8.397 -0.0507  0.1429  0.9727
 6961TIP3    H242443   1.255   4.625   8.409 -0.2463 -0.2973 -0.3385
 6962TIP3   OH242444   0.254   5.034   2.515 -0.3088 -0.7788 -0.3335
 6962TIP3    H142445   0.266   5.081   2.433 -0.1629  1.0338  0.6939
 6962TIP3    H242446   0.328   4.974   2.520  0.2760 -0.1219 -1.0263
 6963TIP3   OH242447   2.772   5.884   8.314  0.3797 -0.2791 -0.5513
 6963TIP3    H142448   2.823   5.814   8.273  0.9756  1.1011 -2.2606
 6963TIP3    H242449   2.693   5.890   8.261  0.8079  1.0120 -1.0710
 6964TIP3   OH242450   5.779   4.354   6.985 -0.2698 -0.2573 -0.0854
 6964TIP3    H142451   5.835   4.381   6.913  0.3908 -1.4551 -0.0437
 6964TIP3    H242452   5.710   4.301   6.944 -1.9912  2.0594 -0.2642
 6965TIP3   OH242453   0.846   4.618   2.556 -0.0562  0.2804 -0.1541
 6965TIP3    H142454   0.941   4.623   2.567 -0.0068  1.8958 -1.0981
 6965TIP3    H242455   0.813   4.604   2.645  1.0380  0.1347  0.2453
 6966TIP3   OH242456   2.170   6.734   0.995  0.1382 -0.2127 -0.5564
 6966TIP3    H142457   2.124   6.659   1.032  0.6131 -0.0870  0.3116
 6966TIP3    H242458   2.213   6.700   0.916 -1.3649 -0.3423 -1.3443
 6967TIP3   OH242459   2.394   4.282   1.471  0.3510 -0.1056  0.2072
 6967TIP3    H142460   2.466   4.344   1.480  0.6213 -0.3166 -0.4477
 6967TIP3    H242461   2.430   4.212   1.417  0.0190 -0.7920  0.8694
 6968TIP3   OH242462   0.271   5.089   2.805  0.0616 -0.0231 -0.2882
 6968TIP3    H142463   0.363   5.069   2.823  0.0796 -0.2075 -0.5906
 6968TIP3    H242464   0.254   5.052   2.718 -0.4026 -0.3150 -0.0771
 6969TIP3   OH242465   1.126   6.382   2.235  0.6142 -0.4700  0.2153
 6969TIP3    H142466   1.050   6.408   2.184  0.7987 -3.2204 -1.5448
 6969TIP3    H242467   1.110   6.418   2.322 -1.8672  0.4476 -0.5864
 6970TIP3   OH242468   2.210   0.312   7.564 -0.2201 -0.4313 -0.2966
 6970TIP3    H142469   2.133   0.257   7.576 -1.3744  1.4319  1.0900
 6970TIP3    H242470   2.187   0.369   7.490 -1.3022  1.9335  1.7854
 6971TIP3   OH242471   2.653   4.687   8.292 -0.2083  0.4268 -0.6570
 6971TIP3    H142472   2.594   4.650   8.358 -0.6136 -0.0834 -1.3040
 6971TIP3    H242473   2.738   4.689   8.336 -0.2777 -0.8007 -0.4251
 6972TIP3   OH242474   3.382   4.983   2.301 -0.2237  0.0820 -0.1660
 6972TIP3    H142475   3.390   4.890   2.322 -0.2858 -0.1114 -0.9742
 6972TIP3    H242476   3.446   4.997   2.231 -2.0821  0.0472 -1.9053
 6973TIP3   OH242477   3.190   4.403   2.832  0.3331  0.4307  0.0644
 6973TIP3    H142478   3.106   4.386   2.791 -1.0430 -1.4334  3.4654
 6973TIP3    H242479   3.255   4.370   2.770 -1.4945  0.3853 -1.8540
 6974TIP3   OH242480   1.900   3.376   0.857 -0.9400 -0.4632 -0.1283
 6974TIP3    H142481   1.975   3.418   0.815 -0.1308 -1.5839  0.1815
 6974TIP3    H242482   1.936   3.338   0.937 -1.8562 -0.9401  0.0607
 6975TIP3   OH242483   2.814   6.036   1.463 -0.3516 -0.4945  0.5067
 6975TIP3    H142484   2.904   6.010   1.445 -0.5287  0.4510 -1.8519
 6975TIP3    H242485   2.810   6.128   1.439 -1.8347 -0.4059  1.0384
 6976TIP3   OH242486   4.727   3.623   1.527 -0.4414  0.2931 -0.0937
 6976TIP3    H142487   4.743   3.547   1.472 -0.1363  0.4193 -0.1788
 6976TIP3    H242488   4.807   3.634   1.577 -0.6108  0.3543  0.1652
 6977TIP3   OH242489   1.807   4.594   0.883  0.4505 -0.6491 -0.1248
 6977TIP3    H142490   1.891   4.610   0.841  0.2364  1.4975  0.2123
 6977TIP3    H242491   1.828   4.543   0.961  1.4968  0.1881  0.1557
 6978TIP3   OH242492   0.815   5.208   0.599  0.4226 -0.3084  0.4895
 6978TIP3    H142493   0.899   5.220   0.643 -0.5830  2.2339  1.7921
 6978TIP3    H242494   0.828   5.243   0.511  0.6599  0.2655  0.7549
 6979TIP3   OH242495   3.640   4.595   8.287 -0.1965 -0.5291  0.3389
 6979TIP3    H142496   3.678   4.538   8.220 -1.5872  0.4165 -1.3243
 6979TIP3    H242497   3.604   4.669   8.237  1.7823  1.9408  2.4462
 6980TIP3   OH242498   1.051   4.265   2.106 -0.1725  0.4711 -0.6745
 6980TIP3    H142499   1.015   4.277   2.194  1.4039  0.6816 -0.0374
 6980TIP3    H242500   1.023   4.178   2.079  2.0758 -0.9756  1.4070
 6981TIP3   OH242501   3.502   5.484   2.212 -0.1056 -0.1571 -0.0332
 6981TIP3    H142502   3.487   5.578   2.212 -1.0411 -0.2533 -2.9350
 6981TIP3    H242503   3.423   5.447   2.172 -0.0621 -2.2577  1.6889
 6982TIP3   OH242504   3.829   7.057   8.462  0.0408  0.2675  0.4325
 6982TIP3    H142505   3.764   7.107   8.412  0.9749 -0.1752 -1.2468
 6982TIP3    H242506   3.913   7.080   8.422  0.7363 -0.6200  1.3654
 6983TIP3   OH242507   3.292   4.408   1.724  0.4578 -0.0102 -0.2490
 6983TIP3    H142508   3.338   4.335   1.765  0.3949 -0.4586 -0.9593
 6983TIP3    H242509   3.353   4.481   1.729 -0.2658  0.4775  2.3437
 6984TIP3   OH242510   4.348   3.330   2.064 -0.5222 -1.0016  0.3127
 6984TIP3    H142511   4.412   3.352   2.131 -0.7375 -0.1965  0.2639
 6984TIP3    H242512   4.349   3.235   2.060  0.2848 -1.0132  0.6858
 6985TIP3   OH242513   5.684   5.215   1.773  0.2797  0.1790 -0.2392
 6985TIP3    H142514   5.599   5.242   1.739 -0.1964 -0.9817 -0.0200
 6985TIP3    H242515   5.676   5.120   1.783  1.1754  0.2257  0.9990
 6986TIP3   OH242516   6.038   5.569   1.382 -0.1740 -0.1796 -0.4915
 6986TIP3    H142517   6.133   5.561   1.390 -0.3191 -1.5674  0.0089
 6986TIP3    H242518   6.025   5.615   1.299  0.9638  1.6315  0.2906
 6987TIP3   OH242519   2.232   3.479   0.516  0.1736 -0.2615 -0.0764
 6987TIP3    H142520   2.317   3.450   0.485 -0.3054 -1.9314  0.0931
 6987TIP3    H242521   2.248   3.563   0.558  2.0463 -1.3580  1.4974
 6988TIP3   OH242522   3.321   4.192   0.578  0.4474 -0.3926  0.2633
 6988TIP3    H142523   3.367   4.261   0.626 -0.7626  1.1443 -0.7332
 6988TIP3    H242524   3.381   4.117   0.581  1.8895  0.7600  1.1739
 6989TIP3   OH242525   5.310   6.213   1.184 -0.3547 -0.1134  0.6917
 6989TIP3    H142526   5.399   6.247   1.181 -0.8245  1.0761 -1.5532
 6989TIP3    H242527   5.320   6.118   1.177  0.7714 -0.0603  1.5318
 6990TIP3   OH242528   3.806   5.229   1.839 -0.2494 -0.2201 -0.5964
 6990TIP3    H142529   3.788   5.136   1.825  1.0396 -0.7995  1.3885
 6990TIP3    H242530   3.740   5.256   1.903  0.8528 -0.3647  0.6132
 6991TIP3   OH242531   4.514   3.432   1.428 -0.3959 -0.4122 -0.1169
 6991TIP3    H142532   4.430   3.466   1.397 -0.1537 -1.2793 -1.7815
 6991TIP3    H242533   4.580   3.482   1.381 -0.0177 -1.4628 -0.7264
 6992TIP3   OH242534   6.787   4.380   1.122  0.0059  0.0896  0.3831
 6992TIP3    H142535   6.785   4.332   1.039  0.9729  2.5793 -1.1517
 6992TIP3    H242536   6.698   4.413   1.132 -0.0969 -0.1628  0.3210
 6993TIP3   OH242537   4.935   4.514   1.942 -0.9461  0.1429  0.4728
 6993TIP3    H142538   4.940   4.432   1.893 -1.7618  0.5260 -0.2664
 6993TIP3    H242539   5.007   4.567   1.907 -0.9975  0.0935  0.2915
 6994TIP3   OH242540   3.646   2.903   1.764  0.3050 -0.1913 -0.0591
 6994TIP3    H142541   3.594   2.843   1.818 -2.5438  1.1609 -1.1877
 6994TIP3    H242542   3.732   2.862   1.759 -0.4696 -2.2660  2.3193
 6995TIP3   OH242543   6.220   6.053   1.882 -0.0575  0.2461  0.3041
 6995TIP3    H142544   6.250   6.144   1.881 -0.1497  0.2777  0.4725
 6995TIP3    H242545   6.218   6.029   1.974  0.3916 -0.0675  0.2379
 6996TIP3   OH242546   6.709   3.765   1.387 -0.1187 -0.1528 -0.2217
 6996TIP3    H142547   6.791   3.816   1.383 -0.6174  0.8136  1.2494
 6996TIP3    H242548   6.735   3.681   1.425 -0.0848  0.8278  2.0031
 6997TIP3   OH242549   5.290   6.372   0.963 -0.0810 -0.2342 -0.7064
 6997TIP3    H142550   5.302   6.304   1.031 -1.7652 -0.2965 -0.4522
 6997TIP3    H242551   5.378   6.390   0.932  0.9431  0.9480  2.6372
 6998TIP3   OH242552   3.007   3.924   7.904 -0.0108 -0.5694 -0.1117
 6998TIP3    H142553   3.072   3.984   7.942  1.0386 -0.5869 -1.7923
 6998TIP3    H242554   2.998   3.854   7.969 -2.2749  2.0390  2.5087
 6999TIP3   OH242555   0.919   5.936   8.162 -0.2161 -0.6932 -0.1716
 6999TIP3    H142556   0.953   5.945   8.251 -0.2735 -0.4171 -0.1777
 6999TIP3    H242557   0.851   5.869   8.170 -2.7497  1.9019  0.7052
 7000TIP3   OH242558   6.280   4.790   1.799 -0.4312 -0.3551  0.4677
 7000TIP3    H142559   6.252   4.741   1.876  2.2916  1.2174  2.5373
 7000TIP3    H242560   6.335   4.728   1.750 -0.6273 -0.7601  0.7610
 7001TIP3   OH242561   0.009   4.440   2.756 -0.3864 -0.7528  0.1837
 7001TIP3    H142562  -0.000   4.524   2.711 -0.0306 -1.2813 -0.9030
 7001TIP3    H242563  -0.056   4.383   2.714  0.1793 -1.3486  0.1082
 7002TIP3   OH242564   6.945   5.763   1.665  0.5956  0.2292  0.1191
 7002TIP3    H142565   7.004   5.695   1.697  1.0348  0.2769 -0.5787
 7002TIP3    H242566   6.985   5.845   1.695  1.2344  0.2986 -0.8979
 7003TIP3   OH242567   5.395   3.623   1.732  0.0151 -0.0860 -0.3673
 7003TIP3    H142568   5.352   3.706   1.748 -0.1107  0.0173 -1.1937
 7003TIP3    H242569   5.451   3.609   1.808 -0.3807  0.4853  0.0263
 7004TIP3   OH242570   6.932   3.724   2.239 -0.2170  0.5819  0.0103
 7004TIP3    H142571   6.849   3.686   2.268 -0.1803  0.4817 -0.0130
 7004TIP3    H242572   6.973   3.755   2.320 -0.1908  0.4549  0.0472
 7005TIP3   OH242573   0.903   7.093   1.448 -0.3831 -0.0757  0.0818
 7005TIP3    H142574   0.822   7.144   1.444  0.0694  0.7294  0.9313
 7005TIP3    H242575   0.944   7.105   1.362 -0.8207  0.0914 -0.1025
 7006TIP3   OH242576   6.057   6.736   0.682 -0.0972  0.1513  0.2802
 7006TIP3    H142577   6.095   6.689   0.757  0.0976 -0.0894  0.0298
 7006TIP3    H242578   6.028   6.668   0.623 -1.3488  0.3300  0.6739
 7007TIP3   OH242579   6.745   1.398   7.748 -0.0008  0.4544 -0.0058
 7007TIP3    H142580   6.757   1.329   7.814  1.2714 -0.0044 -0.6808
 7007TIP3    H242581   6.688   1.358   7.682 -0.7173  0.6722  0.4872
 7008TIP3   OH242582   0.049   2.058   1.054 -0.2553  0.1013 -0.0494
 7008TIP3    H142583   0.024   2.147   1.029  1.3114  0.8186  0.8352
 7008TIP3    H242584   0.115   2.033   0.990  0.4906  0.2074  0.6733
 7009TIP3   OH242585   6.018   6.030   8.109 -0.2288  0.0940 -0.4325
 7009TIP3    H142586   5.926   6.052   8.098  0.4560  2.6932 -1.3747
 7009TIP3    H242587   6.048   6.086   8.180  1.2183  1.1113 -1.8333
 7010TIP3   OH242588   6.918   5.075   0.228  0.3279  0.3271  0.3336
 7010TIP3    H142589   6.929   5.166   0.256  0.4108  0.5278 -0.3275
 7010TIP3    H242590   6.866   5.034   0.297 -0.4789  1.1061  0.1968
 7011TIP3   OH242591   0.121   4.678   2.596 -0.0467 -0.6219 -0.0867
 7011TIP3    H142592   0.031   4.667   2.565  0.1421 -0.6180 -0.6570
 7011TIP3    H242593   0.124   4.768   2.629 -0.6486 -1.1039  1.3303
 7012TIP3   OH242594   6.265   4.855   0.136  0.0004  0.1994 -0.5680
 7012TIP3    H142595   6.223   4.838   0.220  1.8715 -1.9037 -0.0265
 7012TIP3    H242596   6.198   4.900   0.085 -1.3604  0.9869  1.8175
 7013TIP3   OH242597   0.290   4.794   1.796  0.0043 -0.3863  0.1305
 7013TIP3    H142598   0.271   4.737   1.721  2.4286 -0.0796 -0.7857
 7013TIP3    H242599   0.284   4.883   1.761  1.3921 -0.2477  0.2144
 7014TIP3   OH242600   0.944   0.777   0.465  0.4052  0.2158 -0.0655
 7014TIP3    H142601   0.924   0.697   0.514 -2.3781  0.8002 -0.1403
 7014TIP3    H242602   0.994   0.831   0.525 -0.8655 -0.0946  1.3065
 7015TIP3   OH242603   3.848   6.449   7.874 -0.2513 -0.2606  0.7655
 7015TIP3    H142604   3.841   6.411   7.786 -0.4120  0.1275  0.6072
 7015TIP3    H242605   3.910   6.521   7.864 -0.5568  0.0203  0.8880
 7016TIP3   OH242606   0.338   5.340   1.730 -0.3140  0.4369  0.5214
 7016TIP3    H142607   0.408   5.329   1.795  0.8632  0.6232 -0.7062
 7016TIP3    H242608   0.302   5.427   1.748  1.2369  1.2613 -0.2383
 7017TIP3   OH242609   1.711   6.859   2.521 -0.3703 -0.3418  0.0243
 7017TIP3    H142610   1.712   6.953   2.504 -0.1817 -0.4048 -0.3075
 7017TIP3    H242611   1.720   6.852   2.616  0.1488 -0.0386 -0.0004
 7018TIP3   OH242612   3.215   5.531   1.780 -0.2030  0.0186 -0.3307
 7018TIP3    H142613   3.205   5.512   1.686 -1.3429 -0.4869 -0.1147
 7018TIP3    H242614   3.126   5.527   1.815  0.2306  0.0627  0.8013
 7019TIP3   OH242615   0.484   0.687   1.426 -0.4089  0.1266  0.2942
 7019TIP3    H142616   0.552   0.748   1.454 -1.6545  1.4652  0.5143
 7019TIP3    H242617   0.414   0.744   1.392 -0.7684 -1.2775 -1.3741
 7020TIP3   OH242618   1.693   5.814   2.518  0.2059  0.0294 -0.8168
 7020TIP3    H142619   1.727   5.896   2.483  0.8474 -0.1279 -0.5671
 7020TIP3    H242620   1.762   5.750   2.500  1.3771  0.3165  2.4303
 7021TIP3   OH242621   0.816   0.860   2.036  0.0356  0.3262 -0.7409
 7021TIP3    H142622   0.869   0.782   2.050 -0.8145  0.2267  2.0994
 7021TIP3    H242623   0.732   0.827   2.004 -0.6609 -0.0036  1.4038
 7022TIP3   OH242624   0.491   0.721   0.581 -0.0763  0.4001 -0.3490
 7022TIP3    H142625   0.510   0.649   0.521  1.8285 -0.1039  0.8231
 7022TIP3    H242626   0.396   0.716   0.595 -0.4577  0.1711 -2.8229
 7023TIP3   OH242627   4.004   6.959   0.651 -0.0710 -0.8390 -0.2479
 7023TIP3    H142628   4.041   6.911   0.725  2.2895  1.2110 -0.0398
 7023TIP3    H242629   3.938   7.017   0.691  1.7488  0.8285  0.3823
 7024TIP3   OH242630   1.380   5.985   1.307  0.1104  0.1631  0.0743
 7024TIP3    H142631   1.379   6.081   1.305 -1.0167  0.1950  1.3924
 7024TIP3    H242632   1.293   5.961   1.338  0.6888 -1.2582  0.6161
 7025TIP3   OH242633   1.896   6.263   2.003 -0.0998 -0.4268  0.1424
 7025TIP3    H142634   1.973   6.262   2.059  0.9405  1.4439 -1.2014
 7025TIP3    H242635   1.837   6.326   2.045  0.8231  1.2397 -0.9936
 7026TIP3   OH242636   4.916   6.584   0.916 -0.1715 -0.5799  0.4232
 7026TIP3    H142637   4.899   6.674   0.943 -2.0602 -0.9725  0.6492
 7026TIP3    H242638   4.901   6.532   0.995 -0.6451 -1.2371 -0.0887
 7027TIP3   OH242639   2.277   0.023   1.354  0.0873 -0.1403 -0.3987
 7027TIP3    H142640   2.208   0.019   1.288  0.4000  1.2304 -0.8104
 7027TIP3    H242641   2.250  -0.040   1.421 -1.9126  0.8565 -0.2362
 7028TIP3   OH242642   4.185   6.615   7.547 -0.2607  0.4372 -0.5280
 7028TIP3    H142643   4.190   6.647   7.457  0.3410  1.4830 -0.1307
 7028TIP3    H242644   4.262   6.652   7.590  1.1023 -2.4896 -0.3311
 7029TIP3   OH242645   1.066   1.865   0.491  0.4478 -0.1828  0.0420
 7029TIP3    H142646   1.082   1.908   0.407 -1.2650  0.1132 -0.1523
 7029TIP3    H242647   1.095   1.929   0.556  0.5877  0.1042 -0.2974
 7030TIP3   OH242648   1.454   6.109   2.375  0.3172 -0.0606  0.3286
 7030TIP3    H142649   1.416   6.037   2.426  0.1965  0.5317  1.0765
 7030TIP3    H242650   1.541   6.121   2.412 -0.6443  1.9720  2.0309
 7031TIP3   OH242651   4.542   6.277   0.707  0.5777  0.2459  0.1894
 7031TIP3    H142652   4.611   6.211   0.719  0.5501  0.3295  0.8160
 7031TIP3    H242653   4.499   6.251   0.625  1.4010  0.2390 -0.2512
 7032TIP3   OH242654   1.039   0.864   7.392 -0.2303  0.0697 -0.4327
 7032TIP3    H142655   0.997   0.808   7.458  4.9476 -1.6987  1.5873
 7032TIP3    H242656   1.025   0.953   7.423  0.9800 -0.6870  2.4183
 7033TIP3   OH242657   5.517   0.902   1.915  0.0893  0.3949  0.1279
 7033TIP3    H142658   5.607   0.935   1.915  0.8832 -1.6388  3.3727
 7033TIP3    H242659   5.521   0.822   1.863 -0.0829  0.8950 -0.6586
 7034TIP3   OH242660   3.172   7.256   1.108 -0.9027 -0.1535 -0.0059
 7034TIP3    H142661   3.162   7.162   1.100 -1.2091 -0.1506  0.3211
 7034TIP3    H242662   3.207   7.269   1.197  1.2974 -0.1137 -0.8570
 7035TIP3   OH242663   2.215   7.226   2.437  0.1376 -0.4641 -0.0854
 7035TIP3    H142664   2.166   7.303   2.406 -0.1309 -0.9706 -0.9239
 7035TIP3    H242665   2.167   7.197   2.515 -1.4423 -1.5251 -1.4495
 7036TIP3   OH242666   5.583   0.536   1.277  0.0004 -0.0132 -0.9790
 7036TIP3    H142667   5.586   0.511   1.185 -0.5601  1.2311 -1.3461
 7036TIP3    H242668   5.649   0.606   1.285 -0.0827  0.0091 -0.4718
 7037TIP3   OH242669   3.076   5.910   2.138  0.4688 -0.0057 -0.2645
 7037TIP3    H142670   3.066   5.824   2.180  0.1440 -0.0214 -0.3679
 7037TIP3    H242671   3.003   5.961   2.171  0.7810  0.2982 -0.0452
 7038TIP3   OH242672   2.454   6.424   0.027 -0.3070  0.7046 -0.1237
 7038TIP3    H142673   2.515   6.378  -0.031 -0.8099  0.8016 -0.7420
 7038TIP3    H242674   2.473   6.517   0.013  1.8509  0.6874  2.3661
 7039TIP3   OH242675   1.317   5.653   2.103 -0.0091  0.1162  0.1504
 7039TIP3    H142676   1.292   5.632   2.193 -0.7420  0.1132 -0.0521
 7039TIP3    H242677   1.382   5.723   2.112  0.5663 -0.4879  0.7164
 7040TIP3   OH242678   2.813   0.119   2.272 -0.0679  0.3866 -0.4755
 7040TIP3    H142679   2.869   0.191   2.301 -0.2585  0.4453 -0.2518
 7040TIP3    H242680   2.746   0.161   2.218 -1.4222  0.6624  1.3725
 7041TIP3   OH242681   6.307   1.164   0.335 -0.0465 -0.3041  0.1880
 7041TIP3    H142682   6.213   1.143   0.340 -0.2023  0.2544 -0.2957
 7041TIP3    H242683   6.313   1.229   0.265  0.6986 -0.2883  0.2642
 7042TIP3   OH242684   3.722   7.181   1.779  0.1871  0.3758  0.0658
 7042TIP3    H142685   3.731   7.098   1.733 -3.3091  0.6982 -1.3324
 7042TIP3    H242686   3.760   7.165   1.865  0.2520 -2.4337 -0.4463
 7043TIP3   OH242687   2.933   5.905   0.484 -0.3940 -0.3893  0.5665
 7043TIP3    H142688   2.929   5.929   0.391 -0.7442 -1.6122  0.2529
 7043TIP3    H242689   2.952   5.811   0.483  0.3613 -0.2485  1.7495
 7044TIP3   OH242690   4.706   5.253   8.396 -0.1322 -0.4769 -0.0183
 7044TIP3    H142691   4.769   5.320   8.367 -0.9024  0.0994 -0.3735
 7044TIP3    H242692   4.728   5.238   8.488 -0.0151  0.3294  0.0878
 7045TIP3   OH242693   6.809   4.982   1.581 -0.4329  0.2110 -0.6728
 7045TIP3    H142694   6.783   4.993   1.672 -0.7353  0.2193 -0.7597
 7045TIP3    H242695   6.871   4.910   1.582 -1.9135 -1.0986 -0.7230
 7046TIP3   OH242696   1.264   5.621   1.122  0.9477  0.1568  0.0009
 7046TIP3    H142697   1.204   5.547   1.109  1.0773  0.1270 -0.4565
 7046TIP3    H242698   1.349   5.579   1.140  0.6355  0.1985  1.6509
 7047TIP3   OH242699   6.744   0.365   1.213 -0.2915  0.0436 -0.4275
 7047TIP3    H142700   6.798   0.304   1.262  1.8814  1.6396 -0.7911
 7047TIP3    H242701   6.659   0.362   1.257  0.9262 -0.2979  1.9974
 7048TIP3   OH242702   4.482   5.959   2.605 -0.1490 -0.2316 -0.3377
 7048TIP3    H142703   4.404   5.904   2.614  0.2228 -0.6315  0.6007
 7048TIP3    H242704   4.552   5.896   2.585  0.2075 -0.0654  0.3601
 7049TIP3   OH242705   4.278   6.432   2.513  0.3487  0.1359 -0.1864
 7049TIP3    H142706   4.232   6.505   2.472  0.1226 -0.6735 -1.3711
 7049TIP3    H242707   4.343   6.474   2.570  0.4841  1.2492 -1.1554
 7050TIP3   OH242708   0.535   0.094   1.798 -0.0754 -0.9789 -0.2954
 7050TIP3    H142709   0.507   0.054   1.715  0.2376  0.9196 -1.3372
 7050TIP3    H242710   0.630   0.082   1.799 -0.1355 -1.4497  0.0418
 7051TIP3   OH242711   5.298   6.914   2.352  0.6297  0.2150 -0.0382
 7051TIP3    H142712   5.376   6.878   2.396  0.0565 -0.3782  0.5085
 7051TIP3    H242713   5.310   7.009   2.355  1.6340  0.1125 -0.5121
 7052TIP3   OH242714   4.487   7.094   1.706 -0.3858  0.4452  0.1489
 7052TIP3    H142715   4.461   7.022   1.763  0.8759  0.5673  0.8785
 7052TIP3    H242716   4.407   7.146   1.694 -1.4826 -1.4411 -0.9471
 7053TIP3   OH242717   3.082   4.157   0.831 -0.2908  0.5078  0.8357
 7053TIP3    H142718   3.036   4.241   0.835 -1.9779 -0.3522  0.0217
 7053TIP3    H242719   3.121   4.155   0.743  2.6589  1.8870  2.0329
 7054TIP3   OH242720   5.325   6.455   2.322  0.3516 -0.1961 -0.4719
 7054TIP3    H142721   5.390   6.389   2.344  2.1588  1.4664 -0.6860
 7054TIP3    H242722   5.297   6.432   2.233  0.7853 -0.8170 -0.4493
 7055TIP3   OH242723   2.995   5.151   1.374 -0.1498 -0.2075  0.1803
 7055TIP3    H142724   2.981   5.237   1.335 -1.8518 -0.5028  0.0900
 7055TIP3    H242725   3.071   5.163   1.431 -0.5868  1.4463  0.4460
 7056TIP3   OH242726   5.998   7.176   2.169 -0.1842  0.2596  0.2087
 7056TIP3    H142727   5.978   7.269   2.183 -2.4387 -0.1460 -0.0130
 7056TIP3    H242728   5.957   7.131   2.242  1.3462 -0.5345  0.5941
 7057TIP3   OH242729   2.965   6.482   1.301 -0.2878 -0.7510  0.4484
 7057TIP3    H142730   2.881   6.522   1.321 -0.4959  0.0276 -1.8287
 7057TIP3    H242731   3.030   6.550   1.322 -0.2407 -1.1960  1.7842
 7058TIP3   OH242732   6.908   5.945   2.358  0.2626 -0.2421  0.1306
 7058TIP3    H142733   6.891   5.853   2.337 -1.4535  0.3227 -1.0702
 7058TIP3    H242734   6.826   5.977   2.396  0.5645  1.0136 -0.2309
 7059TIP3   OH242735   0.422   6.248   0.533  0.1589 -0.3159  0.8494
 7059TIP3    H142736   0.346   6.296   0.566 -0.6416 -1.3228  0.4800
 7059TIP3    H242737   0.497   6.293   0.572 -0.5044  1.9917 -0.4458
 7060TIP3   OH242738   3.864   1.055   1.029  0.0761  0.4237 -0.2061
 7060TIP3    H142739   3.893   1.143   1.002 -0.4826  0.5516 -0.4084
 7060TIP3    H242740   3.799   1.072   1.097  2.1143  0.0778  1.8646
 7061TIP3   OH242741   5.851   6.379   2.319  0.6319 -0.5913 -0.0035
 7061TIP3    H142742   5.905   6.405   2.244 -0.9802 -1.3259 -1.4625
 7061TIP3    H242743   5.899   6.307   2.360  1.6728  0.0088 -0.1499
 7062TIP3   OH242744   3.640   7.257   8.359 -0.2211  0.5385 -0.6187
 7062TIP3    H142745   3.659   7.249   8.266 -0.8342  0.3861 -0.7340
 7062TIP3    H242746   3.690   7.333   8.387 -0.0397  0.5898 -1.0718
 7063TIP3   OH242747   5.609   6.883   0.102  0.2577 -0.0825  0.1481
 7063TIP3    H142748   5.549   6.917   0.035  1.0242  0.3470 -0.3215
 7063TIP3    H242749   5.679   6.948   0.107  0.5511 -0.4510  0.8871
 7064TIP3   OH242750   0.476   6.025   7.938 -0.3972 -0.5683  0.2146
 7064TIP3    H142751   0.557   6.043   7.890 -0.7457  0.1521 -0.1065
 7064TIP3    H242752   0.417   5.988   7.873 -1.0865  0.9944 -0.0750
 7065TIP3   OH242753   6.755   6.199   2.759 -0.3627  0.0205  0.1738
 7065TIP3    H142754   6.775   6.120   2.809 -0.0995  0.2859  0.4885
 7065TIP3    H242755   6.659   6.203   2.757 -0.3882 -1.0149 -0.9656
 7066TIP3   OH242756   7.223   7.290   1.612  0.1924 -0.1958 -0.3203
 7066TIP3    H142757   7.163   7.295   1.687 -2.3118 -0.2449 -2.2521
 7066TIP3    H242758   7.167   7.304   1.536  2.6178 -0.5899 -2.2344
 7067TIP3   OH242759   6.212   1.041   1.700  0.0193 -0.2703  0.0349
 7067TIP3    H142760   6.281   0.986   1.737 -0.8236 -0.5949  1.1330
 7067TIP3    H242761   6.196   1.004   1.613  0.3121 -1.0141  0.2945
 7068TIP3   OH242762   7.104   6.120   2.847  0.2067 -0.0383  0.1177
 7068TIP3    H142763   7.028   6.115   2.904 -0.7523  1.0911 -1.0309
 7068TIP3    H242764   7.120   6.030   2.819 -1.8518 -0.0517 -1.0823
 7069TIP3   OH242765   6.811   0.409   0.501 -0.1185 -0.9427  0.6937
 7069TIP3    H142766   6.803   0.399   0.596 -0.8190  0.7059  0.8290
 7069TIP3    H242767   6.818   0.319   0.468 -1.2712 -1.6106  2.1846
 7070TIP3   OH242768   6.109   6.807   2.254  0.4862 -0.3885  0.3733
 7070TIP3    H142769   6.145   6.868   2.190 -2.5795  0.2493 -0.8704
 7070TIP3    H242770   6.184   6.779   2.306  2.9228 -0.1754 -2.8751
 7071TIP3   OH242771   2.078   6.026   0.422  0.0892 -0.5372 -0.6386
 7071TIP3    H142772   2.166   5.996   0.444  0.2722  0.3409 -0.1373
 7071TIP3    H242773   2.091   6.090   0.352 -0.1571 -0.5321 -0.6823
 7072TIP3   OH242774   0.274   0.575   0.403  0.2982  0.2032  0.1665
 7072TIP3    H142775   0.306   0.502   0.351 -0.5874 -0.4957  0.5743
 7072TIP3    H242776   0.208   0.536   0.460 -1.5576  1.6654 -0.9293
 7073TIP3   OH242777   5.951   7.048   1.305  0.1764 -0.2704  0.3171
 7073TIP3    H142778   5.918   7.083   1.223  0.2353 -3.0082 -0.9240
 7073TIP3    H242779   6.039   7.086   1.315  0.0519  0.2872 -0.7366
 7074TIP3   OH242780   7.106   1.771   1.536  0.6162  0.0440  0.7927
 7074TIP3    H142781   7.093   1.708   1.607 -0.6063 -0.4699  0.1245
 7074TIP3    H242782   7.138   1.850   1.580 -0.8119 -0.0322  2.0074
 7075TIP3   OH242783   6.924   0.600   2.087 -0.0431 -0.6359 -0.5044
 7075TIP3    H142784   6.872   0.525   2.059 -0.3968 -0.6384  0.1485
 7075TIP3    H242785   6.869   0.676   2.065 -0.4497 -0.6521  0.4491
 7076TIP3   OH242786   1.238   0.605   2.229  1.0434  0.1813  0.4557
 7076TIP3    H142787   1.217   0.685   2.181 -0.8102 -0.4535  0.1704
 7076TIP3    H242788   1.235   0.631   2.322 -1.3490  0.0584  0.4401
 7077TIP3   OH242789   6.445   6.161   0.757  0.6508 -0.4309  0.1342
 7077TIP3    H142790   6.465   6.131   0.668  0.6475  1.3262 -0.4783
 7077TIP3    H242791   6.512   6.120   0.812  0.9557 -1.1263 -0.7458
 7078TIP3   OH242792   6.546   6.379   1.632 -0.4253  0.1874  0.3309
 7078TIP3    H142793   6.533   6.299   1.683 -0.2756 -0.5510 -0.7682
 7078TIP3    H242794   6.588   6.440   1.693  0.4858 -0.9514  0.8622
   7.30356   7.30356   8.50000
